 Gaussian 16, Revision A.03,

 -----------------------------------------------------------
 # opt freq B3LYP/6-31G(d) empiricaldispersion=gd3bj scf=xqc
 -----------------------------------------------------------

 -------------------------------
 CID_117034871_JID_5974_neutraal
 -------------------------------
 Symbolic Z-matrix:
 Charge =  0 Multiplicity = 1

 SCF Done:  E(RB3LYP) =  -995.673453658     A.U. after   14 cycles
 SCF Done:  E(RB3LYP) =  -995.679399303     A.U. after   12 cycles
 SCF Done:  E(RB3LYP) =  -995.680445616     A.U. after   12 cycles
 SCF Done:  E(RB3LYP) =  -995.680725015     A.U. after   12 cycles
 SCF Done:  E(RB3LYP) =  -995.680969627     A.U. after   12 cycles
 SCF Done:  E(RB3LYP) =  -995.681461283     A.U. after   13 cycles
 SCF Done:  E(RB3LYP) =  -995.682303976     A.U. after   11 cycles
 SCF Done:  E(RB3LYP) =  -995.682186907     A.U. after   12 cycles
 SCF Done:  E(RB3LYP) =  -995.680980689     A.U. after   15 cycles
 SCF Done:  E(RB3LYP) =  -995.683329210     A.U. after   13 cycles
 SCF Done:  E(RB3LYP) =  -995.684442581     A.U. after    8 cycles
 SCF Done:  E(RB3LYP) =  -995.684443248     A.U. after    8 cycles
 SCF Done:  E(RB3LYP) =  -995.684443271     A.U. after    7 cycles
 SCF Done:  E(RB3LYP) =  -995.684443292     A.U. after    7 cycles
 SCF Done:  E(RB3LYP) =  -995.684443291     A.U. after    7 cycles
 Optimization completed.
    -- Stationary point found.
 Normal termination of Gaussian 16 at Thu Dec 10 17:51:04 2020.

 --------------------------------------------------------------------
 #N Geom=AllCheck Guess=TCheck SCRF=Check GenChk RB3LYP/6-31G(d) Freq
 --------------------------------------------------------------------

 Structure from the checkpoint file:  "JID_5974.chk"
 -------------------------------
 CID_117034871_JID_5974_neutraal
 -------------------------------
 Charge =  0 Multiplicity = 1

 SCF Done:  E(RB3LYP) =  -995.684443291     A.U. after    1 cycles

  Exact polarizability: 210.662 -14.126 111.742  -1.667  -5.775 129.345
 Approx polarizability: 285.311 -24.707 168.915  -9.281 -17.248 226.532

                      1                      2                      3
                      A                      A                      A
 Frequencies --     16.5143                40.3586                70.0767
 Red. masses --      3.5112                 4.2975                 3.7905
 Frc consts  --      0.0006                 0.0041                 0.0110
 IR Inten    --      0.3789                 0.3958                 0.6849

                      4                      5                      6
                      A                      A                      A
 Frequencies --     94.3012               102.6487               153.7768
 Red. masses --      3.4412                 3.2773                 2.9219
 Frc consts  --      0.0180                 0.0203                 0.0407
 IR Inten    --      2.7461                 0.6767                 0.2676

                      7                      8                      9
                      A                      A                      A
 Frequencies --    163.4416               190.4476               207.3552
 Red. masses --      4.1878                 2.6535                 1.9139
 Frc consts  --      0.0659                 0.0567                 0.0485
 IR Inten    --      1.8374                 1.4701                 2.0216

                     10                     11                     12
                      A                      A                      A
 Frequencies --    249.4699               258.3816               265.1747
 Red. masses --      1.4870                 1.4712                 2.3003
 Frc consts  --      0.0545                 0.0579                 0.0953
 IR Inten    --      0.8304                 1.0952                 0.2173

                     13                     14                     15
                      A                      A                      A
 Frequencies --    299.4005               312.4384               343.3900
 Red. masses --      3.3008                 3.4605                 4.3861
 Frc consts  --      0.1743                 0.1990                 0.3047
 IR Inten    --      0.8408                 1.9046                 1.9496

                     16                     17                     18
                      A                      A                      A
 Frequencies --    361.9264               380.7808               422.0974
 Red. masses --      4.8607                 2.1936                 3.5533
 Frc consts  --      0.3751                 0.1874                 0.3730
 IR Inten    --      1.6731                 1.9156                 2.8378

                     19                     20                     21
                      A                      A                      A
 Frequencies --    435.0761               492.8204               511.9079
 Red. masses --      3.3706                 4.2253                 4.2692
 Frc consts  --      0.3759                 0.6046                 0.6591
 IR Inten    --      1.5193                 4.7531                 5.0136

                     22                     23                     24
                      A                      A                      A
 Frequencies --    538.5275               621.7511               641.1827
 Red. masses --      2.6803                 3.1837                 6.3101
 Frc consts  --      0.4580                 0.7251                 1.5284
 IR Inten    --     12.1549                 4.6524                 5.9515

                     25                     26                     27
                      A                      A                      A
 Frequencies --    654.4037               723.2194               760.8502
 Red. masses --      6.9080                 4.1855                 1.3204
 Frc consts  --      1.7430                 1.2898                 0.4504
 IR Inten    --      4.3045                 2.3094               114.5636

                     28                     29                     30
                      A                      A                      A
 Frequencies --    795.9920               823.3869               825.0750
 Red. masses --      1.0970                 4.7767                 1.3164
 Frc consts  --      0.4095                 1.9080                 0.5280
 IR Inten    --     25.6068                 6.7014                 6.2572

                     31                     32                     33
                      A                      A                      A
 Frequencies --    837.1446               844.8922               919.3796
 Red. masses --      2.1849                 1.8504                 1.9739
 Frc consts  --      0.9021                 0.7783                 0.9830
 IR Inten    --     27.0927                24.7309                11.3985

                     34                     35                     36
                      A                      A                      A
 Frequencies --    941.4659               948.3582               956.5383
 Red. masses --      2.9578                 1.4428                 1.3818
 Frc consts  --      1.5446                 0.7645                 0.7449
 IR Inten    --     14.7718                 2.0548                 1.0569

                     37                     38                     39
                      A                      A                      A
 Frequencies --    962.0496               983.5351              1022.8384
 Red. masses --      1.3772                 1.9721                 1.6834
 Frc consts  --      0.7510                 1.1240                 1.0377
 IR Inten    --      0.2667                 5.5291                 8.8646

                     40                     41                     42
                      A                      A                      A
 Frequencies --   1030.7460              1066.3361              1079.6514
 Red. masses --      3.3119                 1.2888                 6.9652
 Frc consts  --      2.0731                 0.8634                 4.7835
 IR Inten    --      1.8792                13.6757                52.6258

                     43                     44                     45
                      A                      A                      A
 Frequencies --   1090.2262              1119.7213              1140.3796
 Red. masses --      1.3725                 2.9888                 1.3439
 Frc consts  --      0.9612                 2.2078                 1.0297
 IR Inten    --      1.8486                 2.1113                 6.6528

                     46                     47                     48
                      A                      A                      A
 Frequencies --   1155.6943              1165.7480              1186.2720
 Red. masses --      1.7998                 1.6178                 1.2712
 Frc consts  --      1.4163                 1.2953                 1.0540
 IR Inten    --     10.1965                 3.8297                 0.7708

                     49                     50                     51
                      A                      A                      A
 Frequencies --   1195.2504              1200.8249              1209.8337
 Red. masses --      1.7533                 1.7025                 1.1693
 Frc consts  --      1.4758                 1.4464                 1.0084
 IR Inten    --     15.1096                 9.4577                30.3993

                     52                     53                     54
                      A                      A                      A
 Frequencies --   1219.8349              1245.0773              1296.2867
 Red. masses --      1.3733                 2.1340                 2.7087
 Frc consts  --      1.2040                 1.9491                 2.6817
 IR Inten    --     11.2685                15.6722                 0.2522

                     55                     56                     57
                      A                      A                      A
 Frequencies --   1302.3512              1333.5197              1351.9716
 Red. masses --      4.6462                 1.4023                 5.1012
 Frc consts  --      4.6431                 1.4693                 5.4936
 IR Inten    --    275.0951                11.9165                66.4272

                     58                     59                     60
                      A                      A                      A
 Frequencies --   1361.1489              1397.3697              1454.6182
 Red. masses --      1.3111                 1.2837                 3.0143
 Frc consts  --      1.4312                 1.4769                 3.7578
 IR Inten    --      4.6024                13.4333                 1.6148

                     61                     62                     63
                      A                      A                      A
 Frequencies --   1478.9690              1486.1984              1497.4938
 Red. masses --      1.1402                 1.0926                 1.1119
 Frc consts  --      1.4695                 1.4219                 1.4691
 IR Inten    --      0.9213                 2.4943                 4.2425

                     64                     65                     66
                      A                      A                      A
 Frequencies --   1499.2766              1516.9385              1518.0354
 Red. masses --      1.1986                 1.2289                 1.0729
 Frc consts  --      1.5874                 1.6661                 1.4567
 IR Inten    --     23.1053                 2.0136                 8.4061

                     67                     68                     69
                      A                      A                      A
 Frequencies --   1521.5861              1524.4551              1534.5311
 Red. masses --      1.0479                 1.2480                 1.0904
 Frc consts  --      1.4294                 1.7087                 1.5128
 IR Inten    --      6.0853                 4.9286                63.2797

                     70                     71                     72
                      A                      A                      A
 Frequencies --   1549.2981              1552.0686              1622.8380
 Red. masses --      2.1105                 1.0595                 6.7525
 Frc consts  --      2.9847                 1.5038                10.4776
 IR Inten    --     70.9008                15.1975                12.7634

                     73                     74                     75
                      A                      A                      A
 Frequencies --   1660.0664              3010.3887              3017.6781
 Red. masses --      5.6295                 1.0483                 1.0608
 Frc consts  --      9.1405                 5.5974                 5.6916
 IR Inten    --     89.1296                62.8763                30.6918

                     76                     77                     78
                      A                      A                      A
 Frequencies --   3028.4863              3072.2037              3081.3376
 Red. masses --      1.0347                 1.0924                 1.0979
 Frc consts  --      5.5914                 6.0746                 6.1416
 IR Inten    --     55.5006                51.6835                25.3188

                     79                     80                     81
                      A                      A                      A
 Frequencies --   3088.3489              3113.0567              3147.9613
 Red. masses --      1.1068                 1.1013                 1.0537
 Frc consts  --      6.2196                 6.2884                 6.1523
 IR Inten    --     40.5100                29.6712                18.4242

                     82                     83                     84
                      A                      A                      A
 Frequencies --   3153.3499              3162.9528              3195.9911
 Red. masses --      1.0575                 1.0999                 1.0895
 Frc consts  --      6.1954                 6.4833                 6.5568
 IR Inten    --     11.4112                26.6325                 4.8140

                     85                     86                     87
                      A                      A                      A
 Frequencies --   3209.5052              3224.6226              3228.7062
 Red. masses --      1.0878                 1.0980                 1.1141
 Frc consts  --      6.6023                 6.7267                 6.8427
 IR Inten    --      5.5844                 6.5814                 1.8205

                     88                     89                     90
                      A                      A                      A
 Frequencies --   3230.7938              3241.4138              3532.8336
 Red. masses --      1.0917                 1.1145                 1.0731
 Frc consts  --      6.7137                 6.8994                 7.8910
 IR Inten    --      9.3988                12.8477                 2.1229

 - Thermochemistry -
 -------------------
 Temperature   298.150 Kelvin.  Pressure   1.00000 Atm.
 Atom     1 has atomic number  6 and mass  12.00000

 Molecular mass:   223.10309 amu.
 Principal axes and moments of inertia in atomic units:
                           1         2         3
     Eigenvalues --  1650.886105935.145156318.59545
           X            0.99991  -0.00131   0.01334
           Y            0.00178   0.99935  -0.03593
           Z           -0.01329   0.03595   0.99927
 This molecule is an asymmetric top.
 Rotational symmetry number  1.
 Warning -- assumption of classical behavior for rotation
           may cause significant error
 Rotational temperatures (Kelvin)      0.05247     0.01459     0.01371
 Rotational constants (GHZ):           1.09320     0.30408     0.28562
 Zero-point vibrational energy     714628.9 (Joules/Mol)
                                  170.80041 (Kcal/Mol)
 Warning -- explicit consideration of  22 degrees of freedom as
           vibrations may cause significant error
 Vibrational temperatures:     23.76    58.07   100.82   135.68   147.69
          (Kelvin)            221.25   235.16   274.01   298.34   358.93
                              371.75   381.53   430.77   449.53   494.06
                              520.73   547.86   607.30   625.98   709.06
                              736.52   774.82   894.56   922.52   941.54
                             1040.55  1094.69  1145.25  1184.67  1187.10
                             1204.46  1215.61  1322.78  1354.56  1364.48
                             1376.25  1384.17  1415.09  1471.64  1483.01
                             1534.22  1553.38  1568.59  1611.03  1640.75
                             1662.79  1677.25  1706.78  1719.70  1727.72
                             1740.68  1755.07  1791.39  1865.07  1873.79
                             1918.64  1945.19  1958.39  2010.50  2092.87
                             2127.91  2138.31  2154.56  2157.12  2182.54
                             2184.11  2189.22  2193.35  2207.85  2229.09
                             2233.08  2334.90  2388.47  4331.28  4341.77
                             4357.32  4420.22  4433.36  4443.45  4478.99
                             4529.21  4536.97  4550.78  4598.32  4617.76
                             4639.51  4645.39  4648.39  4663.67  5082.96

 Zero-point correction=                           0.272188 (Hartree/Particle)
 Thermal correction to Energy=                    0.287626
 Thermal correction to Enthalpy=                  0.288570
 Thermal correction to Gibbs Free Energy=         0.228431
 Sum of electronic and zero-point Energies=           -995.412256
 Sum of electronic and thermal Energies=              -995.396818
 Sum of electronic and thermal Enthalpies=            -995.395874
 Sum of electronic and thermal Free Energies=         -995.456012

                     E (Thermal)             CV                S
                      KCal/Mol        Cal/Mol-Kelvin    Cal/Mol-Kelvin
 Total                  180.488             58.472            126.573
 Electronic               0.000              0.000              0.000
 Translational            0.889              2.981             42.110
 Rotational               0.889              2.981             32.493
 Vibrational            178.710             52.510             51.970
 Vibration     1          0.593              1.986              7.015
 Vibration     2          0.594              1.981              5.241
 Vibration     3          0.598              1.968              4.151
 Vibration     4          0.603              1.953              3.569
 Vibration     5          0.605              1.947              3.403
 Vibration     6          0.619              1.898              2.625
 Vibration     7          0.623              1.887              2.510
 Vibration     8          0.634              1.853              2.223
 Vibration     9          0.641              1.829              2.067
 Vibration    10          0.662              1.764              1.734
 Vibration    11          0.667              1.749              1.673
 Vibration    12          0.671              1.737              1.627
 Vibration    13          0.692              1.675              1.420
 Vibration    14          0.701              1.650              1.349
 Vibration    15          0.722              1.589              1.196
 Vibration    16          0.736              1.551              1.114
 Vibration    17          0.751              1.511              1.036
 Vibration    18          0.784              1.422              0.885
 Vibration    19          0.796              1.394              0.842
 Vibration    20          0.849              1.266              0.676
 Vibration    21          0.867              1.224              0.629
 Vibration    22          0.894              1.165              0.568

                           ! Non-Optimized Parameters !
 Normal termination of Gaussian 16 at Thu Dec 10 18:01:32 2020.

 ----------------------------------------------------------------------
 # B3LYP/6-311++G(d,p) empiricaldispersion=gd3bj scf=xqc pop=npa geom=c
 heck
 ----------------------------------------------------------------------

 ---------------------------------------
 CID_117034871_JID_5974_Energie_neutraal
 ---------------------------------------
 Structure from the checkpoint file:  "JID_5974.chk"
 Charge =  0 Multiplicity = 1

 SCF Done:  E(RB3LYP) =  -995.876100448     A.U. after   15 cycles
 Normal termination of Gaussian 16 at Thu Dec 10 18:06:43 2020.

 ----------------------------------------------------------------------
 # B3LYP/6-311++G(d,p) empiricaldispersion=gd3bj scf=xqc pop=npa geom=c
 heck
 ----------------------------------------------------------------------

 -------------------------------------
 CID_117034871_JID_5974_Energie_kation
 -------------------------------------
 Structure from the checkpoint file:  "JID_5974.chk"
 Charge =  1 Multiplicity = 2

 SCF Done:  E(UB3LYP) =  -995.601220779     A.U. after   24 cycles
 Normal termination of Gaussian 16 at Thu Dec 10 18:18:32 2020.
 Gaussian 16:  ES64L-G16RevA.03 25-Dec-2016

 ----------------------------------------------------------------------
 # B3LYP/6-311++G(d,p) empiricaldispersion=gd3bj scf=xqc pop=npa geom=c
 heck
 ----------------------------------------------------------------------

 ------------------------------------
 CID_117034871_JID_5974_Energie_anion
 ------------------------------------
 Structure from the checkpoint file:  "JID_5974.chk"
 Charge = -1 Multiplicity = 2

                         Standard orientation:
 ---------------------------------------------------------------------
 Center     Atomic      Atomic             Coordinates (Angstroms)
 Number     Number       Type             X           Y           Z
 ---------------------------------------------------------------------
      1          6           0        0.749629    2.257375    0.782791
      2          7           0        1.360330    2.094388   -0.531010
      3          6           0        2.605882    1.345965   -0.544934
      4          6           0        2.593349   -0.091467   -0.015661
      5          6           0        3.913970   -0.654478    0.463386
      6          6           0        2.830141   -0.335891    1.457214
      7         16           0        1.582926   -1.279830   -0.951524
      8          6           0       -0.093931   -0.892790   -0.451718
      9          6           0       -0.570368   -1.219250    0.828025
     10          6           0       -1.872889   -0.916786    1.198297
     11          6           0       -2.741047   -0.298955    0.286055
     12          6           0       -2.289441    0.003171   -1.003558
     13          6           0       -0.972201   -0.294901   -1.358866
     14          8           0       -3.997140   -0.043110    0.745903
     15          6           0       -4.917009    0.575023   -0.139873
     16          1           0        1.448366    2.793395    1.437306
     17          1           0        0.467072    1.318242    1.282340
     18          1           0       -0.151071    2.871914    0.682489
     19          1           0        0.693932    1.655520   -1.160076
     20          1           0        2.971477    1.326366   -1.578382
     21          1           0        3.342686    1.910792    0.045962
     22          1           0        4.128469   -1.699561    0.263332
     23          1           0        4.778442    0.002243    0.403086
     24          1           0        2.948262    0.541288    2.088004
     25          1           0        2.320418   -1.165500    1.934839
     26          1           0        0.086560   -1.714826    1.534283
     27          1           0       -2.248241   -1.157750    2.187573
     28          1           0       -2.943166    0.469030   -1.731124
     29          1           0       -0.622292   -0.056222   -2.359128
     30          1           0       -4.563471    1.563796   -0.459916
     31          1           0       -5.100843   -0.046404   -1.025917
     32          1           0       -5.845107    0.687045    0.422612
 ---------------------------------------------------------------------

 SCF Done:  E(UB3LYP) =  -995.862965714     A.U. after   33 cycles
 SCF Done:  E(UB3LYP) =  -995.862965714     a.u. after    1 cycles

 The electronic state is 2-A.
 Alpha  occ. eigenvalues --  -88.75444 -19.06271 -14.20234 -10.14782 -10.12282
 Alpha  occ. eigenvalues --  -10.12200 -10.10884 -10.10802 -10.09585 -10.09340
 Alpha  occ. eigenvalues --  -10.09291 -10.09233 -10.08586 -10.08562 -10.08555
 Alpha  occ. eigenvalues --   -7.84044  -5.80440  -5.80074  -5.79418  -0.97904
 Alpha  occ. eigenvalues --   -0.81862  -0.78385  -0.77252  -0.69164  -0.66713
 Alpha  occ. eigenvalues --   -0.63714  -0.61856  -0.58731  -0.54562  -0.53070
 Alpha  occ. eigenvalues --   -0.52429  -0.50025  -0.46466  -0.44401  -0.41206
 Alpha  occ. eigenvalues --   -0.40672  -0.39722  -0.37895  -0.37509  -0.36604
 Alpha  occ. eigenvalues --   -0.35745  -0.34560  -0.33844  -0.32656  -0.31685
 Alpha  occ. eigenvalues --   -0.29732  -0.29140  -0.28639  -0.28035  -0.27573
 Alpha  occ. eigenvalues --   -0.27250  -0.25607  -0.24089  -0.23736  -0.21797
 Alpha  occ. eigenvalues --   -0.20209  -0.17447  -0.15326  -0.13881  -0.12369
 Alpha  occ. eigenvalues --    0.04226
 Alpha virt. eigenvalues --    0.05635   0.06713   0.06776   0.07103   0.07622
 Alpha virt. eigenvalues --    0.08053   0.08727   0.09004   0.09636   0.10031
 Alpha virt. eigenvalues --    0.10280   0.10754   0.11468   0.11764   0.12285

  Beta  occ. eigenvalues --  -88.75440 -19.06256 -14.20228 -10.14766 -10.12270
  Beta  occ. eigenvalues --  -10.12134 -10.10877 -10.10793 -10.09577 -10.09334
  Beta  occ. eigenvalues --  -10.09273 -10.09212 -10.08569 -10.08557 -10.08539
  Beta  occ. eigenvalues --   -7.84039  -5.80428  -5.80071  -5.79414  -0.97869
  Beta  occ. eigenvalues --   -0.81847  -0.78365  -0.77227  -0.69130  -0.66679
  Beta  occ. eigenvalues --   -0.63669  -0.61820  -0.58667  -0.54525  -0.53031
  Beta  occ. eigenvalues --   -0.52390  -0.49973  -0.46431  -0.44350  -0.41176
  Beta  occ. eigenvalues --   -0.40648  -0.39684  -0.37861  -0.37454  -0.36568
  Beta  occ. eigenvalues --   -0.35715  -0.34539  -0.33815  -0.32599  -0.31657
  Beta  occ. eigenvalues --   -0.29684  -0.29113  -0.28615  -0.28000  -0.27540
  Beta  occ. eigenvalues --   -0.27221  -0.25563  -0.24039  -0.23701  -0.21766
  Beta  occ. eigenvalues --   -0.20187  -0.17408  -0.15300  -0.13851  -0.12338
  Beta virt. eigenvalues --    0.06189   0.06789   0.06818   0.06984   0.07509
  Beta virt. eigenvalues --    0.08265   0.08346   0.09097   0.09385   0.10146
  Beta virt. eigenvalues --    0.10224   0.10588   0.11158   0.11707   0.12052

 Mulliken charges and spin densities:
               1          2
     1  C   -0.060725  -0.421276
     2  N   -0.082546   0.088486
     3  C    0.075622  -0.877552
     4  C   -0.842942   1.084497
     5  C   -0.050024  -0.358651
     6  C    0.289890  -0.588603
     7  S    0.573513  -0.650649
     8  C    2.450162  -1.422103
     9  C   -0.665201   0.364721
    10  C   -0.954631   0.630355
    11  C   -0.555358  -0.129170
    12  C   -0.202235   0.282287
    13  C    0.194545  -0.612806
    14  O   -0.208714   0.078017
    15  C    1.321731  -1.658526
    16  H    0.000647   0.142507
    17  H    0.115265   0.043608
    18  H   -0.068010   0.216231
    19  H    0.258549  -0.018267
    20  H    0.154307   0.026382
    21  H   -0.129018   0.278934
    22  H    0.160484  -0.001861
    23  H   -0.173463   0.320929
    24  H   -0.147692   0.322666
    25  H    0.056032   0.070699
    26  H   -0.066605   0.225131
    27  H   -0.090028   0.285131
    28  H   -0.580861   0.797062
    29  H   -0.243768   0.443767
    30  H   -0.285560   0.449699
    31  H   -0.413583   0.579151
    32  H   -0.829784   1.009203
 Sum of Mulliken charges =  -1.00000   1.00000

 Dipole moment (field-independent basis, Debye):
    X=              7.7418    Y=             -3.5164    Z=              0.9087  Tot=              8.5514
 Quadrupole moment (field-independent basis, Debye-Ang):
   XX=           -209.3428   YY=           -137.6004   ZZ=           -135.4946
   XY=              3.7635   XZ=            -10.8908   YZ=             -0.5288

 Summary of Natural Population Analysis:

                                       Natural Population
                Natural  -----------------------------------------------
    Atom  No    Charge         Core      Valence    Rydberg      Total
 -----------------------------------------------------------------------
      C    1   -0.18148      0.99965     2.17377    0.00806     3.18148
      N    2   -0.33856      0.99976     2.82698    0.01182     3.83856
      C    3   -0.08804      0.99955     2.07414    0.01436     3.08804
      C    4   -0.11518      0.99948     2.10081    0.01489     3.11518
      C    5   -0.19611      0.99957     2.18672    0.00982     3.19611
      C    6   -0.19585      0.99955     2.18560    0.01070     3.19585
      S    7    0.11676      4.99949     2.86502    0.01873     7.88324
      C    8   -0.11202      0.99938     2.09841    0.01422     3.11202
      C    9   -0.09565      0.99949     2.08560    0.01056     3.09565
      C   10   -0.11606      0.99952     2.10764    0.00890     3.11606
      C   11    0.16949      0.99939     1.81704    0.01409     2.83051
      C   12   -0.14083      0.99951     2.13201    0.00931     3.14083
      C   13   -0.09578      0.99950     2.08390    0.01239     3.09578
      O   14   -0.26986      0.99986     3.25967    0.01033     4.26986
      C   15   -0.10110      0.99960     2.09239    0.00911     3.10110
      H   16    0.08871      0.00000     0.41024    0.00105     0.41129
      H   17    0.08534      0.00000     0.41273    0.00193     0.41466
      H   18    0.09658      0.00000     0.40239    0.00104     0.40342
      H   19    0.17675      0.00000     0.31936    0.00389     0.32325
      H   20    0.09780      0.00000     0.40115    0.00105     0.40220
      H   21    0.09241      0.00000     0.40623    0.00136     0.40759
      H   22    0.10601      0.00000     0.39313    0.00086     0.39399
      H   23    0.10387      0.00000     0.39506    0.00107     0.39613
      H   24    0.10707      0.00000     0.39144    0.00148     0.39293
      H   25    0.10561      0.00000     0.39325    0.00114     0.39439
      H   26    0.10326      0.00000     0.39530    0.00144     0.39674
      H   27    0.10689      0.00000     0.39168    0.00144     0.39311
      H   28    0.11239      0.00000     0.38574    0.00187     0.38761
      H   29    0.10593      0.00000     0.39287    0.00120     0.39407
      H   30    0.08724      0.00000     0.41019    0.00257     0.41276
      H   31    0.08780      0.00000     0.40911    0.00309     0.41220
      H   32    0.09663      0.00000     0.40126    0.00212     0.40337
 =======================================================================
   * Total *    0.00000     18.99328    40.80082    0.20590    60.00000

 Normal termination of Gaussian 16 at Thu Dec 10 18:34:26 2020.
