 Gaussian 16, Revision A.03,

 -----------------------------------------------------------
 # opt freq B3LYP/6-31G(d) empiricaldispersion=gd3bj scf=xqc
 -----------------------------------------------------------

 ------------------------------
 CID_54240216_JID_1903_neutraal
 ------------------------------
 Symbolic Z-matrix:
 Charge =  0 Multiplicity = 1

 SCF Done:  E(RB3LYP) =  -551.362642463     A.U. after   14 cycles
 SCF Done:  E(RB3LYP) =  -551.373501902     A.U. after   13 cycles
 SCF Done:  E(RB3LYP) =  -551.374632946     A.U. after   12 cycles
 SCF Done:  E(RB3LYP) =  -551.374831640     A.U. after   12 cycles
 SCF Done:  E(RB3LYP) =  -551.374642331     A.U. after   13 cycles
 SCF Done:  E(RB3LYP) =  -551.375180520     A.U. after   13 cycles
 SCF Done:  E(RB3LYP) =  -551.375669935     A.U. after   15 cycles
 SCF Done:  E(RB3LYP) =  -551.375716009     A.U. after   15 cycles
 SCF Done:  E(RB3LYP) =  -551.375058959     A.U. after   15 cycles
 SCF Done:  E(RB3LYP) =  -551.375779783     A.U. after   15 cycles
 SCF Done:  E(RB3LYP) =  -551.376334214     A.U. after   12 cycles
 SCF Done:  E(RB3LYP) =  -551.376276852     A.U. after   12 cycles
 SCF Done:  E(RB3LYP) =  -551.376432830     A.U. after   12 cycles
 SCF Done:  E(RB3LYP) =  -551.376444357     A.U. after   10 cycles
 SCF Done:  E(RB3LYP) =  -551.376447428     A.U. after   10 cycles
 Optimization completed.
    -- Stationary point found.
 Normal termination of Gaussian 16 at Tue Dec  8 21:30:38 2020.

 --------------------------------------------------------------------
 #N Geom=AllCheck Guess=TCheck SCRF=Check GenChk RB3LYP/6-31G(d) Freq
 --------------------------------------------------------------------

 Structure from the checkpoint file:  "JID_1903.chk"
 ------------------------------
 CID_54240216_JID_1903_neutraal
 ------------------------------
 Charge =  0 Multiplicity = 1

 SCF Done:  E(RB3LYP) =  -551.376447428     A.U. after    1 cycles

  Exact polarizability:  81.691   3.622  86.771   5.753  -0.410  65.186
 Approx polarizability: 121.506  10.324 134.750  14.439   3.009 106.077

                      1                      2                      3
                      A                      A                      A
 Frequencies --     43.0719                78.7805               124.5041
 Red. masses --     10.7465                 5.2592                 4.5169
 Frc consts  --      0.0117                 0.0192                 0.0413
 IR Inten    --      1.0270                 1.8197                 1.5485

                      4                      5                      6
                      A                      A                      A
 Frequencies --    205.2570               251.7327               329.2854
 Red. masses --      5.4111                 3.3107                 3.0529
 Frc consts  --      0.1343                 0.1236                 0.1950
 IR Inten    --      1.5030                 1.8562                 4.0555

                      7                      8                      9
                      A                      A                      A
 Frequencies --    371.9327               427.8694               441.1566
 Red. masses --      4.7358                 6.1548                 3.0226
 Frc consts  --      0.3860                 0.6639                 0.3466
 IR Inten    --      4.7521                 6.4779                 0.5673

                     10                     11                     12
                      A                      A                      A
 Frequencies --    512.4848               552.7577               621.8583
 Red. masses --      3.2263                 2.3334                 1.3447
 Frc consts  --      0.4992                 0.4201                 0.3064
 IR Inten    --     10.6250                34.0461                72.0758

                     13                     14                     15
                      A                      A                      A
 Frequencies --    656.2706               667.7124               723.1581
 Red. masses --      4.4197                 3.3707                 1.5752
 Frc consts  --      1.1215                 0.8854                 0.4853
 IR Inten    --      4.3168                31.4625                70.1193

                     16                     17                     18
                      A                      A                      A
 Frequencies --    763.5910               772.8817               834.6503
 Red. masses --      5.1279                 3.8044                 3.1877
 Frc consts  --      1.7616                 1.3389                 1.3084
 IR Inten    --     18.5756                32.1661                 4.9108

                     19                     20                     21
                      A                      A                      A
 Frequencies --    881.0549               906.1978               921.6748
 Red. masses --      2.6446                 4.3218                 1.4157
 Frc consts  --      1.2095                 2.0910                 0.7086
 IR Inten    --     13.5259                 4.6807                 5.6722

                     22                     23                     24
                      A                      A                      A
 Frequencies --    940.1368               964.9690              1048.4028
 Red. masses --      1.8509                 2.3570                 4.5023
 Frc consts  --      0.9639                 1.2931                 2.9157
 IR Inten    --      1.3172                15.4857                 8.0194

                     25                     26                     27
                      A                      A                      A
 Frequencies --   1063.5188              1082.3663              1115.7565
 Red. masses --      4.1105                 2.0556                 1.9964
 Frc consts  --      2.7393                 1.4188                 1.4644
 IR Inten    --     14.5470                18.1913                38.6350

                     28                     29                     30
                      A                      A                      A
 Frequencies --   1162.4638              1183.4540              1200.7765
 Red. masses --      1.4083                 1.7321                 2.1434
 Frc consts  --      1.1213                 1.4293                 1.8208
 IR Inten    --     23.2026               173.8749                96.4280

                     31                     32                     33
                      A                      A                      A
 Frequencies --   1228.6810              1238.0623              1290.9206
 Red. masses --      2.6399                 1.9255                 1.8133
 Frc consts  --      2.3481                 1.7389                 1.7804
 IR Inten    --    123.5863                30.6114                 5.8263

                     34                     35                     36
                      A                      A                      A
 Frequencies --   1331.3225              1358.0531              1401.2921
 Red. masses --      1.5864                 1.6472                 3.1109
 Frc consts  --      1.6566                 1.7899                 3.5991
 IR Inten    --     17.9105                11.1627                36.9463

                     37                     38                     39
                      A                      A                      A
 Frequencies --   1474.0569              1517.4638              1685.1098
 Red. masses --      1.1133                 1.0954                 5.8600
 Frc consts  --      1.4253                 1.4861                 9.8041
 IR Inten    --      9.9908                 5.4486                31.2698

                     40                     41                     42
                      A                      A                      A
 Frequencies --   1845.5382              1907.9135              3041.7798
 Red. masses --     10.3541                12.9211                 1.0703
 Frc consts  --     20.7782                27.7119                 5.8347
 IR Inten    --    251.9352               475.5807                29.2011

                     43                     44                     45
                      A                      A                      A
 Frequencies --   3108.1098              3108.9676              3170.0172
 Red. masses --      1.0890                 1.0641                 1.1069
 Frc consts  --      6.1981                 6.0597                 6.5534
 IR Inten    --      5.8268                 9.7251                 0.5594

                     46                     47                     48
                      A                      A                      A
 Frequencies --   3238.0091              3268.2256              3685.9136
 Red. masses --      1.0887                 1.1033                 1.0641
 Frc consts  --      6.7253                 6.9432                 8.5176
 IR Inten    --      1.2524                 8.5742                58.0052

 - Thermochemistry -
 -------------------
 Temperature   298.150 Kelvin.  Pressure   1.00000 Atm.
 Atom     1 has atomic number  6 and mass  12.00000

 Molecular mass:   153.04259 amu.
 Principal axes and moments of inertia in atomic units:
                           1         2         3
     Eigenvalues --  1075.546511592.800642157.95561
           X            0.99994  -0.00991  -0.00531
           Y            0.00988   0.99994  -0.00522
           Z            0.00537   0.00516   0.99997
 This molecule is an asymmetric top.
 Rotational symmetry number  1.
 Warning -- assumption of classical behavior for rotation
           may cause significant error
 Rotational temperatures (Kelvin)      0.08053     0.05438     0.04014
 Rotational constants (GHZ):           1.67798     1.13306     0.83632
 Zero-point vibrational energy     357379.4 (Joules/Mol)
                                   85.41572 (Kcal/Mol)
 Warning -- explicit consideration of  11 degrees of freedom as
           vibrations may cause significant error
 Vibrational temperatures:     61.97   113.35   179.13   295.32   362.19
          (Kelvin)            473.77   535.13   615.61   634.73   737.35
                              795.29   894.72   944.23   960.69  1040.46
                             1098.64  1112.00  1200.88  1267.64  1303.82
                             1326.08  1352.65  1388.38  1508.42  1530.17
                             1557.28  1605.32  1672.53  1702.73  1727.65
                             1767.80  1781.30  1857.35  1915.48  1953.94
                             2016.15  2120.84  2183.29  2424.50  2655.32
                             2745.06  4376.44  4471.88  4473.11  4560.95
                             4658.77  4702.25  5303.21

 Zero-point correction=                           0.136119 (Hartree/Particle)
 Thermal correction to Energy=                    0.145231
 Thermal correction to Enthalpy=                  0.146175
 Thermal correction to Gibbs Free Energy=         0.101020
 Sum of electronic and zero-point Energies=           -551.240329
 Sum of electronic and thermal Energies=              -551.231216
 Sum of electronic and thermal Enthalpies=            -551.230272
 Sum of electronic and thermal Free Energies=         -551.275427

                     E (Thermal)             CV                S
                      KCal/Mol        Cal/Mol-Kelvin    Cal/Mol-Kelvin
 Total                   91.134             34.620             95.037
 Electronic               0.000              0.000              0.000
 Translational            0.889              2.981             40.986
 Rotational               0.889              2.981             29.693
 Vibrational             89.356             28.659             24.358
 Vibration     1          0.595              1.980              5.113
 Vibration     2          0.600              1.963              3.921
 Vibration     3          0.610              1.928              3.029
 Vibration     4          0.640              1.832              2.085
 Vibration     5          0.664              1.760              1.718
 Vibration     6          0.712              1.617              1.264
 Vibration     7          0.744              1.530              1.072
 Vibration     8          0.789              1.410              0.866
 Vibration     9          0.801              1.380              0.823
 Vibration    10          0.868              1.222              0.628
 Vibration    11          0.908              1.134              0.538

                           ! Non-Optimized Parameters !
 Normal termination of Gaussian 16 at Tue Dec  8 21:34:10 2020.

 ----------------------------------------------------------------------
 # B3LYP/6-311++G(d,p) empiricaldispersion=gd3bj scf=xqc pop=npa geom=c
 heck
 ----------------------------------------------------------------------

 --------------------------------------
 CID_54240216_JID_1903_Energie_neutraal
 --------------------------------------
 Structure from the checkpoint file:  "JID_1903.chk"
 Charge =  0 Multiplicity = 1

 SCF Done:  E(RB3LYP) =  -551.543349463     A.U. after   15 cycles
 Normal termination of Gaussian 16 at Tue Dec  8 21:35:33 2020.

 ----------------------------------------------------------------------
 # B3LYP/6-311++G(d,p) empiricaldispersion=gd3bj scf=xqc pop=npa geom=c
 heck
 ----------------------------------------------------------------------

 ------------------------------------
 CID_54240216_JID_1903_Energie_kation
 ------------------------------------
 Structure from the checkpoint file:  "JID_1903.chk"
 Charge =  1 Multiplicity = 2

 SCF Done:  E(UB3LYP) =  -551.227297039     A.U. after   21 cycles
 Normal termination of Gaussian 16 at Tue Dec  8 21:40:15 2020.
 Gaussian 16:  ES64L-G16RevA.03 25-Dec-2016

 ----------------------------------------------------------------------
 # B3LYP/6-311++G(d,p) empiricaldispersion=gd3bj scf=xqc pop=npa geom=c
 heck
 ----------------------------------------------------------------------

 -----------------------------------
 CID_54240216_JID_1903_Energie_anion
 -----------------------------------
 Structure from the checkpoint file:  "JID_1903.chk"
 Charge = -1 Multiplicity = 2

                         Standard orientation:
 ---------------------------------------------------------------------
 Center     Atomic      Atomic             Coordinates (Angstroms)
 Number     Number       Type             X           Y           Z
 ---------------------------------------------------------------------
      1          6           0        0.320913    1.294974    1.160428
      2          6           0       -0.521997    2.176567    0.256097
      3          6           0       -1.085096    1.478892   -0.733794
      4          7           0       -0.714767    0.101966   -0.686716
      5          6           0        0.283381   -0.076670    0.428671
      6          6           0       -0.567576   -1.249459    0.973466
      7          6           0       -1.573969   -0.898145   -0.135163
      8          8           0       -2.686262   -1.227804   -0.441221
      9          6           0        1.627125   -0.509977   -0.135077
     10          8           0        2.092741   -1.624426   -0.057562
     11          8           0        2.251393    0.506067   -0.771009
     12          1           0       -0.098396    1.233043    2.173918
     13          1           0        1.346481    1.662442    1.257899
     14          1           0       -0.646139    3.241148    0.414229
     15          1           0       -1.759562    1.817989   -1.509033
     16          1           0       -0.097477   -2.231979    0.902266
     17          1           0       -0.977425   -1.098873    1.975209
     18          1           0        3.076217    0.134675   -1.136908
 ---------------------------------------------------------------------

 SCF Done:  E(UB3LYP) =  -551.531691947     A.U. after   33 cycles
 SCF Done:  E(UB3LYP) =  -551.531691947     a.u. after    1 cycles

 The electronic state is 2-A.
 Alpha  occ. eigenvalues --  -19.06630 -19.02579 -19.01902 -14.24713 -10.20713
 Alpha  occ. eigenvalues --  -10.19227 -10.13823 -10.10921 -10.09439 -10.08470
 Alpha  occ. eigenvalues --  -10.07763  -1.01123  -0.96993  -0.92339  -0.88514
 Alpha  occ. eigenvalues --   -0.71342  -0.68425  -0.60665  -0.56413  -0.50482
 Alpha  occ. eigenvalues --   -0.48405  -0.44401  -0.41575  -0.39529  -0.38672
 Alpha  occ. eigenvalues --   -0.37763  -0.35195  -0.34809  -0.33737  -0.31976
 Alpha  occ. eigenvalues --   -0.30358  -0.29207  -0.28217  -0.27438  -0.26323
 Alpha  occ. eigenvalues --   -0.22907  -0.21579  -0.18981  -0.18793  -0.12965
 Alpha  occ. eigenvalues --    0.04658
 Alpha virt. eigenvalues --    0.06735   0.07636   0.07748   0.08412   0.08966
 Alpha virt. eigenvalues --    0.10543   0.10659   0.11294   0.12413   0.13241
 Alpha virt. eigenvalues --    0.14563   0.14844   0.16133   0.16445   0.17621

  Beta  occ. eigenvalues --  -19.06553 -19.02577 -19.01863 -14.24710 -10.20686
  Beta  occ. eigenvalues --  -10.19221 -10.13813 -10.10913 -10.09422 -10.08417
  Beta  occ. eigenvalues --  -10.07732  -1.01015  -0.96985  -0.92238  -0.88495
  Beta  occ. eigenvalues --   -0.71301  -0.68367  -0.60582  -0.56317  -0.50403
  Beta  occ. eigenvalues --   -0.48294  -0.44326  -0.41537  -0.39484  -0.38623
  Beta  occ. eigenvalues --   -0.37708  -0.35115  -0.34748  -0.33670  -0.31919
  Beta  occ. eigenvalues --   -0.30318  -0.29134  -0.28165  -0.27387  -0.26282
  Beta  occ. eigenvalues --   -0.22769  -0.21544  -0.18906  -0.18776  -0.12924
  Beta virt. eigenvalues --    0.07358   0.07561   0.08046   0.08712   0.09068
  Beta virt. eigenvalues --    0.09691   0.11043   0.11301   0.11858   0.12867
  Beta virt. eigenvalues --    0.13222   0.14507   0.15251   0.16292   0.16712

 Mulliken charges and spin densities:
               1          2
     1  C    3.274041  -3.970871
     2  C   -0.703760   0.840220
     3  C    0.552746  -0.839486
     4  N    0.377079  -0.120585
     5  C   -2.090915   2.416893
     6  C    0.620241  -1.091718
     7  C    0.250310  -0.027760
     8  O   -0.351662   0.016225
     9  C    0.059411  -0.275077
    10  O   -0.257603  -0.030915
    11  O   -0.216147   0.084354
    12  H   -0.667508   0.845470
    13  H   -0.312988   0.522618
    14  H   -0.898919   1.099855
    15  H   -0.139658   0.315463
    16  H    0.251408  -0.029771
    17  H   -0.191182   0.382291
    18  H   -0.554891   0.862794
 Sum of Mulliken charges =  -1.00000   1.00000

 Dipole moment (field-independent basis, Debye):
    X=             -2.9328    Y=             -3.7208    Z=             -0.9762  Tot=              4.8372
 Quadrupole moment (field-independent basis, Debye-Ang):
   XX=           -115.9107   YY=           -105.1093   ZZ=            -96.4348
   XY=             -2.9265   XZ=              4.9414   YZ=             -7.7522

 Summary of Natural Population Analysis:

                                       Natural Population
                Natural  -----------------------------------------------
    Atom  No    Charge         Core      Valence    Rydberg      Total
 -----------------------------------------------------------------------
      C    1   -0.20839      0.99959     2.19778    0.01102     3.20839
      C    2   -0.09356      0.99953     2.08398    0.01005     3.09356
      C    3   -0.00565      0.99947     1.99349    0.01268     3.00565
      N    4   -0.26582      0.99965     2.75501    0.01116     3.76582
      C    5    0.02823      0.99956     1.95460    0.01762     2.97177
      C    6   -0.23593      0.99955     2.22829    0.00808     3.23593
      C    7    0.36698      0.99968     1.60849    0.02485     2.63302
      O    8   -0.28761      0.99986     3.28165    0.00610     4.28761
      C    9    0.41356      0.99961     1.56110    0.02574     2.58644
      O   10   -0.30265      0.99987     3.29649    0.00629     4.30265
      O   11   -0.33724      0.99988     3.33018    0.00718     4.33724
      H   12    0.10952      0.00000     0.38740    0.00308     0.39048
      H   13    0.11836      0.00000     0.37751    0.00412     0.38164
      H   14    0.10873      0.00000     0.38899    0.00228     0.39127
      H   15    0.10512      0.00000     0.39366    0.00122     0.39488
      H   16    0.12362      0.00000     0.37530    0.00108     0.37638
      H   17    0.11581      0.00000     0.38280    0.00139     0.38419
      H   18    0.24693      0.00000     0.23049    0.02258     0.25307
 =======================================================================
   * Total *    0.00000     10.99625    28.82721    0.17654    40.00000

 Normal termination of Gaussian 16 at Tue Dec  8 21:46:04 2020.
