 Gaussian 16, Revision A.03,

 -----------------------------------------------------------
 # opt freq B3LYP/6-31G(d) empiricaldispersion=gd3bj scf=xqc
 -----------------------------------------------------------

 -------------------------------
 CID_115254331_JID_7059_neutraal
 -------------------------------
 Symbolic Z-matrix:
 Charge =  0 Multiplicity = 1

 SCF Done:  E(RB3LYP) =  -694.404615372     A.U. after   15 cycles
 SCF Done:  E(RB3LYP) =  -694.411288965     A.U. after   13 cycles
 SCF Done:  E(RB3LYP) =  -694.412155813     A.U. after   13 cycles
 SCF Done:  E(RB3LYP) =  -694.413363875     A.U. after   12 cycles
 SCF Done:  E(RB3LYP) =  -694.413559691     A.U. after   12 cycles
 SCF Done:  E(RB3LYP) =  -694.413587387     A.U. after   12 cycles
 SCF Done:  E(RB3LYP) =  -694.413705685     A.U. after   10 cycles
 SCF Done:  E(RB3LYP) =  -694.413787987     A.U. after   12 cycles
 SCF Done:  E(RB3LYP) =  -694.413532956     A.U. after   15 cycles
 SCF Done:  E(RB3LYP) =  -694.413939183     A.U. after   15 cycles
 SCF Done:  E(RB3LYP) =  -694.414203932     A.U. after    9 cycles
 SCF Done:  E(RB3LYP) =  -694.414205310     A.U. after   10 cycles
 SCF Done:  E(RB3LYP) =  -694.414205818     A.U. after    9 cycles
 SCF Done:  E(RB3LYP) =  -694.414205823     A.U. after    7 cycles
 SCF Done:  E(RB3LYP) =  -694.414205809     A.U. after    7 cycles
 Optimization completed.
    -- Stationary point found.
 Normal termination of Gaussian 16 at Sun Dec 13 20:38:56 2020.

 --------------------------------------------------------------------
 #N Geom=AllCheck Guess=TCheck SCRF=Check GenChk RB3LYP/6-31G(d) Freq
 --------------------------------------------------------------------

 Structure from the checkpoint file:  "JID_7059.chk"
 -------------------------------
 CID_115254331_JID_7059_neutraal
 -------------------------------
 Charge =  0 Multiplicity = 1

 SCF Done:  E(RB3LYP) =  -694.414205809     A.U. after    1 cycles

  Exact polarizability: 183.683 -21.184 152.009  19.138  10.213 152.322
 Approx polarizability: 247.064 -42.417 234.888  42.467  18.451 248.251

                      1                      2                      3
                      A                      A                      A
 Frequencies --     17.0869                29.6567                36.3809
 Red. masses --      4.8002                 1.1612                 2.6278
 Frc consts  --      0.0008                 0.0006                 0.0020
 IR Inten    --      1.4240                 0.3755                 0.0291

                      4                      5                      6
                      A                      A                      A
 Frequencies --     43.6384                53.8538               109.9083
 Red. masses --      4.1265                 2.8409                 3.4870
 Frc consts  --      0.0046                 0.0049                 0.0248
 IR Inten    --      0.5874                 0.5192                 0.6761

                      7                      8                      9
                      A                      A                      A
 Frequencies --    137.0063               151.2056               170.7540
 Red. masses --      3.4430                 4.7643                 3.2669
 Frc consts  --      0.0381                 0.0642                 0.0561
 IR Inten    --      4.1316                 1.6430                 1.8754

                     10                     11                     12
                      A                      A                      A
 Frequencies --    194.9792               207.0279               216.8242
 Red. masses --      2.4422                 1.6897                 1.7750
 Frc consts  --      0.0547                 0.0427                 0.0492
 IR Inten    --      2.4023                 0.6236                 1.8598

                     13                     14                     15
                      A                      A                      A
 Frequencies --    227.6612               247.0900               266.1835
 Red. masses --      1.0579                 1.7724                 1.6722
 Frc consts  --      0.0323                 0.0638                 0.0698
 IR Inten    --      0.5400                 2.7067                 1.3255

                     16                     17                     18
                      A                      A                      A
 Frequencies --    282.6956               294.8444               328.2077
 Red. masses --      1.1071                 2.8105                 3.0871
 Frc consts  --      0.0521                 0.1440                 0.1959
 IR Inten    --      0.3329                 0.6867                 0.1025

                     19                     20                     21
                      A                      A                      A
 Frequencies --    364.7905               366.1692               381.6753
 Red. masses --      2.9264                 3.1376                 2.6297
 Frc consts  --      0.2294                 0.2479                 0.2257
 IR Inten    --      1.7215                 0.2749                 0.6655

                     22                     23                     24
                      A                      A                      A
 Frequencies --    390.6100               436.0702               454.7656
 Red. masses --      2.4644                 2.7375                 2.7805
 Frc consts  --      0.2215                 0.3067                 0.3388
 IR Inten    --      0.8122                 0.7880                 6.1829

                     25                     26                     27
                      A                      A                      A
 Frequencies --    466.0436               492.2127               518.8437
 Red. masses --      4.5978                 3.2270                 3.8586
 Frc consts  --      0.5884                 0.4606                 0.6120
 IR Inten    --      2.0090                 2.8690                 4.9916

                     28                     29                     30
                      A                      A                      A
 Frequencies --    537.7496               571.0278               597.4428
 Red. masses --      4.8514                 3.7343                 3.5800
 Frc consts  --      0.8266                 0.7174                 0.7529
 IR Inten    --      2.2974                 0.0829                 1.6567

                     31                     32                     33
                      A                      A                      A
 Frequencies --    621.9433               722.6807               747.2898
 Red. masses --      3.5496                 5.1737                 3.4173
 Frc consts  --      0.8090                 1.5920                 1.1244
 IR Inten    --      2.6902                 0.8477                 1.0335

                     34                     35                     36
                      A                      A                      A
 Frequencies --    771.0993               824.9994               848.3635
 Red. masses --      3.9639                 1.2944                 2.6845
 Frc consts  --      1.3886                 0.5191                 1.1384
 IR Inten    --      2.3277                14.6845                 9.0326

                     37                     38                     39
                      A                      A                      A
 Frequencies --    864.3242               886.1262               911.4531
 Red. masses --      2.4340                 1.4935                 3.8457
 Frc consts  --      1.0713                 0.6909                 1.8823
 IR Inten    --      0.9359                 9.2492                 2.4143

                     40                     41                     42
                      A                      A                      A
 Frequencies --    941.9104               950.1105               951.1337
 Red. masses --      1.6164                 1.3027                 1.3410
 Frc consts  --      0.8449                 0.6929                 0.7148
 IR Inten    --      4.6098                 0.0186                 0.1306

                     43                     44                     45
                      A                      A                      A
 Frequencies --    975.3063               993.5895              1014.9902
 Red. masses --      1.4796                 2.0598                 3.5830
 Frc consts  --      0.8293                 1.1981                 2.1748
 IR Inten    --      1.1308                14.1294                 7.2589

                     46                     47                     48
                      A                      A                      A
 Frequencies --   1027.6615              1044.1295              1066.6867
 Red. masses --      1.9032                 1.4314                 1.9947
 Frc consts  --      1.1842                 0.9194                 1.3372
 IR Inten    --     26.6841                 5.3891                11.4410

                     49                     50                     51
                      A                      A                      A
 Frequencies --   1073.4843              1078.2873              1125.7608
 Red. masses --      1.5034                 1.5149                 2.4531
 Frc consts  --      1.0207                 1.0378                 1.8317
 IR Inten    --      2.6390                19.2465                24.2676

                     52                     53                     54
                      A                      A                      A
 Frequencies --   1146.7269              1157.8656              1166.3922
 Red. masses --      1.9659                 1.9153                 1.4286
 Frc consts  --      1.5231                 1.5129                 1.1451
 IR Inten    --     13.0083                 4.7836                11.1638

                     55                     56                     57
                      A                      A                      A
 Frequencies --   1180.1403              1194.8861              1206.6308
 Red. masses --      1.4477                 1.9316                 1.8237
 Frc consts  --      1.1879                 1.6248                 1.5644
 IR Inten    --      4.9684                 6.2535                 9.0363

                     58                     59                     60
                      A                      A                      A
 Frequencies --   1236.4333              1249.4147              1277.9321
 Red. masses --      2.4867                 2.1505                 1.7375
 Frc consts  --      2.2399                 1.9779                 1.6718
 IR Inten    --     10.3787                 8.7420                15.4902

                     61                     62                     63
                      A                      A                      A
 Frequencies --   1287.3484              1331.2591              1338.6027
 Red. masses --      1.5893                 1.4708                 1.5903
 Frc consts  --      1.5518                 1.5358                 1.6789
 IR Inten    --     14.0756                 3.3649                 1.1345

                     64                     65                     66
                      A                      A                      A
 Frequencies --   1352.6066              1370.0540              1379.6900
 Red. masses --      6.1396                 1.4655                 1.3661
 Frc consts  --      6.6181                 1.6207                 1.5321
 IR Inten    --      0.5504                 2.4038                30.9491

                     67                     68                     69
                      A                      A                      A
 Frequencies --   1400.8826              1409.2164              1434.1507
 Red. masses --      1.5304                 1.2370                 1.2855
 Frc consts  --      1.7695                 1.4474                 1.5578
 IR Inten    --     13.5964                11.8844                 1.4631

                     70                     71                     72
                      A                      A                      A
 Frequencies --   1436.2291              1442.1934              1454.4001
 Red. masses --      1.2455                 1.2484                 1.2254
 Frc consts  --      1.5137                 1.5298                 1.5272
 IR Inten    --      2.4902                 0.0820                 7.5887

                     73                     74                     75
                      A                      A                      A
 Frequencies --   1458.7354              1483.1685              1508.1525
 Red. masses --      2.5357                 1.1822                 1.0813
 Frc consts  --      3.1791                 1.5322                 1.4491
 IR Inten    --     14.8175                 2.4643                 2.6843

                     76                     77                     78
                      A                      A                      A
 Frequencies --   1517.5106              1517.6865              1517.8863
 Red. masses --      1.0529                 1.0492                 1.0528
 Frc consts  --      1.4286                 1.4239                 1.4292
 IR Inten    --      9.5284                 3.6146                 2.3264

                     79                     80                     81
                      A                      A                      A
 Frequencies --   1520.7886              1523.1712              1528.1341
 Red. masses --      1.0624                 1.0839                 1.0765
 Frc consts  --      1.4477                 1.4816                 1.4811
 IR Inten    --     16.5867                 4.2670                 7.7783

                     82                     83                     84
                      A                      A                      A
 Frequencies --   1535.6505              1537.5105              1543.3581
 Red. masses --      1.0710                 1.0777                 1.0515
 Frc consts  --      1.4880                 1.5010                 1.4756
 IR Inten    --      4.0127                11.2893                28.3368

                     85                     86                     87
                      A                      A                      A
 Frequencies --   1546.0992              1560.7739              1634.3440
 Red. masses --      1.0707                 2.7475                 5.4746
 Frc consts  --      1.5079                 3.9434                 8.6157
 IR Inten    --      5.7506                38.9070                15.3331

                     88                     89                     90
                      A                      A                      A
 Frequencies --   1673.0528              2358.2922              2959.9138
 Red. masses --      5.9473                12.6381                 1.0609
 Frc consts  --      9.8082                41.4122                 5.4764
 IR Inten    --     20.7143                 7.7873                66.5202

                     91                     92                     93
                      A                      A                      A
 Frequencies --   3025.0198              3034.2805              3039.4225
 Red. masses --      1.0824                 1.0447                 1.0409
 Frc consts  --      5.8356                 5.6672                 5.6657
 IR Inten    --      6.9953                32.1857                36.7506

                     94                     95                     96
                      A                      A                      A
 Frequencies --   3045.2854              3046.4119              3052.9437
 Red. masses --      1.0731                 1.0399                 1.0466
 Frc consts  --      5.8631                 5.6861                 5.7471
 IR Inten    --      2.4643                16.8493                35.2361

                     97                     98                     99
                      A                      A                      A
 Frequencies --   3079.8809              3093.7886              3095.8360
 Red. masses --      1.0746                 1.0632                 1.0895
 Frc consts  --      6.0058                 5.9960                 6.1521
 IR Inten    --     34.8009                33.4408                25.4433

                    100                    101                    102
                      A                      A                      A
 Frequencies --   3096.8497              3110.0221              3117.0558
 Red. masses --      1.0951                 1.1001                 1.0981
 Frc consts  --      6.1878                 6.2694                 6.2859
 IR Inten    --     24.0087                 5.4307                67.2170

                    103                    104                    105
                      A                      A                      A
 Frequencies --   3123.6767              3126.6432              3130.9284
 Red. masses --      1.1026                 1.1008                 1.1029
 Frc consts  --      6.3387                 6.3405                 6.3697
 IR Inten    --     17.0353                36.6722                13.5481

                    106                    107                    108
                      A                      A                      A
 Frequencies --   3141.7772              3143.2252              3144.2698
 Red. masses --      1.1020                 1.1007                 1.1027
 Frc consts  --      6.4088                 6.4072                 6.4231
 IR Inten    --     19.8755                10.8437                20.1733

                    109                    110                    111
                      A                      A                      A
 Frequencies --   3174.2212              3192.0542              3195.3269
 Red. masses --      1.0868                 1.0931                 1.0901
 Frc consts  --      6.4516                 6.5622                 6.5577
 IR Inten    --     12.6370                38.7834                 3.6989

 - Thermochemistry -
 -------------------
 Temperature   298.150 Kelvin.  Pressure   1.00000 Atm.
 Atom     1 has atomic number  6 and mass  12.00000

 Molecular mass:   230.17830 amu.
 Principal axes and moments of inertia in atomic units:
                           1         2         3
     Eigenvalues --  2587.105115911.387476134.15690
           X            0.99996  -0.00696   0.00543
           Y            0.00580   0.98156   0.19107
           Z           -0.00666  -0.19103   0.98156
 This molecule is an asymmetric top.
 Rotational symmetry number  1.
 Warning -- assumption of classical behavior for rotation
           may cause significant error
 Rotational temperatures (Kelvin)      0.03348     0.01465     0.01412
 Rotational constants (GHZ):           0.69759     0.30530     0.29421
 Zero-point vibrational energy     900907.3 (Joules/Mol)
                                  215.32201 (Kcal/Mol)
 Warning -- explicit consideration of  30 degrees of freedom as
           vibrations may cause significant error
 Vibrational temperatures:     24.58    42.67    52.34    62.79    77.48
          (Kelvin)            158.13   197.12   217.55   245.68   280.53
                              297.87   311.96   327.55   355.51   382.98
                              406.74   424.22   472.22   524.85   526.84
                              549.15   562.00   627.41   654.31   670.53
                              708.18   746.50   773.70   821.58   859.59
                              894.84  1039.78  1075.18  1109.44  1186.99
                             1220.61  1243.57  1274.94  1311.38  1355.20
                             1367.00  1368.47  1403.25  1429.55  1460.34
                             1478.58  1502.27  1534.72  1544.50  1551.41
                             1619.72  1649.88  1665.91  1678.18  1697.96
                             1719.17  1736.07  1778.95  1797.63  1838.66
                             1852.21  1915.38  1925.95  1946.10  1971.20
                             1985.07  2015.56  2027.55  2063.42  2066.41
                             2074.99  2092.56  2098.79  2133.95  2169.90
                             2183.36  2183.61  2183.90  2188.08  2191.50
                             2198.64  2209.46  2212.13  2220.55  2224.49
                             2245.61  2351.46  2407.15  3393.06  4258.66
                             4352.33  4365.65  4373.05  4381.49  4383.11
                             4392.50  4431.26  4451.27  4454.22  4455.68
                             4474.63  4484.75  4494.27  4498.54  4504.71
                             4520.32  4522.40  4523.90  4567.00  4592.65
                             4597.36

 Zero-point correction=                           0.343137 (Hartree/Particle)
 Thermal correction to Energy=                    0.361880
 Thermal correction to Enthalpy=                  0.362824
 Thermal correction to Gibbs Free Energy=         0.294748
 Sum of electronic and zero-point Energies=           -694.071068
 Sum of electronic and thermal Energies=              -694.052326
 Sum of electronic and thermal Enthalpies=            -694.051382
 Sum of electronic and thermal Free Energies=         -694.119458

                     E (Thermal)             CV                S
                      KCal/Mol        Cal/Mol-Kelvin    Cal/Mol-Kelvin
 Total                  227.083             69.767            143.277
 Electronic               0.000              0.000              0.000
 Translational            0.889              2.981             42.203
 Rotational               0.889              2.981             32.906
 Vibrational            225.306             63.806             68.169
 Vibration     1          0.593              1.986              6.947
 Vibration     2          0.593              1.984              5.852
 Vibration     3          0.594              1.982              5.447
 Vibration     4          0.595              1.980              5.087
 Vibration     5          0.596              1.976              4.671
 Vibration     6          0.606              1.941              3.271
 Vibration     7          0.614              1.916              2.845
 Vibration     8          0.619              1.901              2.657
 Vibration     9          0.626              1.878              2.427
 Vibration    10          0.636              1.847              2.180
 Vibration    11          0.641              1.830              2.070
 Vibration    12          0.646              1.815              1.985
 Vibration    13          0.651              1.799              1.897
 Vibration    14          0.661              1.768              1.751
 Vibration    15          0.672              1.735              1.621
 Vibration    16          0.682              1.706              1.517
 Vibration    17          0.689              1.683              1.446
 Vibration    18          0.711              1.619              1.269
 Vibration    19          0.738              1.545              1.102
 Vibration    20          0.739              1.542              1.096
 Vibration    21          0.751              1.509              1.033
 Vibration    22          0.758              1.490              0.998
 Vibration    23          0.797              1.392              0.839
 Vibration    24          0.813              1.350              0.781
 Vibration    25          0.823              1.325              0.749
 Vibration    26          0.848              1.267              0.678
 Vibration    27          0.874              1.208              0.613
 Vibration    28          0.893              1.167              0.570
 Vibration    29          0.927              1.094              0.502
 Vibration    30          0.955              1.037              0.454

 Optimization completed.
    -- Stationary point found.
 Normal termination of Gaussian 16 at Sun Dec 13 20:55:13 2020.

 ----------------------------------------------------------------------
 # B3LYP/6-311++G(d,p) empiricaldispersion=gd3bj scf=xqc pop=npa geom=c
 heck
 ----------------------------------------------------------------------

 ---------------------------------------
 CID_115254331_JID_7059_Energie_neutraal
 ---------------------------------------
 Structure from the checkpoint file:  "JID_7059.chk"
 Charge =  0 Multiplicity = 1

 SCF Done:  E(RB3LYP) =  -694.598099053     A.U. after   16 cycles
 Normal termination of Gaussian 16 at Sun Dec 13 21:04:23 2020.

 ----------------------------------------------------------------------
 # B3LYP/6-311++G(d,p) empiricaldispersion=gd3bj scf=xqc pop=npa geom=c
 heck
 ----------------------------------------------------------------------

 -------------------------------------
 CID_115254331_JID_7059_Energie_kation
 -------------------------------------
 Structure from the checkpoint file:  "JID_7059.chk"
 Charge =  1 Multiplicity = 2

 SCF Done:  E(UB3LYP) =  -694.326410169     A.U. after   23 cycles
 Normal termination of Gaussian 16 at Sun Dec 13 21:23:09 2020.
 Gaussian 16:  ES64L-G16RevA.03 25-Dec-2016

 ----------------------------------------------------------------------
 # B3LYP/6-311++G(d,p) empiricaldispersion=gd3bj scf=xqc pop=npa geom=c
 heck
 ----------------------------------------------------------------------

 ------------------------------------
 CID_115254331_JID_7059_Energie_anion
 ------------------------------------
 Structure from the checkpoint file:  "JID_7059.chk"
 Charge = -1 Multiplicity = 2

                         Standard orientation:
 ---------------------------------------------------------------------
 Center     Atomic      Atomic             Coordinates (Angstroms)
 Number     Number       Type             X           Y           Z
 ---------------------------------------------------------------------
      1          6           0        3.280891   -2.369044   -1.197707
      2          6           0        2.742063   -1.133506   -0.518653
      3          6           0        1.621914   -0.470548   -1.025172
      4          6           0        1.110898    0.688549   -0.425336
      5          6           0        1.749745    1.223400    0.712693
      6          6           0        2.861124    0.545387    1.218551
      7          6           0        3.352368   -0.614320    0.625651
      8          6           0        1.273607    2.491055    1.372412
      9          7           0       -0.044157    1.342329   -0.955168
     10          6           0       -0.297679    1.166361   -2.376949
     11          6           0       -1.253037    1.234998   -0.146958
     12          6           0       -1.766904   -0.220546    0.093766
     13          6           0       -1.042160   -0.808714    1.226747
     14          7           0       -0.503986   -1.250995    2.155808
     15          6           0       -3.306527   -0.278094    0.321286
     16          6           0       -4.050414    0.027125   -0.985933
     17          6           0       -3.759305   -1.634258    0.875892
     18          1           0        2.508989   -2.867849   -1.793024
     19          1           0        4.109564   -2.123519   -1.875305
     20          1           0        3.662326   -3.090210   -0.466967
     21          1           0        1.127881   -0.880396   -1.900815
     22          1           0        3.358289    0.946666    2.098469
     23          1           0        4.219939   -1.113384    1.049801
     24          1           0        0.831735    3.171169    0.637557
     25          1           0        0.515012    2.291028    2.141551
     26          1           0        2.103825    3.002587    1.869660
     27          1           0       -0.701904    0.176197   -2.654695
     28          1           0       -1.021697    1.921200   -2.702478
     29          1           0        0.632223    1.317044   -2.930473
     30          1           0       -1.096808    1.709520    0.824011
     31          1           0       -2.034299    1.804799   -0.656331
     32          1           0       -1.534957   -0.828762   -0.791178
     33          1           0       -3.554590    0.497392    1.060276
     34          1           0       -3.833906   -0.741911   -1.738057
     35          1           0       -5.131969    0.028858   -0.814881
     36          1           0       -3.783835    0.998341   -1.413913
     37          1           0       -3.290521   -1.856838    1.838020
     38          1           0       -4.846087   -1.645353    1.012274
     39          1           0       -3.501717   -2.442981    0.180280
 ---------------------------------------------------------------------

 SCF Done:  E(UB3LYP) =  -694.587339949     A.U. after   33 cycles
 SCF Done:  E(UB3LYP) =  -694.587339949     a.u. after    1 cycles

 The electronic state is 2-A.
 Alpha  occ. eigenvalues --  -14.22891 -14.21136 -10.12063 -10.11793 -10.11411
 Alpha  occ. eigenvalues --  -10.11057 -10.09848 -10.09531 -10.09060 -10.08758
 Alpha  occ. eigenvalues --  -10.08127 -10.07993 -10.07845 -10.07721 -10.07501
 Alpha  occ. eigenvalues --  -10.06855 -10.06477  -0.85383  -0.80976  -0.76414
 Alpha  occ. eigenvalues --   -0.73690  -0.69808  -0.66501  -0.64776  -0.63270
 Alpha  occ. eigenvalues --   -0.60181  -0.59500  -0.57233  -0.54904  -0.50394
 Alpha  occ. eigenvalues --   -0.49390  -0.47317  -0.43377  -0.40985  -0.39850
 Alpha  occ. eigenvalues --   -0.38743  -0.38204  -0.36705  -0.35124  -0.34790
 Alpha  occ. eigenvalues --   -0.33565  -0.32923  -0.32500  -0.31634  -0.31306
 Alpha  occ. eigenvalues --   -0.30797  -0.30658  -0.29456  -0.29113  -0.28859
 Alpha  occ. eigenvalues --   -0.27933  -0.27277  -0.26683  -0.25692  -0.25432
 Alpha  occ. eigenvalues --   -0.25274  -0.24998  -0.24819  -0.23013  -0.22235
 Alpha  occ. eigenvalues --   -0.17744  -0.14986  -0.11822   0.04121
 Alpha virt. eigenvalues --    0.06145   0.06633   0.07064   0.07517   0.07816
 Alpha virt. eigenvalues --    0.08024   0.08172   0.09161   0.09445   0.09545
 Alpha virt. eigenvalues --    0.10423   0.10598   0.10939   0.11624   0.11730

  Beta  occ. eigenvalues --  -14.22888 -14.21127 -10.12051 -10.11777 -10.11409
  Beta  occ. eigenvalues --  -10.11056 -10.09836 -10.09483 -10.09061 -10.08758
  Beta  occ. eigenvalues --  -10.08126 -10.07975 -10.07838 -10.07716 -10.07489
  Beta  occ. eigenvalues --  -10.06834 -10.06423  -0.85370  -0.80960  -0.76406
  Beta  occ. eigenvalues --   -0.73663  -0.69798  -0.66471  -0.64751  -0.63251
  Beta  occ. eigenvalues --   -0.60114  -0.59436  -0.57203  -0.54872  -0.50364
  Beta  occ. eigenvalues --   -0.49313  -0.47290  -0.43345  -0.40959  -0.39826
  Beta  occ. eigenvalues --   -0.38713  -0.38177  -0.36670  -0.35086  -0.34764
  Beta  occ. eigenvalues --   -0.33549  -0.32906  -0.32461  -0.31604  -0.31285
  Beta  occ. eigenvalues --   -0.30752  -0.30627  -0.29420  -0.29076  -0.28832
  Beta  occ. eigenvalues --   -0.27905  -0.27251  -0.26661  -0.25674  -0.25413
  Beta  occ. eigenvalues --   -0.25249  -0.24942  -0.24789  -0.22984  -0.22214
  Beta  occ. eigenvalues --   -0.17731  -0.14979  -0.11807
  Beta virt. eigenvalues --    0.06140   0.06771   0.06936   0.07472   0.07830
  Beta virt. eigenvalues --    0.07880   0.08376   0.08664   0.09508   0.09775
  Beta virt. eigenvalues --    0.09904   0.10709   0.10823   0.11281   0.11859

 Mulliken charges and spin densities:
               1          2
     1  C    0.694737  -1.280941
     2  C    0.247747  -0.235739
     3  C   -0.222899  -0.131575
     4  C    0.240331   0.072297
     5  C    0.112642   0.211839
     6  C   -0.485765   0.156213
     7  C   -0.654212   0.280906
     8  C    0.035008  -0.638249
     9  N    0.153248   0.113906
    10  C    0.914679  -1.137748
    11  C   -1.013486  -0.040330
    12  C    2.447695  -1.347158
    13  C   -0.407142  -0.280227
    14  N   -0.265525   0.029077
    15  C   -2.922397   3.118509
    16  C    1.523179  -2.182147
    17  C    0.311880  -0.921763
    18  H   -0.218507   0.369163
    19  H    0.057475   0.105699
    20  H    0.052756   0.085333
    21  H   -0.110426   0.276631
    22  H    0.098473   0.049411
    23  H    0.024776   0.119443
    24  H    0.022839   0.151801
    25  H    0.132893   0.045807
    26  H    0.093604   0.042831
    27  H   -0.402395   0.550405
    28  H   -0.555357   0.729162
    29  H   -0.070996   0.245738
    30  H    0.052682   0.087222
    31  H    0.058819   0.114252
    32  H    0.411708  -0.217525
    33  H   -0.225845   0.417642
    34  H   -0.255626   0.412235
    35  H   -0.536967   0.706521
    36  H   -0.309990   0.431633
    37  H    0.235497  -0.081985
    38  H   -0.067628   0.214389
    39  H   -0.197505   0.357324
 Sum of Mulliken charges =  -1.00000   1.00000

 Dipole moment (field-independent basis, Debye):
    X=              6.4654    Y=              1.1112    Z=              4.5666  Tot=              7.9931
 Quadrupole moment (field-independent basis, Debye-Ang):
   XX=           -181.6762   YY=           -147.1191   ZZ=           -159.0104
   XY=              3.6028   XZ=             -7.9973   YZ=              6.2107

 Summary of Natural Population Analysis:

                                       Natural Population
                Natural  -----------------------------------------------
    Atom  No    Charge         Core      Valence    Rydberg      Total
 -----------------------------------------------------------------------
      C    1   -0.29238      0.99964     2.28707    0.00567     3.29238
      C    2   -0.01370      0.99952     2.00464    0.00955     3.01370
      C    3   -0.11535      0.99946     2.10692    0.00897     3.11535
      C    4    0.08928      0.99943     1.89833    0.01296     2.91072
      C    5   -0.02635      0.99946     2.01713    0.00976     3.02635
      C    6   -0.08960      0.99952     2.08205    0.00803     3.08960
      C    7   -0.10636      0.99951     2.09813    0.00873     3.10636
      C    8   -0.29550      0.99963     2.29121    0.00465     3.29550
      N    9   -0.27113      0.99969     2.75751    0.01393     3.77113
      C   10   -0.17835      0.99964     2.16976    0.00895     3.17835
      C   11   -0.07175      0.99958     2.05960    0.01257     3.07175
      C   12   -0.17631      0.99948     2.16571    0.01112     3.17631
      C   13    0.16822      0.99965     1.81382    0.01831     2.83178
      N   14   -0.18490      0.99979     2.67426    0.01085     3.68490
      C   15   -0.10264      0.99961     2.09323    0.00980     3.10264
      C   16   -0.28528      0.99964     2.27902    0.00662     3.28528
      C   17   -0.28740      0.99964     2.28171    0.00604     3.28740
      H   18    0.10515      0.00000     0.39394    0.00091     0.39485
      H   19    0.10279      0.00000     0.39636    0.00085     0.39721
      H   20    0.10120      0.00000     0.39802    0.00078     0.39880
      H   21    0.10452      0.00000     0.39341    0.00208     0.39548
      H   22    0.09518      0.00000     0.40366    0.00115     0.40482
      H   23    0.09656      0.00000     0.40260    0.00084     0.40344
      H   24    0.10938      0.00000     0.38937    0.00125     0.39062
      H   25    0.10321      0.00000     0.39568    0.00111     0.39679
      H   26    0.10003      0.00000     0.39919    0.00078     0.39997
      H   27    0.08577      0.00000     0.41179    0.00244     0.41423
      H   28    0.10100      0.00000     0.39739    0.00161     0.39900
      H   29    0.10117      0.00000     0.39766    0.00116     0.39883
      H   30    0.09971      0.00000     0.39848    0.00182     0.40029
      H   31    0.10480      0.00000     0.39362    0.00157     0.39520
      H   32    0.12070      0.00000     0.37547    0.00383     0.37930
      H   33    0.09432      0.00000     0.40372    0.00196     0.40568
      H   34    0.10084      0.00000     0.39713    0.00204     0.39916
      H   35    0.10442      0.00000     0.39391    0.00167     0.39558
      H   36    0.10215      0.00000     0.39582    0.00204     0.39785
      H   37    0.10535      0.00000     0.39381    0.00084     0.39465
      H   38    0.10205      0.00000     0.39716    0.00079     0.39795
      H   39    0.09923      0.00000     0.39965    0.00113     0.40077
 =======================================================================
   * Total *   -0.00000     16.99288    45.80795    0.19918    63.00000

 Normal termination of Gaussian 16 at Sun Dec 13 21:48:13 2020.
