 Gaussian 16, Revision A.03,

 -----------------------------------------------------------
 # opt freq B3LYP/6-31G(d) empiricaldispersion=gd3bj scf=xqc
 -----------------------------------------------------------

 -------------------------------
 CID_116385811_JID_9624_neutraal
 -------------------------------
 Symbolic Z-matrix:
 Charge =  0 Multiplicity = 1

 SCF Done:  E(RB3LYP) =  -1266.80125232     A.U. after   16 cycles
 SCF Done:  E(RB3LYP) =  -1266.80676116     A.U. after   14 cycles
 SCF Done:  E(RB3LYP) =  -1266.80772735     A.U. after   13 cycles
 SCF Done:  E(RB3LYP) =  -1266.80207746     A.U. after   17 cycles
 SCF Done:  E(RB3LYP) =  -1266.80929903     A.U. after   14 cycles
 SCF Done:  E(RB3LYP) =  -1266.81065388     A.U. after   15 cycles
 SCF Done:  E(RB3LYP) =  -1266.81180737     A.U. after   14 cycles
 SCF Done:  E(RB3LYP) =  -1266.81221669     A.U. after   14 cycles
 SCF Done:  E(RB3LYP) =  -1266.81232166     A.U. after   12 cycles
 SCF Done:  E(RB3LYP) =  -1266.81235867     A.U. after   11 cycles
 SCF Done:  E(RB3LYP) =  -1266.81236458     A.U. after   11 cycles
 SCF Done:  E(RB3LYP) =  -1266.81236590     A.U. after    9 cycles
 SCF Done:  E(RB3LYP) =  -1266.81236626     A.U. after    9 cycles
 SCF Done:  E(RB3LYP) =  -1266.81236643     A.U. after    8 cycles
 Optimization completed.
    -- Stationary point found.
 Normal termination of Gaussian 16 at Sun Dec 13 16:11:14 2020.

 --------------------------------------------------------------------
 #N Geom=AllCheck Guess=TCheck SCRF=Check GenChk RB3LYP/6-31G(d) Freq
 --------------------------------------------------------------------

 Structure from the checkpoint file:  "JID_9624.chk"
 -------------------------------
 CID_116385811_JID_9624_neutraal
 -------------------------------
 Charge =  0 Multiplicity = 1

 SCF Done:  E(RB3LYP) =  -1266.81236643     A.U. after    1 cycles

  Exact polarizability: 264.933 -30.313 138.199  -1.827 -16.769 112.600
 Approx polarizability: 386.764 -66.078 258.838   0.670 -52.690 215.300

                      1                      2                      3
                      A                      A                      A
 Frequencies --     22.9288                33.7161                41.3285
 Red. masses --      9.9611                 7.3335                 9.8204
 Frc consts  --      0.0031                 0.0049                 0.0099
 IR Inten    --      0.3932                 0.1900                 1.1546

                      4                      5                      6
                      A                      A                      A
 Frequencies --     63.3070                84.4835               129.6109
 Red. masses --     11.3937                 9.0479                 6.2273
 Frc consts  --      0.0269                 0.0380                 0.0616
 IR Inten    --      0.0787                 0.8479                 0.1589

                      7                      8                      9
                      A                      A                      A
 Frequencies --    157.1405               191.0751               205.5632
 Red. masses --      8.6669                 7.9079                 5.8410
 Frc consts  --      0.1261                 0.1701                 0.1454
 IR Inten    --      6.6279                 3.1937                 4.1358

                     10                     11                     12
                      A                      A                      A
 Frequencies --    277.5638               293.9940               310.9572
 Red. masses --      6.8039                 4.1736                 3.7056
 Frc consts  --      0.3088                 0.2125                 0.2111
 IR Inten    --      0.6324                 3.4734                 0.1805

                     13                     14                     15
                      A                      A                      A
 Frequencies --    354.3164               376.7469               412.3241
 Red. masses --      8.1840                 4.8390                 4.5658
 Frc consts  --      0.6053                 0.4047                 0.4573
 IR Inten    --      3.2923                 2.6284                 7.6280

                     16                     17                     18
                      A                      A                      A
 Frequencies --    437.2565               497.3390               501.1631
 Red. masses --      3.3538                 1.7289                 4.3207
 Frc consts  --      0.3778                 0.2520                 0.6394
 IR Inten    --      1.4170               146.6397                33.9087

                     19                     20                     21
                      A                      A                      A
 Frequencies --    540.7279               567.3925               581.2492
 Red. masses --      6.0905                 4.8105                 4.7963
 Frc consts  --      1.0492                 0.9124                 0.9547
 IR Inten    --     15.8230                 3.1449                 0.1627

                     22                     23                     24
                      A                      A                      A
 Frequencies --    604.9718               614.3022               650.2160
 Red. masses --      4.6095                 4.9747                 5.7983
 Frc consts  --      0.9940                 1.1061                 1.4443
 IR Inten    --     23.0349                 4.4058                 8.2106

                     25                     26                     27
                      A                      A                      A
 Frequencies --    680.3954               705.4993               730.9948
 Red. masses --      5.5848                 8.1208                 7.8435
 Frc consts  --      1.5233                 2.3815                 2.4694
 IR Inten    --     29.4901                 7.0513                 9.3677

                     28                     29                     30
                      A                      A                      A
 Frequencies --    733.1558               739.1003               752.0374
 Red. masses --      5.2036                 4.9761                 6.6606
 Frc consts  --      1.6480                 1.6016                 2.2194
 IR Inten    --     11.4824                 8.1744                 3.1226

                     31                     32                     33
                      A                      A                      A
 Frequencies --    758.9433               806.0243               836.4035
 Red. masses --      6.6831                 1.1975                11.0046
 Frc consts  --      2.2680                 0.4584                 4.5358
 IR Inten    --     32.5618                24.1931                53.8627

                     34                     35                     36
                      A                      A                      A
 Frequencies --    850.6268               876.8581               880.5273
 Red. masses --      1.5076                 2.3237                 2.4184
 Frc consts  --      0.6427                 1.0526                 1.1048
 IR Inten    --     15.8967                25.8809                15.3306

                     37                     38                     39
                      A                      A                      A
 Frequencies --    884.6810               907.5017               947.0683
 Red. masses --      3.6858                 1.4397                 3.4707
 Frc consts  --      1.6996                 0.6986                 1.8341
 IR Inten    --     10.5760                22.0876                25.6044

                     40                     41                     42
                      A                      A                      A
 Frequencies --    961.0132               974.2256              1033.0643
 Red. masses --      5.2177                 1.2916                 2.9288
 Frc consts  --      2.8392                 0.7223                 1.8416
 IR Inten    --      1.8771                 0.4756                18.9971

                     43                     44                     45
                      A                      A                      A
 Frequencies --   1084.1726              1089.8462              1149.8703
 Red. masses --      2.6463                 3.5287                 1.3941
 Frc consts  --      1.8326                 2.4694                 1.0861
 IR Inten    --    101.5149                 6.5605                 8.7524

                     46                     47                     48
                      A                      A                      A
 Frequencies --   1158.2560              1191.6079              1204.9672
 Red. masses --      2.2575                 4.5574                 4.3982
 Frc consts  --      1.7844                 3.8127                 3.7625
 IR Inten    --      5.0765                16.1950                77.6834

                     49                     50                     51
                      A                      A                      A
 Frequencies --   1254.2775              1268.9436              1284.6297
 Red. masses --      1.3854                 1.7399                 1.4650
 Frc consts  --      1.2842                 1.6507                 1.4245
 IR Inten    --     12.3523                42.9258                 7.6970

                     52                     53                     54
                      A                      A                      A
 Frequencies --   1314.0184              1323.6827              1367.6948
 Red. masses --      3.1611                 1.8282                 1.7963
 Frc consts  --      3.2159                 1.8873                 1.9797
 IR Inten    --    215.7324                98.0193                31.7637

                     55                     56                     57
                      A                      A                      A
 Frequencies --   1386.5427              1401.6056              1417.4033
 Red. masses --      8.2579                 1.4426                 6.7874
 Frc consts  --      9.3538                 1.6697                 8.0341
 IR Inten    --    686.0095                26.3452                19.2971

                     58                     59                     60
                      A                      A                      A
 Frequencies --   1480.2018              1489.5753              1498.7571
 Red. masses --      7.2162                 4.2947                 1.1036
 Frc consts  --      9.3154                 5.6144                 1.4606
 IR Inten    --     12.2666                91.6018                 9.4534

                     61                     62                     63
                      A                      A                      A
 Frequencies --   1507.7496              1540.4132              1580.6789
 Red. masses --      3.1989                 1.8663                 5.7568
 Frc consts  --      4.2846                 2.6091                 8.4746
 IR Inten    --     31.9759                48.4582                42.7860

                     64                     65                     66
                      A                      A                      A
 Frequencies --   1613.1442              1649.4218              1677.2454
 Red. masses --      9.9781                 9.4016                 8.2930
 Frc consts  --     15.2984                15.0700                13.7454
 IR Inten    --    130.6795               569.8914                93.8932

                     67                     68                     69
                      A                      A                      A
 Frequencies --   1699.9192              3095.4291              3147.8019
 Red. masses --      9.1134                 1.0614                 1.1051
 Frc consts  --     15.5163                 5.9919                 6.4513
 IR Inten    --    343.2441                23.7458                 2.0161

                     70                     71                     72
                      A                      A                      A
 Frequencies --   3220.0337              3230.9653              3244.3698
 Red. masses --      1.0933                 1.0911                 1.0942
 Frc consts  --      6.6788                 6.7107                 6.7858
 IR Inten    --      8.2966                 2.6265                 1.1574

                     73                     74                     75
                      A                      A                      A
 Frequencies --   3257.7655              3271.1603              3604.5444
 Red. masses --      1.0925                 1.0929                 1.0765
 Frc consts  --      6.8313                 6.8903                 8.2406
 IR Inten    --      1.3414                 5.7475                59.2178

 - Thermochemistry -
 -------------------
 Temperature   298.150 Kelvin.  Pressure   1.00000 Atm.
 Atom     1 has atomic number  6 and mass  12.00000

 Molecular mass:   276.03171 amu.
 Principal axes and moments of inertia in atomic units:
                           1         2         3
     Eigenvalues --  1833.02440********************
           X            0.99999  -0.00486   0.00191
           Y            0.00488   0.99987  -0.01542
           Z           -0.00183   0.01543   0.99988
 This molecule is an asymmetric top.
 Rotational symmetry number  1.
 Warning -- assumption of classical behavior for rotation
           may cause significant error
 Rotational temperatures (Kelvin)      0.04725     0.00691     0.00661
 Rotational constants (GHZ):           0.98457     0.14392     0.13779
 Zero-point vibrational energy     500723.8 (Joules/Mol)
                                  119.67587 (Kcal/Mol)
 Warning -- explicit consideration of  23 degrees of freedom as
           vibrations may cause significant error
 Vibrational temperatures:     32.99    48.51    59.46    91.08   121.55
          (Kelvin)            186.48   226.09   274.91   295.76   399.35
                              422.99   447.40   509.78   542.05   593.24
                              629.11   715.56   721.06   777.99   816.35
                              836.29   870.42   883.84   935.52   978.94
                             1015.06  1051.74  1054.85  1063.40  1082.01
                             1091.95  1159.69  1203.40  1223.86  1261.60
                             1266.88  1272.86  1305.69  1362.62  1382.68
                             1401.69  1486.35  1559.88  1568.05  1654.41
                             1666.47  1714.46  1733.68  1804.63  1825.73
                             1848.30  1890.58  1904.48  1967.81  1994.93
                             2016.60  2039.33  2129.68  2143.17  2156.38
                             2169.32  2216.31  2274.24  2320.95  2373.15
                             2413.18  2445.80  4453.63  4528.98  4632.91
                             4648.64  4667.92  4687.20  4706.47  5186.14

 Zero-point correction=                           0.190716 (Hartree/Particle)
 Thermal correction to Energy=                    0.205723
 Thermal correction to Enthalpy=                  0.206667
 Thermal correction to Gibbs Free Energy=         0.145632
 Sum of electronic and zero-point Energies=          -1266.621651
 Sum of electronic and thermal Energies=             -1266.606644
 Sum of electronic and thermal Enthalpies=           -1266.605699
 Sum of electronic and thermal Free Energies=        -1266.666735

                     E (Thermal)             CV                S
                      KCal/Mol        Cal/Mol-Kelvin    Cal/Mol-Kelvin
 Total                  129.093             57.292            128.459
 Electronic               0.000              0.000              0.000
 Translational            0.889              2.981             42.745
 Rotational               0.889              2.981             34.064
 Vibrational            127.316             51.331             51.650
 Vibration     1          0.593              1.985              6.363
 Vibration     2          0.594              1.983              5.598
 Vibration     3          0.594              1.981              5.194
 Vibration     4          0.597              1.972              4.351
 Vibration     5          0.601              1.960              3.784
 Vibration     6          0.612              1.924              2.952
 Vibration     7          0.621              1.895              2.584
 Vibration     8          0.634              1.852              2.217
 Vibration     9          0.640              1.832              2.083
 Vibration    10          0.679              1.715              1.549
 Vibration    11          0.689              1.685              1.451
 Vibration    12          0.700              1.653              1.357
 Vibration    13          0.730              1.566              1.147
 Vibration    14          0.747              1.520              1.052
 Vibration    15          0.776              1.443              0.918
 Vibration    16          0.798              1.389              0.835
 Vibration    17          0.853              1.256              0.665
 Vibration    18          0.857              1.247              0.655
 Vibration    19          0.896              1.160              0.564
 Vibration    20          0.923              1.102              0.509
 Vibration    21          0.938              1.072              0.483
 Vibration    22          0.964              1.021              0.441
 Vibration    23          0.974              1.002              0.426

                           ! Non-Optimized Parameters !
 Normal termination of Gaussian 16 at Sun Dec 13 16:23:03 2020.

 ----------------------------------------------------------------------
 # B3LYP/6-311++G(d,p) empiricaldispersion=gd3bj scf=xqc pop=npa geom=c
 heck
 ----------------------------------------------------------------------

 ---------------------------------------
 CID_116385811_JID_9624_Energie_neutraal
 ---------------------------------------
 Structure from the checkpoint file:  "JID_9624.chk"
 Charge =  0 Multiplicity = 1

 SCF Done:  E(RB3LYP) =  -1267.07604872     A.U. after   16 cycles
 Normal termination of Gaussian 16 at Sun Dec 13 16:28:11 2020.

 ----------------------------------------------------------------------
 # B3LYP/6-311++G(d,p) empiricaldispersion=gd3bj scf=xqc pop=npa geom=c
 heck
 ----------------------------------------------------------------------

 -------------------------------------
 CID_116385811_JID_9624_Energie_kation
 -------------------------------------
 Structure from the checkpoint file:  "JID_9624.chk"
 Charge =  1 Multiplicity = 2

 SCF Done:  E(UB3LYP) =  -1266.76857080     A.U. after   28 cycles
 Normal termination of Gaussian 16 at Sun Dec 13 16:40:41 2020.
 Gaussian 16:  ES64L-G16RevA.03 25-Dec-2016

 ----------------------------------------------------------------------
 # B3LYP/6-311++G(d,p) empiricaldispersion=gd3bj scf=xqc pop=npa geom=c
 heck
 ----------------------------------------------------------------------

 ------------------------------------
 CID_116385811_JID_9624_Energie_anion
 ------------------------------------
 Structure from the checkpoint file:  "JID_9624.chk"
 Charge = -1 Multiplicity = 2

                         Standard orientation:
 ---------------------------------------------------------------------
 Center     Atomic      Atomic             Coordinates (Angstroms)
 Number     Number       Type             X           Y           Z
 ---------------------------------------------------------------------
      1          6           0       -3.154166    1.030124   -0.994279
      2          6           0       -1.860137    0.945414   -1.502813
      3          6           0       -0.993451    0.014549   -0.925630
      4          6           0       -1.449888   -0.792326    0.135458
      5          6           0       -2.716309   -0.740553    0.665760
      6          6           0       -3.559091    0.203229    0.061919
      7          7           0       -4.926197    0.323911    0.566260
      8          8           0       -5.260543   -0.413543    1.496332
      9          8           0       -5.666306    1.153736    0.035463
     10          8           0       -0.395698   -1.608410    0.512359
     11          6           0        0.615131   -1.240632   -0.339079
     12          7           0        0.333711   -0.296310   -1.198460
     13          7           0        1.778100   -1.915887   -0.213436
     14          6           0        2.973582   -1.403675   -0.892285
     15          6           0        3.650051   -0.277893   -0.168042
     16          6           0        4.845005   -0.316686    0.498685
     17          7           0        5.248904    0.845704    1.112974
     18          6           0        4.365169    1.782272    0.921962
     19         16           0        2.969947    1.325097   -0.026088
     20          1           0       -3.870817    1.731802   -1.400870
     21          1           0       -1.532032    1.578722   -2.319096
     22          1           0       -3.061843   -1.362525    1.480043
     23          1           0        1.914073   -2.383012    0.674371
     24          1           0        3.677644   -2.234234   -0.993210
     25          1           0        2.659460   -1.105060   -1.894690
     26          1           0        5.479344   -1.194924    0.562183
     27          1           0        4.458398    2.788558    1.314160
 ---------------------------------------------------------------------

 SCF Done:  E(UB3LYP) =  -1267.11655115     A.U. after   25 cycles

 The electronic state is 2-A.
 Alpha  occ. eigenvalues --  -88.79746 -19.09126 -18.96234 -18.96188 -14.34224
 Alpha  occ. eigenvalues --  -14.26277 -14.23379 -14.20149 -10.19537 -10.15010
 Alpha  occ. eigenvalues --  -10.14520 -10.12659 -10.12214 -10.11799 -10.08539
 Alpha  occ. eigenvalues --  -10.07936 -10.06118 -10.05684 -10.05436  -7.88347
 Alpha  occ. eigenvalues --   -5.84610  -5.84253  -5.83982  -1.04159  -1.03035
 Alpha  occ. eigenvalues --   -0.88446  -0.87363  -0.86973  -0.81780  -0.74419
 Alpha  occ. eigenvalues --   -0.72712  -0.68019  -0.65127  -0.64399  -0.61783
 Alpha  occ. eigenvalues --   -0.55837  -0.52675  -0.50763  -0.49154  -0.49077
 Alpha  occ. eigenvalues --   -0.48459  -0.42971  -0.42570  -0.40824  -0.39624
 Alpha  occ. eigenvalues --   -0.38116  -0.37813  -0.36331  -0.36033  -0.35411
 Alpha  occ. eigenvalues --   -0.34472  -0.33478  -0.33110  -0.32601  -0.32288
 Alpha  occ. eigenvalues --   -0.30630  -0.27941  -0.27843  -0.25741  -0.24778
 Alpha  occ. eigenvalues --   -0.24487  -0.20322  -0.19979  -0.19398  -0.19020
 Alpha  occ. eigenvalues --   -0.17206  -0.15245  -0.13952  -0.13589  -0.11795
 Alpha  occ. eigenvalues --   -0.11092   0.01630
 Alpha virt. eigenvalues --    0.03928   0.05706   0.07137   0.08110   0.08614
 Alpha virt. eigenvalues --    0.09359   0.09695   0.10065   0.10458   0.11069
 Alpha virt. eigenvalues --    0.11497   0.12098   0.12666   0.12943   0.13219

  Beta  occ. eigenvalues --  -88.79732 -19.09099 -18.95845 -18.95752 -14.33686
  Beta  occ. eigenvalues --  -14.26249 -14.23377 -14.20220 -10.19395 -10.15012
  Beta  occ. eigenvalues --  -10.14393 -10.12586 -10.12195 -10.11875 -10.08337
  Beta  occ. eigenvalues --  -10.07867 -10.06158 -10.05500 -10.05364  -7.88335
  Beta  occ. eigenvalues --   -5.84606  -5.84249  -5.83934  -1.03255  -1.02963
  Beta  occ. eigenvalues --   -0.88358  -0.87284  -0.86192  -0.81713  -0.74218
  Beta  occ. eigenvalues --   -0.72600  -0.67887  -0.64778  -0.64196  -0.61596
  Beta  occ. eigenvalues --   -0.55255  -0.52529  -0.50571  -0.49051  -0.48828
  Beta  occ. eigenvalues --   -0.48368  -0.42752  -0.42461  -0.40662  -0.39315
  Beta  occ. eigenvalues --   -0.37868  -0.37527  -0.35912  -0.35258  -0.34339
  Beta  occ. eigenvalues --   -0.33706  -0.33157  -0.32912  -0.32494  -0.32042
  Beta  occ. eigenvalues --   -0.30408  -0.27817  -0.27765  -0.25273  -0.24696
  Beta  occ. eigenvalues --   -0.24188  -0.20065  -0.19912  -0.19121  -0.18875
  Beta  occ. eigenvalues --   -0.16713  -0.13548  -0.13455  -0.11909  -0.11383
  Beta  occ. eigenvalues --   -0.10385
  Beta virt. eigenvalues --    0.04764   0.05713   0.07127   0.07796   0.08121
  Beta virt. eigenvalues --    0.08610   0.09384   0.09705   0.10563   0.10705
  Beta virt. eigenvalues --    0.11108   0.11551   0.12351   0.12894   0.13240

 Mulliken charges and spin densities:
               1          2
     1  C    0.497705   0.095372
     2  C   -1.327350  -0.003621
     3  C    0.623412   0.119069
     4  C    1.138428  -0.055587
     5  C   -1.315835   0.174412
     6  C   -0.800615  -0.034852
     7  N   -0.239946   0.176329
     8  O   -0.162158   0.152936
     9  O   -0.172116   0.166346
    10  O   -0.148952   0.006303
    11  C    0.350769   0.072082
    12  N   -0.035956  -0.038545
    13  N   -0.039533   0.001563
    14  C   -1.149292  -0.008979
    15  C    0.925441   0.050309
    16  C   -0.427452   0.004303
    17  N   -0.071726  -0.002659
    18  C   -0.188198   0.086847
    19  S   -0.050597   0.025222
    20  H    0.230828  -0.004982
    21  H    0.137476   0.001925
    22  H    0.224230  -0.010677
    23  H    0.267354   0.008984
    24  H    0.177312   0.000357
    25  H    0.222255   0.018852
    26  H    0.117784   0.004145
    27  H    0.216735  -0.005454
 Sum of Mulliken charges =  -1.00000   1.00000

 Dipole moment (field-independent basis, Debye):
    X=             13.6153    Y=             -2.4111    Z=             -2.1448  Tot=             13.9925
 Quadrupole moment (field-independent basis, Debye-Ang):
   XX=           -248.4503   YY=           -118.2076   ZZ=           -128.5216
   XY=             -2.0324   XZ=              7.5658   YZ=             -0.4369

 Summary of Natural Population Analysis:

                                       Natural Population
                Natural  -----------------------------------------------
    Atom  No    Charge         Core      Valence    Rydberg      Total
 -----------------------------------------------------------------------
      C    1   -0.08636      0.99955     2.07722    0.00959     3.08636
      C    2   -0.12426      0.99954     2.11598    0.00874     3.12426
      C    3    0.08121      0.99946     1.90671    0.01262     2.91879
      C    4    0.11636      0.99934     1.87246    0.01184     2.88364
      C    5   -0.08327      0.99948     2.07409    0.00971     3.08327
      C    6    0.05012      0.99943     1.93908    0.01137     2.94988
      N    7    0.29464      0.99972     2.17842    0.02722     3.20536
      O    8   -0.20126      0.99990     3.19352    0.00784     4.20126
      O    9   -0.19301      0.99990     3.18532    0.00780     4.19301
      O   10   -0.25264      0.99985     3.24405    0.00874     4.25264
      C   11    0.38129      0.99959     1.59977    0.01935     2.61871
      N   12   -0.30010      0.99966     2.79173    0.00871     3.80010
      N   13   -0.31174      0.99965     2.80215    0.00994     3.81174
      C   14   -0.10209      0.99956     2.09071    0.01183     3.10209
      C   15   -0.11352      0.99949     2.10353    0.01050     3.11352
      C   16   -0.02199      0.99946     2.00752    0.01501     3.02199
      N   17   -0.24435      0.99969     2.73141    0.01325     3.74435
      C   18   -0.04023      0.99967     2.02313    0.01743     3.04023
      S   19    0.21454      4.99945     2.76511    0.02090     7.78546
      H   20    0.11467      0.00000     0.38404    0.00129     0.38533
      H   21    0.09938      0.00000     0.39893    0.00169     0.40062
      H   22    0.12015      0.00000     0.37852    0.00133     0.37985
      H   23    0.19429      0.00000     0.30401    0.00170     0.30571
      H   24    0.10054      0.00000     0.39832    0.00114     0.39946
      H   25    0.11670      0.00000     0.38201    0.00129     0.38330
      H   26    0.09553      0.00000     0.40324    0.00122     0.40447
      H   27    0.09541      0.00000     0.40320    0.00139     0.40459
 =======================================================================
   * Total *    0.00000     22.99241    47.75417    0.25342    71.00000

 Normal termination of Gaussian 16 at Sun Dec 13 16:52:07 2020.
