 Gaussian 16, Revision A.03,

 -----------------------------------------------------------
 # opt freq B3LYP/6-31G(d) empiricaldispersion=gd3bj scf=xqc
 -----------------------------------------------------------

 ------------------------------
 CID_54430915_JID_4603_neutraal
 ------------------------------
 Symbolic Z-matrix:
 Charge =  0 Multiplicity = 1

 SCF Done:  E(RB3LYP) =  -634.538784794     A.U. after   14 cycles
 SCF Done:  E(RB3LYP) =  -634.541479171     A.U. after   12 cycles
 SCF Done:  E(RB3LYP) =  -634.541740092     A.U. after   12 cycles
 SCF Done:  E(RB3LYP) =  -634.542577647     A.U. after   12 cycles
 SCF Done:  E(RB3LYP) =  -634.544845991     A.U. after   13 cycles
 SCF Done:  E(RB3LYP) =  -634.544960406     A.U. after   13 cycles
 SCF Done:  E(RB3LYP) =  -634.545519262     A.U. after   11 cycles
 SCF Done:  E(RB3LYP) =  -634.545609237     A.U. after   11 cycles
 SCF Done:  E(RB3LYP) =  -634.545633061     A.U. after   11 cycles
 SCF Done:  E(RB3LYP) =  -634.545653143     A.U. after   10 cycles
 SCF Done:  E(RB3LYP) =  -634.545657172     A.U. after    8 cycles
 SCF Done:  E(RB3LYP) =  -634.545657409     A.U. after    7 cycles
 SCF Done:  E(RB3LYP) =  -634.545657495     A.U. after    7 cycles
 SCF Done:  E(RB3LYP) =  -634.545657507     A.U. after    6 cycles
 SCF Done:  E(RB3LYP) =  -634.545657511     A.U. after    6 cycles
 Optimization completed.
    -- Stationary point found.
 Normal termination of Gaussian 16 at Thu Dec 10 10:12:51 2020.

 --------------------------------------------------------------------
 #N Geom=AllCheck Guess=TCheck SCRF=Check GenChk RB3LYP/6-31G(d) Freq
 --------------------------------------------------------------------

 Structure from the checkpoint file:  "JID_4603.chk"
 ------------------------------
 CID_54430915_JID_4603_neutraal
 ------------------------------
 Charge =  0 Multiplicity = 1

 SCF Done:  E(RB3LYP) =  -634.545657511     A.U. after    1 cycles

  Exact polarizability: 154.346  -8.515 135.261  19.574   4.772  88.159
 Approx polarizability: 201.677 -13.199 215.355  37.315  11.131 139.411

                      1                      2                      3
                      A                      A                      A
 Frequencies --     18.5802                33.5734                69.3959
 Red. masses --      3.8807                 3.7841                 4.0900
 Frc consts  --      0.0008                 0.0025                 0.0116
 IR Inten    --      0.1747                 0.4227                 0.0467

                      4                      5                      6
                      A                      A                      A
 Frequencies --     85.4382                99.5870               112.8681
 Red. masses --      2.5727                 3.5968                 2.9152
 Frc consts  --      0.0111                 0.0210                 0.0219
 IR Inten    --      2.6667                 2.6243                 2.1969

                      7                      8                      9
                      A                      A                      A
 Frequencies --    151.0007               173.0747               201.3481
 Red. masses --      2.8389                 1.2721                 1.3111
 Frc consts  --      0.0381                 0.0225                 0.0313
 IR Inten    --      1.2953                 0.6575                 1.4141

                     10                     11                     12
                      A                      A                      A
 Frequencies --    217.5580               245.9992               350.1658
 Red. masses --      2.4130                 3.0516                 2.5474
 Frc consts  --      0.0673                 0.1088                 0.1840
 IR Inten    --      3.1395                 4.5613                 2.6948

                     13                     14                     15
                      A                      A                      A
 Frequencies --    359.5832               382.4761               395.3962
 Red. masses --      2.3595                 3.6412                 3.1039
 Frc consts  --      0.1797                 0.3138                 0.2859
 IR Inten    --      2.6623                 0.9090                 7.1963

                     16                     17                     18
                      A                      A                      A
 Frequencies --    419.6452               437.2573               498.1294
 Red. masses --      3.0261                 2.1132                 3.7718
 Frc consts  --      0.3140                 0.2380                 0.5514
 IR Inten    --      0.1666                 1.6060                 4.7736

                     19                     20                     21
                      A                      A                      A
 Frequencies --    522.8059               567.3904               638.5727
 Red. masses --      5.0558                 2.8264                 6.3112
 Frc consts  --      0.8142                 0.5361                 1.5163
 IR Inten    --      6.9050                 6.7525                 0.2175

                     22                     23                     24
                      A                      A                      A
 Frequencies --    651.9960               716.6828               756.5113
 Red. masses --      3.0292                 1.9343                 2.3206
 Frc consts  --      0.7587                 0.5854                 0.7825
 IR Inten    --      0.2949                26.3902                15.2334

                     25                     26                     27
                      A                      A                      A
 Frequencies --    763.3839               785.4304               826.1998
 Red. masses --      2.6141                 3.2218                 2.4353
 Frc consts  --      0.8976                 1.1710                 0.9794
 IR Inten    --     52.4969                18.2986                 3.9334

                     28                     29                     30
                      A                      A                      A
 Frequencies --    862.3706               877.9708               900.2166
 Red. masses --      1.2510                 2.5610                 3.1387
 Frc consts  --      0.5481                 1.1631                 1.4986
 IR Inten    --      0.2818                34.2104                 6.7180

                     31                     32                     33
                      A                      A                      A
 Frequencies --    926.7484               967.9343               989.5623
 Red. masses --      1.4843                 1.3447                 1.6796
 Frc consts  --      0.7511                 0.7423                 0.9690
 IR Inten    --     10.7303                 0.8957                 1.7601

                     34                     35                     36
                      A                      A                      A
 Frequencies --    993.0659              1023.0137              1048.1323
 Red. masses --      1.4316                 6.2057                 2.5289
 Frc consts  --      0.8318                 3.8265                 1.6369
 IR Inten    --      4.7888                 0.0483                40.5857

                     37                     38                     39
                      A                      A                      A
 Frequencies --   1061.9231              1072.2725              1082.2848
 Red. masses --      2.3993                 3.1142                 2.8775
 Frc consts  --      1.5941                 2.1096                 1.9859
 IR Inten    --     24.4532                29.4637                38.2905

                     40                     41                     42
                      A                      A                      A
 Frequencies --   1096.1029              1120.4478              1132.0016
 Red. masses --      4.0891                 1.7769                 3.3841
 Frc consts  --      2.8945                 1.3143                 2.5550
 IR Inten    --     49.4166                 6.3133                19.5949

                     43                     44                     45
                      A                      A                      A
 Frequencies --   1186.9311              1191.8404              1192.3131
 Red. masses --      1.2877                 1.2760                 1.0974
 Frc consts  --      1.0688                 1.0679                 0.9192
 IR Inten    --      1.3316                 1.6403                 0.0327

                     46                     47                     48
                      A                      A                      A
 Frequencies --   1208.3907              1215.0347              1220.5020
 Red. masses --      1.2291                 1.1441                 1.5419
 Frc consts  --      1.0574                 0.9952                 1.3533
 IR Inten    --      0.7295                 0.1854                 3.2213

                     49                     50                     51
                      A                      A                      A
 Frequencies --   1231.2937              1234.8104              1269.2733
 Red. masses --      1.5462                 2.4855                 1.3395
 Frc consts  --      1.3812                 2.2329                 1.2715
 IR Inten    --      1.5531                 1.1038                 5.0701

                     52                     53                     54
                      A                      A                      A
 Frequencies --   1340.8593              1355.5776              1367.1155
 Red. masses --      1.1874                 2.1485                 1.9334
 Frc consts  --      1.2578                 2.3261                 2.1291
 IR Inten    --      0.4604                 2.0729                 0.0555

                     55                     56                     57
                      A                      A                      A
 Frequencies --   1389.6445              1408.0853              1421.9616
 Red. masses --      1.3993                 1.3591                 1.3901
 Frc consts  --      1.5921                 1.5877                 1.6560
 IR Inten    --      3.7987                 9.6687                 9.0028

                     58                     59                     60
                      A                      A                      A
 Frequencies --   1475.4271              1479.8117              1500.1154
 Red. masses --      1.1491                 1.1301                 1.1424
 Frc consts  --      1.4738                 1.4580                 1.5147
 IR Inten    --      3.2703                 0.4311                 3.3549

                     61                     62                     63
                      A                      A                      A
 Frequencies --   1501.6678              1503.3989              1508.9758
 Red. masses --      1.6975                 1.0780                 1.1179
 Frc consts  --      2.2554                 1.4356                 1.4997
 IR Inten    --      6.6721                 6.9249                 6.7855

                     64                     65                     66
                      A                      A                      A
 Frequencies --   1511.5298              1522.5682              1536.3437
 Red. masses --      1.0751                 1.1498                 1.0590
 Frc consts  --      1.4472                 1.5705                 1.4727
 IR Inten    --      7.1428                 5.7598                 4.4240

                     67                     68                     69
                      A                      A                      A
 Frequencies --   1543.9829              1548.8735              1645.9542
 Red. masses --      1.0504                 2.1924                 5.4952
 Frc consts  --      1.4753                 3.0989                 8.7714
 IR Inten    --     11.3209                12.1540                 0.9299

                     70                     71                     72
                      A                      A                      A
 Frequencies --   1668.1823              3029.2068              3036.7944
 Red. masses --      5.6129                 1.0329                 1.0712
 Frc consts  --      9.2029                 5.5842                 5.8203
 IR Inten    --      4.8902                44.6440                25.2457

                     73                     74                     75
                      A                      A                      A
 Frequencies --   3039.5161              3045.1351              3076.6996
 Red. masses --      1.0310                 1.0695                 1.0612
 Frc consts  --      5.6122                 5.8430                 5.9185
 IR Inten    --     56.9419                32.6535                24.6561

                     76                     77                     78
                      A                      A                      A
 Frequencies --   3095.3317              3105.1641              3111.3638
 Red. masses --      1.1033                 1.1071                 1.0957
 Frc consts  --      6.2279                 6.2892                 6.2493
 IR Inten    --     50.8848                40.0787                 7.8102

                     79                     80                     81
                      A                      A                      A
 Frequencies --   3126.1868              3135.4082              3138.2752
 Red. masses --      1.1011                 1.1037                 1.0925
 Frc consts  --      6.3400                 6.3926                 6.3396
 IR Inten    --     28.1216                25.8162                15.5912

                     82                     83                     84
                      A                      A                      A
 Frequencies --   3149.3150              3170.6493              3180.5342
 Red. masses --      1.1030                 1.0861                 1.0866
 Frc consts  --      6.4457                 6.4333                 6.4764
 IR Inten    --     22.7859                 9.5162                 0.4030

                     85                     86                     87
                      A                      A                      A
 Frequencies --   3191.1081              3204.7651              3216.3608
 Red. masses --      1.0918                 1.0956                 1.0935
 Frc consts  --      6.5508                 6.6298                 6.6648
 IR Inten    --     32.0776                37.7794                10.7683

 - Thermochemistry -
 -------------------
 Temperature   298.150 Kelvin.  Pressure   1.00000 Atm.
 Atom     1 has atomic number  6 and mass  12.00000

 Molecular mass:   195.12593 amu.
 Principal axes and moments of inertia in atomic units:
                           1         2         3
     Eigenvalues --  1275.491254631.898405377.63105
           X            0.99997   0.00619   0.00383
           Y           -0.00619   0.99998  -0.00137
           Z           -0.00384   0.00134   0.99999
 This molecule is an asymmetric top.
 Rotational symmetry number  1.
 Warning -- assumption of classical behavior for rotation
           may cause significant error
 Rotational temperatures (Kelvin)      0.06791     0.01870     0.01611
 Rotational constants (GHZ):           1.41494     0.38963     0.33560
 Zero-point vibrational energy     704997.5 (Joules/Mol)
                                  168.49844 (Kcal/Mol)
 Warning -- explicit consideration of  20 degrees of freedom as
           vibrations may cause significant error
 Vibrational temperatures:     26.73    48.30    99.85   122.93   143.28
          (Kelvin)            162.39   217.26   249.02   289.69   313.02
                              353.94   503.81   517.36   550.30   568.89
                              603.78   629.12   716.70   752.20   816.35
                              918.76   938.08  1031.15  1088.45  1098.34
                             1130.06  1188.72  1240.76  1263.20  1295.21
                             1333.38  1392.64  1423.76  1428.80  1471.89
                             1508.03  1527.87  1542.76  1557.17  1577.05
                             1612.07  1628.70  1707.73  1714.79  1715.47
                             1738.60  1748.16  1756.03  1771.56  1776.62
                             1826.20  1929.20  1950.37  1966.97  1999.39
                             2025.92  2045.89  2122.81  2129.12  2158.33
                             2160.57  2163.06  2171.08  2174.75  2190.64
                             2210.46  2221.45  2228.48  2368.16  2400.14
                             4358.35  4369.27  4373.19  4381.27  4426.68
                             4453.49  4467.64  4476.56  4497.89  4511.15
                             4515.28  4531.16  4561.86  4576.08  4591.29
                             4610.94  4627.63

 Zero-point correction=                           0.268519 (Hartree/Particle)
 Thermal correction to Energy=                    0.283010
 Thermal correction to Enthalpy=                  0.283954
 Thermal correction to Gibbs Free Energy=         0.225404
 Sum of electronic and zero-point Energies=           -634.277138
 Sum of electronic and thermal Energies=              -634.262648
 Sum of electronic and thermal Enthalpies=            -634.261704
 Sum of electronic and thermal Free Energies=         -634.320253

                     E (Thermal)             CV                S
                      KCal/Mol        Cal/Mol-Kelvin    Cal/Mol-Kelvin
 Total                  177.591             53.774            123.228
 Electronic               0.000              0.000              0.000
 Translational            0.889              2.981             41.711
 Rotational               0.889              2.981             31.830
 Vibrational            175.814             47.812             49.688
 Vibration     1          0.593              1.986              6.780
 Vibration     2          0.594              1.983              5.606
 Vibration     3          0.598              1.969              4.170
 Vibration     4          0.601              1.959              3.762
 Vibration     5          0.604              1.949              3.462
 Vibration     6          0.607              1.939              3.219
 Vibration     7          0.618              1.902              2.660
 Vibration     8          0.627              1.876              2.402
 Vibration     9          0.638              1.838              2.121
 Vibration    10          0.646              1.814              1.979
 Vibration    11          0.660              1.769              1.759
 Vibration    12          0.727              1.575              1.165
 Vibration    13          0.734              1.556              1.124
 Vibration    14          0.752              1.508              1.029
 Vibration    15          0.762              1.480              0.980
 Vibration    16          0.782              1.428              0.893
 Vibration    17          0.798              1.389              0.835
 Vibration    18          0.854              1.254              0.663
 Vibration    19          0.878              1.199              0.603
 Vibration    20          0.923              1.102              0.509

                           ! Non-Optimized Parameters !
 Normal termination of Gaussian 16 at Thu Dec 10 10:21:39 2020.

 ----------------------------------------------------------------------
 # B3LYP/6-311++G(d,p) empiricaldispersion=gd3bj scf=xqc pop=npa geom=c
 heck
 ----------------------------------------------------------------------

 --------------------------------------
 CID_54430915_JID_4603_Energie_neutraal
 --------------------------------------
 Structure from the checkpoint file:  "JID_4603.chk"
 Charge =  0 Multiplicity = 1

 SCF Done:  E(RB3LYP) =  -634.723428845     A.U. after   14 cycles
 Normal termination of Gaussian 16 at Thu Dec 10 10:24:54 2020.

 ----------------------------------------------------------------------
 # B3LYP/6-311++G(d,p) empiricaldispersion=gd3bj scf=xqc pop=npa geom=c
 heck
 ----------------------------------------------------------------------

 ------------------------------------
 CID_54430915_JID_4603_Energie_kation
 ------------------------------------
 Structure from the checkpoint file:  "JID_4603.chk"
 Charge =  1 Multiplicity = 2

 SCF Done:  E(UB3LYP) =  -634.422392194     A.U. after   27 cycles
 Normal termination of Gaussian 16 at Thu Dec 10 10:33:21 2020.
 Gaussian 16:  ES64L-G16RevA.03 25-Dec-2016

 ----------------------------------------------------------------------
 # B3LYP/6-311++G(d,p) empiricaldispersion=gd3bj scf=xqc pop=npa geom=c
 heck
 ----------------------------------------------------------------------

 -----------------------------------
 CID_54430915_JID_4603_Energie_anion
 -----------------------------------
 Structure from the checkpoint file:  "JID_4603.chk"
 Charge = -1 Multiplicity = 2

                         Standard orientation:
 ---------------------------------------------------------------------
 Center     Atomic      Atomic             Coordinates (Angstroms)
 Number     Number       Type             X           Y           Z
 ---------------------------------------------------------------------
      1          6           0        4.261110    0.090972    0.109375
      2          8           0        3.060263   -0.663663    0.027770
      3          7           0        2.081964    0.098629   -0.655945
      4          6           0        1.036252   -0.865507   -1.044161
      5          6           0        0.524838   -1.849160    0.014511
      6          6           0       -0.358511   -1.250117    1.126762
      7          6           0       -1.577665   -0.529434    0.594925
      8          6           0       -2.592166   -1.235286   -0.066756
      9          6           0       -3.704851   -0.576210   -0.587429
     10          6           0       -3.824935    0.808615   -0.454051
     11          6           0       -2.825852    1.522874    0.207091
     12          6           0       -1.713517    0.857427    0.724998
     13          8           0        1.520017    0.979395    0.355158
     14          6           0        1.418979    2.280978   -0.204683
     15          1           0        5.000101   -0.579777    0.554795
     16          1           0        4.129364    0.968026    0.753942
     17          1           0        4.590542    0.410564   -0.886533
     18          1           0        0.217843   -0.259827   -1.445021
     19          1           0        1.476141   -1.423926   -1.877406
     20          1           0       -0.053959   -2.610583   -0.525364
     21          1           0        1.377820   -2.364568    0.465348
     22          1           0       -0.677754   -2.073194    1.780471
     23          1           0        0.239321   -0.567212    1.733326
     24          1           0       -2.510387   -2.315137   -0.170713
     25          1           0       -4.481075   -1.143634   -1.094123
     26          1           0       -4.691679    1.324093   -0.858389
     27          1           0       -2.911762    2.600337    0.321951
     28          1           0       -0.935374    1.413555    1.237407
     29          1           0        2.376272    2.608919   -0.625300
     30          1           0        0.645584    2.329560   -0.982903
     31          1           0        1.130930    2.935634    0.623205
 ---------------------------------------------------------------------

 SCF Done:  E(UB3LYP) =  -634.706909691     A.U. after   33 cycles
 SCF Done:  E(UB3LYP) =  -634.706909691     a.u. after    1 cycles

 The electronic state is 2-A.
 Alpha  occ. eigenvalues --  -19.06548 -19.05638 -14.31445 -10.11745 -10.11510
 Alpha  occ. eigenvalues --  -10.10435 -10.08353 -10.07810 -10.07702 -10.07596
 Alpha  occ. eigenvalues --  -10.07558 -10.07540 -10.07299 -10.07243  -1.02304
 Alpha  occ. eigenvalues --   -0.92784  -0.76352  -0.74831  -0.69199  -0.64912
 Alpha  occ. eigenvalues --   -0.64036  -0.59516  -0.58819  -0.54551  -0.51138
 Alpha  occ. eigenvalues --   -0.50145  -0.47503  -0.43288  -0.41807  -0.40564
 Alpha  occ. eigenvalues --   -0.39388  -0.36645  -0.36433  -0.35864  -0.33850
 Alpha  occ. eigenvalues --   -0.33759  -0.33272  -0.32999  -0.32240  -0.30971
 Alpha  occ. eigenvalues --   -0.29311  -0.28307  -0.27218  -0.26284  -0.25874
 Alpha  occ. eigenvalues --   -0.25050  -0.23935  -0.23259  -0.20550  -0.18907
 Alpha  occ. eigenvalues --   -0.15893  -0.15004  -0.14444   0.04360
 Alpha virt. eigenvalues --    0.05914   0.06503   0.07485   0.07738   0.08138
 Alpha virt. eigenvalues --    0.08271   0.08715   0.09613   0.09854   0.10179
 Alpha virt. eigenvalues --    0.10417   0.11207   0.12301   0.12710   0.12933

  Beta  occ. eigenvalues --  -19.06540 -19.05632 -14.31440 -10.11710 -10.11478
  Beta  occ. eigenvalues --  -10.10426 -10.08352 -10.07796 -10.07687 -10.07582
  Beta  occ. eigenvalues --  -10.07545 -10.07532 -10.07292 -10.07238  -1.02294
  Beta  occ. eigenvalues --   -0.92773  -0.76331  -0.74815  -0.69178  -0.64882
  Beta  occ. eigenvalues --   -0.64010  -0.59479  -0.58756  -0.54511  -0.51100
  Beta  occ. eigenvalues --   -0.50110  -0.47473  -0.43261  -0.41763  -0.40529
  Beta  occ. eigenvalues --   -0.39357  -0.36621  -0.36410  -0.35824  -0.33818
  Beta  occ. eigenvalues --   -0.33733  -0.33230  -0.32967  -0.32208  -0.30942
  Beta  occ. eigenvalues --   -0.29282  -0.28282  -0.27192  -0.26262  -0.25847
  Beta  occ. eigenvalues --   -0.25023  -0.23912  -0.23238  -0.20527  -0.18890
  Beta  occ. eigenvalues --   -0.15876  -0.14987  -0.14419
  Beta virt. eigenvalues --    0.06413   0.06984   0.07190   0.07829   0.08142
  Beta virt. eigenvalues --    0.08401   0.08868   0.09025   0.09987   0.10259
  Beta virt. eigenvalues --    0.10459   0.10871   0.11430   0.12730   0.13064

 Mulliken charges and spin densities:
               1          2
     1  C    0.770284  -1.038394
     2  O    0.074307   0.020602
     3  N   -0.494011   0.160651
     4  C   -0.696672   0.010958
     5  C    0.142079  -0.338635
     6  C    0.773176  -1.174681
     7  C    0.710849   0.341558
     8  C   -1.031705   0.934786
     9  C    0.439934  -0.754054
    10  C    1.559402  -1.859480
    11  C   -0.347500  -0.026248
    12  C   -1.155736   0.599907
    13  O    0.006914  -0.008617
    14  C    0.604578  -0.927077
    15  H   -0.235369   0.379980
    16  H   -0.278463   0.443438
    17  H   -0.209727   0.353697
    18  H    0.300378  -0.161998
    19  H   -0.036131   0.238324
    20  H   -0.057597   0.169990
    21  H    0.159084   0.023812
    22  H    0.054739   0.111093
    23  H    0.029534   0.152815
    24  H   -0.272291   0.425067
    25  H   -0.667935   0.847864
    26  H   -0.275185   0.429159
    27  H   -0.580689   0.767298
    28  H    0.305419  -0.162577
    29  H   -0.181927   0.322259
    30  H   -0.062072   0.217773
    31  H   -0.347668   0.500732
 Sum of Mulliken charges =  -1.00000   1.00000

 Dipole moment (field-independent basis, Debye):
    X=              1.0761    Y=             -2.5029    Z=              0.8640  Tot=              2.8581
 Quadrupole moment (field-independent basis, Debye-Ang):
   XX=           -180.9098   YY=           -132.8099   ZZ=           -115.1531
   XY=             -4.0228   XZ=             -5.8365   YZ=             -1.8357

 Summary of Natural Population Analysis:

                                       Natural Population
                Natural  -----------------------------------------------
    Atom  No    Charge         Core      Valence    Rydberg      Total
 -----------------------------------------------------------------------
      C    1   -0.10045      0.99962     2.09074    0.01009     3.10045
      O    2   -0.22183      0.99989     3.21111    0.01083     4.22183
      N    3    0.02690      0.99974     2.45619    0.01716     3.47310
      C    4   -0.09572      0.99959     2.08349    0.01264     3.09572
      C    5   -0.19633      0.99961     2.18867    0.00805     3.19633
      C    6   -0.19972      0.99959     2.19167    0.00846     3.19972
      C    7   -0.01616      0.99950     2.00517    0.01148     3.01616
      C    8   -0.10432      0.99951     2.09455    0.01026     3.10432
      C    9   -0.09939      0.99956     2.08920    0.01063     3.09939
      C   10   -0.10575      0.99956     2.09623    0.00997     3.10575
      C   11   -0.09936      0.99956     2.08888    0.01092     3.09936
      C   12   -0.10142      0.99950     2.09193    0.00998     3.10142
      O   13   -0.23590      0.99990     3.22591    0.01009     4.23590
      C   14   -0.10090      0.99962     2.09067    0.01061     3.10090
      H   15    0.09016      0.00000     0.40852    0.00133     0.40984
      H   16    0.08618      0.00000     0.41176    0.00206     0.41382
      H   17    0.08466      0.00000     0.41297    0.00237     0.41534
      H   18    0.10431      0.00000     0.39430    0.00139     0.39569
      H   19    0.10129      0.00000     0.39755    0.00116     0.39871
      H   20    0.09814      0.00000     0.40065    0.00121     0.40186
      H   21    0.10729      0.00000     0.39130    0.00141     0.39271
      H   22    0.09970      0.00000     0.39927    0.00103     0.40030
      H   23    0.11005      0.00000     0.38795    0.00201     0.38995
      H   24    0.09965      0.00000     0.39904    0.00132     0.40035
      H   25    0.10147      0.00000     0.39695    0.00158     0.39853
      H   26    0.10156      0.00000     0.39705    0.00139     0.39844
      H   27    0.10183      0.00000     0.39686    0.00131     0.39817
      H   28    0.10366      0.00000     0.39426    0.00208     0.39634
      H   29    0.08644      0.00000     0.41150    0.00206     0.41356
      H   30    0.08265      0.00000     0.41592    0.00143     0.41735
      H   31    0.09129      0.00000     0.40714    0.00157     0.40871
 =======================================================================
   * Total *   -0.00000     13.99477    38.82737    0.17786    53.00000

 Normal termination of Gaussian 16 at Thu Dec 10 10:45:08 2020.
