 Gaussian 16, Revision A.03,

 -----------------------------------------------------------
 # opt freq B3LYP/6-31G(d) empiricaldispersion=gd3bj scf=xqc
 -----------------------------------------------------------

 ------------------------------
 CID_68139840_JID_9239_neutraal
 ------------------------------
 Symbolic Z-matrix:
 Charge =  0 Multiplicity = 1

 SCF Done:  E(RB3LYP) =  -868.190193998     A.U. after   15 cycles
 SCF Done:  E(RB3LYP) =  -868.199572510     A.U. after   13 cycles
 SCF Done:  E(RB3LYP) =  -868.200856644     A.U. after   13 cycles
 SCF Done:  E(RB3LYP) =  -868.201830777     A.U. after   12 cycles
 SCF Done:  E(RB3LYP) =  -868.202428005     A.U. after   12 cycles
 SCF Done:  E(RB3LYP) =  -868.203278460     A.U. after   13 cycles
 SCF Done:  E(RB3LYP) =  -868.203946545     A.U. after   13 cycles
 SCF Done:  E(RB3LYP) =  -868.204785544     A.U. after   14 cycles
 SCF Done:  E(RB3LYP) =  -868.205579540     A.U. after   14 cycles
 SCF Done:  E(RB3LYP) =  -868.205762062     A.U. after   11 cycles
 SCF Done:  E(RB3LYP) =  -868.205967221     A.U. after   10 cycles
 SCF Done:  E(RB3LYP) =  -868.205979397     A.U. after   10 cycles
 SCF Done:  E(RB3LYP) =  -868.205982491     A.U. after    9 cycles
 SCF Done:  E(RB3LYP) =  -868.205983040     A.U. after    8 cycles
 SCF Done:  E(RB3LYP) =  -868.205983082     A.U. after    8 cycles
 SCF Done:  E(RB3LYP) =  -868.205983101     A.U. after    7 cycles
 Optimization completed.
    -- Stationary point found.
 Normal termination of Gaussian 16 at Sun Dec 13 12:42:12 2020.

 --------------------------------------------------------------------
 #N Geom=AllCheck Guess=TCheck SCRF=Check GenChk RB3LYP/6-31G(d) Freq
 --------------------------------------------------------------------

 Structure from the checkpoint file:  "JID_9239.chk"
 ------------------------------
 CID_68139840_JID_9239_neutraal
 ------------------------------
 Charge =  0 Multiplicity = 1

 SCF Done:  E(RB3LYP) =  -868.205983100     A.U. after    1 cycles

  Exact polarizability: 303.138   2.836 180.263   6.510   9.318  82.724
 Approx polarizability: 442.370  -3.429 302.773  19.002  20.069 132.294

                      1                      2                      3
                      A                      A                      A
 Frequencies --     28.5637                35.9025                49.6250
 Red. masses --      4.5016                 4.6319                 3.1188
 Frc consts  --      0.0022                 0.0035                 0.0045
 IR Inten    --      3.6779                 0.7227                 1.5595

                      4                      5                      6
                      A                      A                      A
 Frequencies --     65.8081                92.8123               120.3101
 Red. masses --      4.9797                 4.2718                 2.9105
 Frc consts  --      0.0127                 0.0217                 0.0248
 IR Inten    --      2.0054                 0.6293                 1.9038

                      7                      8                      9
                      A                      A                      A
 Frequencies --    140.3892               173.1724               197.9452
 Red. masses --      2.6102                 4.3627                 1.1265
 Frc consts  --      0.0303                 0.0771                 0.0260
 IR Inten    --      2.1105                 1.3595                 0.3612

                     10                     11                     12
                      A                      A                      A
 Frequencies --    202.8827               214.1132               243.6500
 Red. masses --      3.4838                 3.5473                 2.4876
 Frc consts  --      0.0845                 0.0958                 0.0870
 IR Inten    --      1.9010                 6.9795                 2.7160

                     13                     14                     15
                      A                      A                      A
 Frequencies --    298.6574               321.5729               326.3954
 Red. masses --      3.4762                 5.0705                 8.0795
 Frc consts  --      0.1827                 0.3089                 0.5071
 IR Inten    --      5.1289                 1.9615                 0.2714

                     16                     17                     18
                      A                      A                      A
 Frequencies --    391.3411               405.8661               425.1439
 Red. masses --      6.4003                 4.8917                 3.6902
 Frc consts  --      0.5775                 0.4748                 0.3930
 IR Inten    --      3.9740                 4.4854                 1.7826

                     19                     20                     21
                      A                      A                      A
 Frequencies --    443.5619               480.6367               564.7379
 Red. masses --      3.1454                 5.3961                 5.2451
 Frc consts  --      0.3646                 0.7345                 0.9856
 IR Inten    --      4.3638                11.6318                17.6840

                     22                     23                     24
                      A                      A                      A
 Frequencies --    599.8097               606.1050               630.6727
 Red. masses --      7.5538                 3.0848                 4.9478
 Frc consts  --      1.6012                 0.6677                 1.1595
 IR Inten    --      9.3347                 6.5173                 2.9882

                     25                     26                     27
                      A                      A                      A
 Frequencies --    664.6863               686.0430               706.4667
 Red. masses --      7.7970                 4.7983                 6.9194
 Frc consts  --      2.0296                 1.3306                 2.0347
 IR Inten    --     18.5494                 4.6101                 7.0223

                     28                     29                     30
                      A                      A                      A
 Frequencies --    733.6414               753.5046               755.8723
 Red. masses --      5.5513                 1.2870                 7.8939
 Frc consts  --      1.7604                 0.4305                 2.6573
 IR Inten    --      1.2855                40.5257                 0.7519

                     31                     32                     33
                      A                      A                      A
 Frequencies --    770.7219               807.9572               810.4909
 Red. masses --      8.2952                 8.9101                 1.3597
 Frc consts  --      2.9032                 3.4269                 0.5262
 IR Inten    --      0.6534                 7.1791                16.4163

                     34                     35                     36
                      A                      A                      A
 Frequencies --    816.1579               868.3735               888.6830
 Red. masses --      1.7744                 1.3160                 4.4228
 Frc consts  --      0.6964                 0.5847                 2.0580
 IR Inten    --     31.8741                 0.3014                 2.4306

                     37                     38                     39
                      A                      A                      A
 Frequencies --    909.0772               920.7020               970.6327
 Red. masses --      6.3483                 6.5181                 4.1513
 Frc consts  --      3.0911                 3.2554                 2.3043
 IR Inten    --      9.1261                13.2766                 1.5013

                     40                     41                     42
                      A                      A                      A
 Frequencies --    972.9453               980.4632              1047.5586
 Red. masses --      1.4866                 1.2749                 1.4879
 Frc consts  --      0.8291                 0.7221                 0.9620
 IR Inten    --     18.8318                 0.4895                23.2837

                     43                     44                     45
                      A                      A                      A
 Frequencies --   1081.7231              1083.3721              1099.4675
 Red. masses --      2.7860                 5.2346                 1.5269
 Frc consts  --      1.9207                 3.6199                 1.0875
 IR Inten    --    104.7833                30.4631                14.7689

                     46                     47                     48
                      A                      A                      A
 Frequencies --   1106.6024              1129.1034              1140.5622
 Red. masses --      2.4131                 2.4318                 1.4755
 Frc consts  --      1.7410                 1.8266                 1.1309
 IR Inten    --     96.3929                23.4379                 1.1690

                     49                     50                     51
                      A                      A                      A
 Frequencies --   1151.4521              1167.1064              1179.5257
 Red. masses --      2.6431                 1.2693                 1.3552
 Frc consts  --      2.0647                 1.0186                 1.1109
 IR Inten    --     12.4396                 5.7686                 5.1739

                     52                     53                     54
                      A                      A                      A
 Frequencies --   1206.0684              1265.7522              1291.2588
 Red. masses --      2.1331                 1.8581                 3.6333
 Frc consts  --      1.8282                 1.7539                 3.5692
 IR Inten    --      2.6001                 2.4297                19.4088

                     55                     56                     57
                      A                      A                      A
 Frequencies --   1296.9991              1342.0241              1350.3519
 Red. masses --      5.4002                 2.8486                 5.8300
 Frc consts  --      5.3523                 3.0227                 6.2635
 IR Inten    --      5.9045                15.6606                59.2280

                     58                     59                     60
                      A                      A                      A
 Frequencies --   1394.1571              1418.8668              1421.4141
 Red. masses --      6.0500                 3.2932                 3.7951
 Frc consts  --      6.9284                 3.9062                 4.5176
 IR Inten    --    105.7746                63.3159               114.4467

                     61                     62                     63
                      A                      A                      A
 Frequencies --   1448.3714              1457.7928              1480.0153
 Red. masses --      3.1592                 1.4116                 1.2033
 Frc consts  --      3.9047                 1.7675                 1.5529
 IR Inten    --     20.4664                19.3330                13.0537

                     64                     65                     66
                      A                      A                      A
 Frequencies --   1497.5647              1502.2907              1506.3960
 Red. masses --      1.3567                 6.0690                 1.0648
 Frc consts  --      1.7927                 8.0700                 1.4236
 IR Inten    --     21.6569                31.8952                17.3113

                     67                     68                     69
                      A                      A                      A
 Frequencies --   1510.0457              1534.0119              1542.8956
 Red. masses --      1.0446                 1.0892                 5.5451
 Frc consts  --      1.4034                 1.5102                 7.7773
 IR Inten    --      4.2946                30.1517                28.1722

                     70                     71                     72
                      A                      A                      A
 Frequencies --   1550.8260              1571.1208              1592.1991
 Red. masses --      1.1030                 3.2284                 5.3174
 Frc consts  --      1.5630                 4.6953                 7.9423
 IR Inten    --      8.2646               111.6784                33.0042

                     73                     74                     75
                      A                      A                      A
 Frequencies --   1638.3147              1660.9050              1729.3634
 Red. masses --      6.3437                 7.6115                 7.7793
 Frc consts  --     10.0320                12.3712                13.7076
 IR Inten    --      6.3144                96.8089              1222.5992

                     76                     77                     78
                      A                      A                      A
 Frequencies --   3037.1496              3062.4149              3090.1069
 Red. masses --      1.0359                 1.0317                 1.1048
 Frc consts  --      5.6296                 5.7010                 6.2154
 IR Inten    --     84.0295                30.2291                30.4703

                     79                     80                     81
                      A                      A                      A
 Frequencies --   3133.9649              3136.1501              3146.6794
 Red. masses --      1.0897                 1.1053                 1.1037
 Frc consts  --      6.3059                 6.4051                 6.4389
 IR Inten    --     25.6035                12.9868                31.2173

                     82                     83                     84
                      A                      A                      A
 Frequencies --   3149.6105              3227.5492              3242.1016
 Red. masses --      1.0997                 1.0878                 1.0970
 Frc consts  --      6.4274                 6.6764                 6.7938
 IR Inten    --     27.6918                 0.4026                 4.4879

                     85                     86                     87
                      A                      A                      A
 Frequencies --   3269.9863              3281.4439              3305.8396
 Red. masses --      1.0909                 1.0971                 1.1049
 Frc consts  --      6.8730                 6.9601                 7.1144
 IR Inten    --      6.6447                 1.1352                 0.6031

 - Thermochemistry -
 -------------------
 Temperature   298.150 Kelvin.  Pressure   1.00000 Atm.
 Atom     1 has atomic number  6 and mass  12.00000

 Molecular mass:   256.10726 amu.
 Principal axes and moments of inertia in atomic units:
                           1         2         3
     Eigenvalues --  2393.507678930.15575**********
           X            0.99984   0.01729  -0.00487
           Y           -0.01726   0.99983   0.00632
           Z            0.00498  -0.00623   0.99997
 This molecule is an asymmetric top.
 Rotational symmetry number  1.
 Warning -- assumption of classical behavior for rotation
           may cause significant error
 Rotational temperatures (Kelvin)      0.03619     0.00970     0.00797
 Rotational constants (GHZ):           0.75402     0.20210     0.16607
 Zero-point vibrational energy     631356.5 (Joules/Mol)
                                  150.89783 (Kcal/Mol)
 Warning -- explicit consideration of  23 degrees of freedom as
           vibrations may cause significant error
 Vibrational temperatures:     41.10    51.66    71.40    94.68   133.54
          (Kelvin)            173.10   201.99   249.16   284.80   291.90
                              308.06   350.56   429.70   462.67   469.61
                              563.05   583.95   611.69   638.19   691.53
                              812.53   862.99   872.05   907.40   956.34
                              987.06  1016.45  1055.55  1084.13  1087.53
                             1108.90  1162.47  1166.12  1174.27  1249.40
                             1278.62  1307.96  1324.68  1396.52  1399.85
                             1410.67  1507.20  1556.36  1558.73  1581.89
                             1592.15  1624.53  1641.01  1656.68  1679.21
                             1697.07  1735.26  1821.14  1857.83  1866.09
                             1930.87  1942.86  2005.88  2041.43  2045.10
                             2083.88  2097.44  2129.41  2154.66  2161.46
                             2167.37  2172.62  2207.10  2219.88  2231.29
                             2260.49  2290.82  2357.17  2389.67  2488.17
                             4369.78  4406.13  4445.97  4509.08  4512.22
                             4527.37  4531.59  4643.72  4664.66  4704.78
                             4721.27  4756.37

 Zero-point correction=                           0.240471 (Hartree/Particle)
 Thermal correction to Energy=                    0.256495
 Thermal correction to Enthalpy=                  0.257439
 Thermal correction to Gibbs Free Energy=         0.195046
 Sum of electronic and zero-point Energies=           -867.965512
 Sum of electronic and thermal Energies=              -867.949488
 Sum of electronic and thermal Enthalpies=            -867.948544
 Sum of electronic and thermal Free Energies=         -868.010937

                     E (Thermal)             CV                S
                      KCal/Mol        Cal/Mol-Kelvin    Cal/Mol-Kelvin
 Total                  160.953             60.407            131.318
 Electronic               0.000              0.000              0.000
 Translational            0.889              2.981             42.521
 Rotational               0.889              2.981             33.807
 Vibrational            159.176             54.445             54.990
 Vibration     1          0.593              1.984              5.927
 Vibration     2          0.594              1.982              5.473
 Vibration     3          0.595              1.978              4.832
 Vibration     4          0.597              1.971              4.275
 Vibration     5          0.602              1.954              3.600
 Vibration     6          0.609              1.932              3.095
 Vibration     7          0.615              1.913              2.799
 Vibration     8          0.627              1.875              2.401
 Vibration     9          0.637              1.843              2.152
 Vibration    10          0.639              1.836              2.107
 Vibration    11          0.644              1.819              2.008
 Vibration    12          0.659              1.773              1.776
 Vibration    13          0.692              1.676              1.424
 Vibration    14          0.707              1.632              1.302
 Vibration    15          0.710              1.623              1.278
 Vibration    16          0.759              1.489              0.995
 Vibration    17          0.771              1.457              0.941
 Vibration    18          0.787              1.416              0.875
 Vibration    19          0.803              1.375              0.815
 Vibration    20          0.837              1.293              0.708
 Vibration    21          0.921              1.108              0.514
 Vibration    22          0.958              1.032              0.450
 Vibration    23          0.965              1.019              0.439

                           ! Non-Optimized Parameters !
 Normal termination of Gaussian 16 at Sun Dec 13 12:55:45 2020.

 ----------------------------------------------------------------------
 # B3LYP/6-311++G(d,p) empiricaldispersion=gd3bj scf=xqc pop=npa geom=c
 heck
 ----------------------------------------------------------------------

 --------------------------------------
 CID_68139840_JID_9239_Energie_neutraal
 --------------------------------------
 Structure from the checkpoint file:  "JID_9239.chk"
 Charge =  0 Multiplicity = 1

 SCF Done:  E(RB3LYP) =  -868.430978499     A.U. after   16 cycles
 Normal termination of Gaussian 16 at Sun Dec 13 13:01:43 2020.

 ----------------------------------------------------------------------
 # B3LYP/6-311++G(d,p) empiricaldispersion=gd3bj scf=xqc pop=npa geom=c
 heck
 ----------------------------------------------------------------------

 ------------------------------------
 CID_68139840_JID_9239_Energie_kation
 ------------------------------------
 Structure from the checkpoint file:  "JID_9239.chk"
 Charge =  1 Multiplicity = 2

 SCF Done:  E(UB3LYP) =  -868.167774243     A.U. after   24 cycles
 Normal termination of Gaussian 16 at Sun Dec 13 13:14:37 2020.
 Gaussian 16:  ES64L-G16RevA.03 25-Dec-2016

 ----------------------------------------------------------------------
 # B3LYP/6-311++G(d,p) empiricaldispersion=gd3bj scf=xqc pop=npa geom=c
 heck
 ----------------------------------------------------------------------

 -----------------------------------
 CID_68139840_JID_9239_Energie_anion
 -----------------------------------
 Structure from the checkpoint file:  "JID_9239.chk"
 Charge = -1 Multiplicity = 2

                         Standard orientation:
 ---------------------------------------------------------------------
 Center     Atomic      Atomic             Coordinates (Angstroms)
 Number     Number       Type             X           Y           Z
 ---------------------------------------------------------------------
      1          6           0       -3.824526   -0.168820    1.343132
      2          7           0       -3.990161   -1.151874    0.279895
      3          6           0       -5.275576   -1.827384    0.199450
      4          6           0       -3.030690   -1.416300   -0.640227
      5          7           0       -1.897036   -0.849415   -0.891180
      6          6           0       -1.535152    0.407055   -0.516837
      7          7           0       -2.256496    1.533548   -0.479788
      8          7           0       -1.429333    2.596703   -0.215928
      9          6           0       -0.203177    2.118596   -0.101143
     10          7           0       -0.214680    0.733793   -0.290277
     11          7           0        0.839540   -0.107347   -0.234796
     12          6           0        1.991840    0.479630    0.013535
     13          6           0        2.142628    1.901561    0.222438
     14          6           0        1.050691    2.716105    0.167766
     15          6           0        3.169369   -0.373324    0.082071
     16          6           0        4.497215   -0.103462    0.306294
     17          6           0        5.183486   -1.355052    0.254009
     18          6           0        4.228028   -2.295252    0.002734
     19          8           0        3.003409   -1.717591   -0.103843
     20          1           0       -4.547657   -0.392179    2.131730
     21          1           0       -3.959679    0.852351    0.973532
     22          1           0       -2.817181   -0.246177    1.761341
     23          1           0       -6.077143   -1.119299   -0.047278
     24          1           0       -5.243062   -2.592147   -0.580088
     25          1           0       -5.519068   -2.308631    1.154202
     26          1           0       -3.254965   -2.306342   -1.231553
     27          1           0        3.126949    2.304723    0.426652
     28          1           0        1.106173    3.787912    0.321052
     29          1           0        4.937892    0.866472    0.485283
     30          1           0        6.242116   -1.527352    0.385057
     31          1           0        4.250723   -3.366572   -0.123992
 ---------------------------------------------------------------------

 SCF Done:  E(UB3LYP) =  -868.451778652     A.U. after   23 cycles

 The electronic state is 2-A.
 Alpha  occ. eigenvalues --  -19.05082 -14.25447 -14.25017 -14.18306 -14.17223
 Alpha  occ. eigenvalues --  -14.17137 -14.16549 -10.14209 -10.13241 -10.11318
 Alpha  occ. eigenvalues --  -10.10203 -10.09204 -10.09013 -10.08298 -10.05824
 Alpha  occ. eigenvalues --  -10.05066 -10.03889 -10.03634 -10.02796  -0.98053
 Alpha  occ. eigenvalues --   -0.93091  -0.87806  -0.83898  -0.79497  -0.70643
 Alpha  occ. eigenvalues --   -0.68090  -0.67426  -0.64362  -0.64016  -0.61759
 Alpha  occ. eigenvalues --   -0.60385  -0.52746  -0.51987  -0.50134  -0.47132
 Alpha  occ. eigenvalues --   -0.45542  -0.43501  -0.42590  -0.41124  -0.40172
 Alpha  occ. eigenvalues --   -0.38780  -0.37623  -0.35864  -0.34482  -0.33566
 Alpha  occ. eigenvalues --   -0.32727  -0.32475  -0.32125  -0.31011  -0.30115
 Alpha  occ. eigenvalues --   -0.29640  -0.27495  -0.26811  -0.26440  -0.25117
 Alpha  occ. eigenvalues --   -0.24142  -0.23295  -0.20267  -0.18787  -0.16642
 Alpha  occ. eigenvalues --   -0.15801  -0.14695  -0.14085  -0.13575  -0.10696
 Alpha  occ. eigenvalues --   -0.09057  -0.07007   0.03477
 Alpha virt. eigenvalues --    0.05642   0.08192   0.08237   0.08846   0.09587
 Alpha virt. eigenvalues --    0.09680   0.10268   0.10474   0.11316   0.11841
 Alpha virt. eigenvalues --    0.12164   0.12598   0.14113   0.14336   0.14549

  Beta  occ. eigenvalues --  -19.04979 -14.25455 -14.24901 -14.18300 -14.17094
  Beta  occ. eigenvalues --  -14.17019 -14.15734 -10.14224 -10.13241 -10.11368
  Beta  occ. eigenvalues --  -10.10201 -10.09211 -10.08852 -10.08341 -10.05692
  Beta  occ. eigenvalues --  -10.05126 -10.03907 -10.03496 -10.02398  -0.97878
  Beta  occ. eigenvalues --   -0.92729  -0.87806  -0.83232  -0.79492  -0.70214
  Beta  occ. eigenvalues --   -0.67611  -0.67271  -0.64355  -0.63673  -0.61474
  Beta  occ. eigenvalues --   -0.60284  -0.52238  -0.51766  -0.50005  -0.47064
  Beta  occ. eigenvalues --   -0.45440  -0.43271  -0.42452  -0.41024  -0.40013
  Beta  occ. eigenvalues --   -0.38782  -0.37447  -0.35631  -0.34047  -0.33199
  Beta  occ. eigenvalues --   -0.32638  -0.32119  -0.32000  -0.30903  -0.29995
  Beta  occ. eigenvalues --   -0.29570  -0.27389  -0.26494  -0.26280  -0.24872
  Beta  occ. eigenvalues --   -0.23991  -0.21950  -0.19771  -0.18325  -0.15895
  Beta  occ. eigenvalues --   -0.15276  -0.14258  -0.13018  -0.12993  -0.10320
  Beta  occ. eigenvalues --   -0.07990  -0.05778
  Beta virt. eigenvalues --    0.05627   0.08170   0.08208   0.08842   0.09571
  Beta virt. eigenvalues --    0.09664   0.09992   0.10450   0.10626   0.11835
  Beta virt. eigenvalues --    0.12042   0.12221   0.12584   0.14113   0.14331

 Mulliken charges and spin densities:
               1          2
     1  C   -0.469150  -0.007980
     2  N    0.012018  -0.001815
     3  C   -0.347560  -0.001686
     4  C    0.014820  -0.014607
     5  N   -0.099113  -0.004443
     6  C   -0.090846  -0.027234
     7  N   -0.122146   0.091497
     8  N   -0.127524   0.015934
     9  C    0.160207  -0.038039
    10  N   -0.205302  -0.000555
    11  N    0.003808   0.429630
    12  C   -0.086843   0.091107
    13  C   -0.387544  -0.014596
    14  C   -0.530872   0.324936
    15  C   -0.256695  -0.017610
    16  C    0.252465   0.096674
    17  C   -0.475146  -0.044276
    18  C    0.051647   0.127441
    19  O    0.039881   0.019360
    20  H    0.084222   0.005518
    21  H    0.219853   0.000808
    22  H    0.214366   0.003371
    23  H    0.161243  -0.000612
    24  H    0.111741   0.001099
    25  H    0.139415   0.001991
    26  H    0.137169   0.000909
    27  H    0.075015  -0.000483
    28  H    0.148117  -0.023547
    29  H    0.119029  -0.006221
    30  H    0.119530   0.002821
    31  H    0.134196  -0.009395
 Sum of Mulliken charges =  -1.00000   1.00000

 Dipole moment (field-independent basis, Debye):
    X=             -4.0708    Y=             -4.3007    Z=              2.3992  Tot=              6.3893
 Quadrupole moment (field-independent basis, Debye-Ang):
   XX=           -132.2891   YY=           -133.8037   ZZ=           -120.1581
   XY=             20.8956   XZ=             -4.6621   YZ=              2.0738

 Summary of Natural Population Analysis:

                                       Natural Population
                Natural  -----------------------------------------------
    Atom  No    Charge         Core      Valence    Rydberg      Total
 -----------------------------------------------------------------------
      C    1   -0.18408      0.99965     2.17731    0.00712     3.18408
      N    2   -0.24572      0.99967     2.73794    0.00811     3.74572
      C    3   -0.16864      0.99966     2.16281    0.00618     3.16864
      C    4    0.16122      0.99962     1.82309    0.01608     2.83878
      N    5   -0.26431      0.99964     2.75468    0.01000     3.76431
      C    6    0.22620      0.99958     1.75472    0.01951     2.77380
      N    7   -0.16490      0.99970     2.64907    0.01613     3.66490
      N    8   -0.17633      0.99969     2.65866    0.01798     3.67633
      C    9    0.14879      0.99958     1.83471    0.01692     2.85121
      N   10   -0.09394      0.99957     2.58034    0.01403     3.59394
      N   11    0.00026      0.99965     2.48945    0.01064     3.49974
      C   12    0.05826      0.99959     1.92709    0.01507     2.94174
      C   13   -0.07984      0.99947     2.07597    0.00440     3.07984
      C   14   -0.04930      0.99958     2.03609    0.01363     3.04930
      C   15    0.14595      0.99944     1.83952    0.01509     2.85405
      C   16   -0.12773      0.99942     2.11802    0.01029     3.12773
      C   17   -0.18082      0.99960     2.17160    0.00962     3.18082
      C   18    0.08024      0.99953     1.90564    0.01458     2.91976
      O   19   -0.21544      0.99986     3.20561    0.00998     4.21544
      H   20    0.08693      0.00000     0.41220    0.00087     0.41307
      H   21    0.11795      0.00000     0.38071    0.00134     0.38205
      H   22    0.10532      0.00000     0.39380    0.00088     0.39468
      H   23    0.08994      0.00000     0.40869    0.00137     0.41006
      H   24    0.09645      0.00000     0.40250    0.00104     0.40355
      H   25    0.08829      0.00000     0.41047    0.00124     0.41171
      H   26    0.07448      0.00000     0.42429    0.00124     0.42552
      H   27    0.09187      0.00000     0.40710    0.00103     0.40813
      H   28    0.09340      0.00000     0.40333    0.00327     0.40660
      H   29    0.10098      0.00000     0.39816    0.00086     0.39902
      H   30    0.09924      0.00000     0.39982    0.00095     0.40076
      H   31    0.08553      0.00000     0.41349    0.00098     0.41447
 =======================================================================
   * Total *    0.00022     18.99250    47.75687    0.25041    66.99978

 Normal termination of Gaussian 16 at Sun Dec 13 13:26:48 2020.
