 Gaussian 16, Revision A.03,

 -----------------------------------------------------------
 # opt freq B3LYP/6-31G(d) empiricaldispersion=gd3bj scf=xqc
 -----------------------------------------------------------

 -------------------------------
 CID_152555149_JID_3078_neutraal
 -------------------------------
 Symbolic Z-matrix:
 Charge =  0 Multiplicity = 1

 SCF Done:  E(RB3LYP) =  -670.373685110     A.U. after   17 cycles
 SCF Done:  E(RB3LYP) =  -670.374253158     A.U. after   16 cycles
 SCF Done:  E(RB3LYP) =  -670.380958986     A.U. after   12 cycles
 SCF Done:  E(RB3LYP) =  -670.386516151     A.U. after   13 cycles
 SCF Done:  E(RB3LYP) =  -670.389945856     A.U. after   15 cycles
 SCF Done:  E(RB3LYP) =  -670.392120907     A.U. after   15 cycles
 SCF Done:  E(RB3LYP) =  -670.395396283     A.U. after   15 cycles
 SCF Done:  E(RB3LYP) =  -670.396663816     A.U. after   15 cycles
 SCF Done:  E(RB3LYP) =  -670.397960284     A.U. after   15 cycles
 SCF Done:  E(RB3LYP) =  -670.398763274     A.U. after   14 cycles
 SCF Done:  E(RB3LYP) =  -670.399217322     A.U. after   11 cycles
 SCF Done:  E(RB3LYP) =  -670.399223352     A.U. after   11 cycles
 SCF Done:  E(RB3LYP) =  -670.399225989     A.U. after    9 cycles
 SCF Done:  E(RB3LYP) =  -670.399227260     A.U. after    9 cycles
 SCF Done:  E(RB3LYP) =  -670.399227646     A.U. after    9 cycles
 SCF Done:  E(RB3LYP) =  -670.399227700     A.U. after    8 cycles
 Optimization completed.
    -- Stationary point found.
 Normal termination of Gaussian 16 at Wed Dec  9 22:25:42 2020.

 --------------------------------------------------------------------
 #N Geom=AllCheck Guess=TCheck SCRF=Check GenChk RB3LYP/6-31G(d) Freq
 --------------------------------------------------------------------

 Structure from the checkpoint file:  "JID_3078.chk"
 -------------------------------
 CID_152555149_JID_3078_neutraal
 -------------------------------
 Charge =  0 Multiplicity = 1

 SCF Done:  E(RB3LYP) =  -670.399227700     A.U. after    1 cycles

  Exact polarizability: 138.291  -6.070 105.712  -4.268   0.683  62.899
 Approx polarizability: 178.764 -22.870 184.905 -15.302  12.436 108.039

                      1                      2                      3
                      A                      A                      A
 Frequencies --     46.4284                59.6748                80.3767
 Red. masses --      9.5521                 6.9345                 4.8425
 Frc consts  --      0.0121                 0.0145                 0.0184
 IR Inten    --      0.7629                 2.5926                 5.1629

                      4                      5                      6
                      A                      A                      A
 Frequencies --    127.7299               150.0369               213.0368
 Red. masses --      5.0362                 6.0887                 2.7897
 Frc consts  --      0.0484                 0.0808                 0.0746
 IR Inten    --      0.8626                14.7836                 0.8902

                      7                      8                      9
                      A                      A                      A
 Frequencies --    222.2682               277.4855               327.5353
 Red. masses --      4.5067                 3.5097                 3.3732
 Frc consts  --      0.1312                 0.1592                 0.2132
 IR Inten    --      0.4255                 2.8086                39.4224

                     10                     11                     12
                      A                      A                      A
 Frequencies --    338.1857               343.7807               366.9291
 Red. masses --      7.7665                 4.1665                 1.6223
 Frc consts  --      0.5233                 0.2901                 0.1287
 IR Inten    --      7.4299                 8.7547                53.7529

                     13                     14                     15
                      A                      A                      A
 Frequencies --    393.6076               437.4021               477.4463
 Red. masses --      3.2540                 1.4078                 4.4917
 Frc consts  --      0.2970                 0.1587                 0.6033
 IR Inten    --     21.6543                 9.5396                 2.0790

                     16                     17                     18
                      A                      A                      A
 Frequencies --    528.3638               556.5190               611.4953
 Red. masses --     13.8766                 2.5243                 6.0403
 Frc consts  --      2.2824                 0.4606                 1.3307
 IR Inten    --     11.0437                 9.0054                 5.1381

                     19                     20                     21
                      A                      A                      A
 Frequencies --    624.6319               708.9704               724.2745
 Red. masses --      2.3700                 3.1050                 8.3758
 Frc consts  --      0.5448                 0.9195                 2.5887
 IR Inten    --    103.8340                23.1953                60.9415

                     22                     23                     24
                      A                      A                      A
 Frequencies --    742.1573               780.1810               798.8016
 Red. masses --      9.7622                 1.5705                 8.3721
 Frc consts  --      3.1680                 0.5632                 3.1475
 IR Inten    --     25.0900               224.0374                 0.6043

                     25                     26                     27
                      A                      A                      A
 Frequencies --    834.1617               897.9484               955.5116
 Red. masses --      1.7218                 1.6622                 4.8633
 Frc consts  --      0.7059                 0.7897                 2.6161
 IR Inten    --    337.3024                 1.3589                18.8459

                     28                     29                     30
                      A                      A                      A
 Frequencies --    994.2218              1019.4019              1111.4293
 Red. masses --      2.5414                 3.0181                 3.6776
 Frc consts  --      1.4801                 1.8479                 2.6766
 IR Inten    --      3.2038                 3.1142                28.1161

                     31                     32                     33
                      A                      A                      A
 Frequencies --   1141.7997              1149.3641              1172.5684
 Red. masses --      1.3459                 1.7796                 3.1610
 Frc consts  --      1.0338                 1.3851                 2.5607
 IR Inten    --      9.7087                 7.3922                18.0301

                     34                     35                     36
                      A                      A                      A
 Frequencies --   1204.5012              1227.0321              1260.8561
 Red. masses --      2.6968                 1.2790                 1.8735
 Frc consts  --      2.3052                 1.1346                 1.7548
 IR Inten    --     27.2656                49.9023                71.5279

                     37                     38                     39
                      A                      A                      A
 Frequencies --   1271.9914              1282.3905              1306.9946
 Red. masses --      5.0201                 2.7462                 2.3913
 Frc consts  --      4.7855                 2.6609                 2.4067
 IR Inten    --     32.8640                32.6710                92.6341

                     40                     41                     42
                      A                      A                      A
 Frequencies --   1396.5624              1431.0580              1476.7424
 Red. masses --      1.5707                 2.2717                 3.3983
 Frc consts  --      1.8050                 2.7410                 4.3664
 IR Inten    --      4.4357               146.2926                96.7898

                     43                     44                     45
                      A                      A                      A
 Frequencies --   1546.5565              1555.4546              1667.6843
 Red. masses --      1.0943                 1.0997                 1.2934
 Frc consts  --      1.5421                 1.5676                 2.1194
 IR Inten    --     15.3158                 8.1494                39.3161

                     46                     47                     48
                      A                      A                      A
 Frequencies --   1703.9281              1754.8565              1803.0533
 Red. masses --      1.7463                 1.8725                 9.9505
 Frc consts  --      2.9872                 3.3975                19.0596
 IR Inten    --    183.1745               218.5499               305.5094

                     49                     50                     51
                      A                      A                      A
 Frequencies --   2242.7347              3045.4467              3054.7592
 Red. masses --     13.9908                 1.0705                 1.0659
 Frc consts  --     41.4618                 5.8497                 5.8602
 IR Inten    --    483.3024                36.5456                38.6987

                     52                     53                     54
                      A                      A                      A
 Frequencies --   3128.9689              3135.8240              3458.4094
 Red. masses --      1.0962                 1.1012                 1.0581
 Frc consts  --      6.3235                 6.3799                 7.4565
 IR Inten    --     27.9121                25.6660               136.6447

                     55                     56                     57
                      A                      A                      A
 Frequencies --   3533.2138              3595.8693              3637.2735
 Red. masses --      1.0486                 1.0885                 1.0966
 Frc consts  --      7.7124                 8.2927                 8.5476
 IR Inten    --     11.7162                43.1454                15.7975

 - Thermochemistry -
 -------------------
 Temperature   298.150 Kelvin.  Pressure   1.00000 Atm.
 Atom     1 has atomic number  6 and mass  12.00000

 Molecular mass:   184.08211 amu.
 Principal axes and moments of inertia in atomic units:
                           1         2         3
     Eigenvalues --  1095.038283669.333594496.55693
           X            0.99975   0.02211   0.00121
           Y           -0.02210   0.99970  -0.01094
           Z           -0.00145   0.01091   0.99994
 This molecule is an asymmetric top.
 Rotational symmetry number  1.
 Warning -- assumption of classical behavior for rotation
           may cause significant error
 Rotational temperatures (Kelvin)      0.07910     0.02360     0.01926
 Rotational constants (GHZ):           1.64811     0.49184     0.40136
 Zero-point vibrational energy     418309.5 (Joules/Mol)
                                   99.97837 (Kcal/Mol)
 Warning -- explicit consideration of  18 degrees of freedom as
           vibrations may cause significant error
 Vibrational temperatures:     66.80    85.86   115.64   183.77   215.87
          (Kelvin)            306.51   319.79   399.24   471.25   486.57
                              494.62   527.93   566.31   629.32   686.94
                              760.20   800.71   879.81   898.71  1020.05
                             1042.07  1067.80  1122.51  1149.30  1200.17
                             1291.95  1374.77  1430.46  1466.69  1599.10
                             1642.80  1653.68  1687.06  1733.01  1765.43
                             1814.09  1830.11  1845.07  1880.47  2009.34
                             2058.97  2124.70  2225.15  2237.95  2399.43
                             2451.57  2524.85  2594.19  3226.79  4381.72
                             4395.12  4501.89  4511.75  4975.88  5083.51
                             5173.65  5233.23

 Zero-point correction=                           0.159326 (Hartree/Particle)
 Thermal correction to Energy=                    0.171336
 Thermal correction to Enthalpy=                  0.172280
 Thermal correction to Gibbs Free Energy=         0.120524
 Sum of electronic and zero-point Energies=           -670.239902
 Sum of electronic and thermal Energies=              -670.227892
 Sum of electronic and thermal Enthalpies=            -670.226948
 Sum of electronic and thermal Free Energies=         -670.278704

                     E (Thermal)             CV                S
                      KCal/Mol        Cal/Mol-Kelvin    Cal/Mol-Kelvin
 Total                  107.515             44.368            108.930
 Electronic               0.000              0.000              0.000
 Translational            0.889              2.981             41.537
 Rotational               0.889              2.981             31.269
 Vibrational            105.737             38.406             36.124
 Vibration     1          0.595              1.979              4.964
 Vibration     2          0.597              1.974              4.468
 Vibration     3          0.600              1.962              3.882
 Vibration     4          0.611              1.925              2.980
 Vibration     5          0.618              1.903              2.672
 Vibration     6          0.644              1.821              2.017
 Vibration     7          0.648              1.807              1.941
 Vibration     8          0.678              1.715              1.549
 Vibration     9          0.711              1.620              1.272
 Vibration    10          0.718              1.599              1.221
 Vibration    11          0.723              1.588              1.195
 Vibration    12          0.740              1.540              1.093
 Vibration    13          0.761              1.484              0.986
 Vibration    14          0.798              1.389              0.835
 Vibration    15          0.834              1.300              0.717
 Vibration    16          0.883              1.187              0.591
 Vibration    17          0.912              1.125              0.531
 Vibration    18          0.971              1.008              0.430

 Optimization completed.
    -- Stationary point found.
 Normal termination of Gaussian 16 at Wed Dec  9 22:30:16 2020.

 ----------------------------------------------------------------------
 # B3LYP/6-311++G(d,p) empiricaldispersion=gd3bj scf=xqc pop=npa geom=c
 heck
 ----------------------------------------------------------------------

 ---------------------------------------
 CID_152555149_JID_3078_Energie_neutraal
 ---------------------------------------
 Structure from the checkpoint file:  "JID_3078.chk"
 Charge =  0 Multiplicity = 1

 SCF Done:  E(RB3LYP) =  -670.603403750     A.U. after   16 cycles
 Normal termination of Gaussian 16 at Wed Dec  9 22:32:07 2020.

 ----------------------------------------------------------------------
 # B3LYP/6-311++G(d,p) empiricaldispersion=gd3bj scf=xqc pop=npa geom=c
 heck
 ----------------------------------------------------------------------

 -------------------------------------
 CID_152555149_JID_3078_Energie_kation
 -------------------------------------
 Structure from the checkpoint file:  "JID_3078.chk"
 Charge =  1 Multiplicity = 2

 SCF Done:  E(UB3LYP) =  -670.312812894     A.U. after   26 cycles
 Normal termination of Gaussian 16 at Wed Dec  9 22:36:26 2020.
 Gaussian 16:  ES64L-G16RevA.03 25-Dec-2016

 ----------------------------------------------------------------------
 # B3LYP/6-311++G(d,p) empiricaldispersion=gd3bj scf=xqc pop=npa geom=c
 heck
 ----------------------------------------------------------------------

 ------------------------------------
 CID_152555149_JID_3078_Energie_anion
 ------------------------------------
 Structure from the checkpoint file:  "JID_3078.chk"
 Charge = -1 Multiplicity = 2

                         Standard orientation:
 ---------------------------------------------------------------------
 Center     Atomic      Atomic             Coordinates (Angstroms)
 Number     Number       Type             X           Y           Z
 ---------------------------------------------------------------------
      1          6           0       -0.187396    2.153543   -0.105634
      2          6           0        1.275022    2.003308    0.327396
      3          7           0        1.550174    0.635889   -0.112107
      4          6           0        0.350507   -0.111358   -0.066498
      5          8           0        0.302300   -1.335415   -0.100515
      6          7           0       -0.683310    0.785605    0.027664
      7          7           0       -1.986742    0.601102   -0.462394
      8          6           0       -2.667464   -0.400881    0.002587
      9          7           0       -2.297993   -1.315247    0.966513
     10          7           0       -3.945762   -0.577462   -0.523427
     11          7           0        2.670092    0.051416    0.554642
     12          7           0        3.177821   -0.871894   -0.120925
     13          7           0        3.754464   -1.738318   -0.582149
     14          1           0       -0.756668    2.834065    0.531106
     15          1           0       -0.277361    2.482939   -1.148614
     16          1           0        1.382622    2.083171    1.417305
     17          1           0        1.946159    2.717094   -0.154643
     18          1           0       -2.832793   -2.175444    0.913956
     19          1           0       -1.297967   -1.517288    0.945271
     20          1           0       -4.240315    0.235829   -1.052441
     21          1           0       -4.637310   -0.842355    0.170336
 ---------------------------------------------------------------------

 SCF Done:  E(UB3LYP) =  -670.604718336     A.U. after   31 cycles

 The electronic state is 2-A.
 Alpha  occ. eigenvalues --  -18.98653 -14.30967 -14.26339 -14.25022 -14.24218
 Alpha  occ. eigenvalues --  -14.22518 -14.21741 -14.21598 -14.20983 -10.18362
 Alpha  occ. eigenvalues --  -10.16926 -10.11470 -10.11243  -0.99715  -0.95824
 Alpha  occ. eigenvalues --   -0.89859  -0.88214  -0.85104  -0.78481  -0.77155
 Alpha  occ. eigenvalues --   -0.70650  -0.64417  -0.55159  -0.53652  -0.47982
 Alpha  occ. eigenvalues --   -0.45538  -0.42966  -0.41690  -0.41461  -0.38211
 Alpha  occ. eigenvalues --   -0.37200  -0.35950  -0.35028  -0.33553  -0.32629
 Alpha  occ. eigenvalues --   -0.31581  -0.30863  -0.30121  -0.29219  -0.28005
 Alpha  occ. eigenvalues --   -0.22889  -0.22089  -0.18705  -0.17347  -0.16551
 Alpha  occ. eigenvalues --   -0.15717  -0.11169  -0.10010   0.04247
 Alpha virt. eigenvalues --    0.05696   0.07300   0.08944   0.09552   0.10082
 Alpha virt. eigenvalues --    0.10809   0.12410   0.12934   0.13300   0.14362
 Alpha virt. eigenvalues --    0.14470   0.15324   0.15764   0.16519   0.16636

  Beta  occ. eigenvalues --  -18.98648 -14.30581 -14.26338 -14.24871 -14.24260
  Beta  occ. eigenvalues --  -14.21947 -14.21677 -14.21573 -14.20979 -10.18348
  Beta  occ. eigenvalues --  -10.16915 -10.11463 -10.11229  -0.99059  -0.95677
  Beta  occ. eigenvalues --   -0.89834  -0.87986  -0.84968  -0.78248  -0.77082
  Beta  occ. eigenvalues --   -0.70479  -0.64357  -0.54910  -0.53599  -0.47851
  Beta  occ. eigenvalues --   -0.45397  -0.42887  -0.41590  -0.41390  -0.37975
  Beta  occ. eigenvalues --   -0.35964  -0.35709  -0.34909  -0.33233  -0.32550
  Beta  occ. eigenvalues --   -0.31212  -0.30243  -0.29904  -0.28849  -0.27796
  Beta  occ. eigenvalues --   -0.22615  -0.21352  -0.18653  -0.17302  -0.16335
  Beta  occ. eigenvalues --   -0.15620  -0.11098  -0.09858
  Beta virt. eigenvalues --    0.06993   0.07526   0.09294   0.09580   0.10276
  Beta virt. eigenvalues --    0.10492   0.11322   0.12721   0.13182   0.13386
  Beta virt. eigenvalues --    0.14472   0.14637   0.15516   0.15740   0.16467

 Mulliken charges and spin densities:
               1          2
     1  C   -0.098359  -0.201252
     2  C   -0.029590  -0.246943
     3  N    0.225630  -0.070798
     4  C    0.166845  -0.150917
     5  O   -0.413431   0.011053
     6  N    0.174847  -0.231345
     7  N   -0.411081   0.185475
     8  C    0.607360  -0.631396
     9  N   -0.275230  -0.072581
    10  N   -0.424042   0.134863
    11  N   -0.766734   0.196718
    12  N    0.466596   0.023517
    13  N   -0.128983   0.262064
    14  H   -0.045630   0.222055
    15  H    0.125991   0.025574
    16  H    0.046554   0.105781
    17  H    0.095440   0.082777
    18  H    0.024840   0.226650
    19  H    0.257794   0.016301
    20  H   -0.017942   0.273911
    21  H   -0.580875   0.838494
 Sum of Mulliken charges =  -1.00000   1.00000

 Dipole moment (field-independent basis, Debye):
    X=              1.8992    Y=              4.7186    Z=              0.1611  Tot=              5.0890
 Quadrupole moment (field-independent basis, Debye-Ang):
   XX=           -157.5371   YY=            -95.2299   ZZ=            -92.6236
   XY=              5.8445   XZ=              2.6577   YZ=             -2.9352

 Summary of Natural Population Analysis:

                                       Natural Population
                Natural  -----------------------------------------------
    Atom  No    Charge         Core      Valence    Rydberg      Total
 -----------------------------------------------------------------------
      C    1   -0.07864      0.99963     2.06931    0.00971     3.07864
      C    2   -0.08310      0.99963     2.07350    0.00996     3.08310
      N    3   -0.17466      0.99963     2.66218    0.01285     3.67466
      C    4    0.40498      0.99962     1.57082    0.02458     2.59502
      O    5   -0.33695      0.99987     3.33092    0.00616     4.33695
      N    6   -0.17600      0.99961     2.66324    0.01315     3.67600
      N    7   -0.22515      0.99963     2.71261    0.01291     3.72515
      C    8    0.30519      0.99968     1.67842    0.01672     2.69481
      N    9   -0.41364      0.99970     2.90399    0.00996     3.91364
      N   10   -0.40445      0.99972     2.89427    0.01046     3.90445
      N   11   -0.15181      0.99972     2.63617    0.01592     3.65181
      N   12    0.14051      0.99971     2.34290    0.01688     3.35949
      N   13    0.04042      0.99982     2.44718    0.01258     3.45958
      H   14    0.09803      0.00000     0.40009    0.00188     0.40197
      H   15    0.09123      0.00000     0.40671    0.00206     0.40877
      H   16    0.09119      0.00000     0.40626    0.00255     0.40881
      H   17    0.09557      0.00000     0.40258    0.00185     0.40443
      H   18    0.18761      0.00000     0.31068    0.00171     0.31239
      H   19    0.20831      0.00000     0.28913    0.00257     0.29169
      H   20    0.19173      0.00000     0.30555    0.00272     0.30827
      H   21    0.18965      0.00000     0.29809    0.01226     0.31035
 =======================================================================
   * Total *    0.00000     12.99596    34.80461    0.19943    48.00000

 Normal termination of Gaussian 16 at Wed Dec  9 22:42:07 2020.
