 Gaussian 16, Revision A.03,

 -----------------------------------------------------------
 # opt freq B3LYP/6-31G(d) empiricaldispersion=gd3bj scf=xqc
 -----------------------------------------------------------

 -------------------------------
 CID_151437260_JID_2946_neutraal
 -------------------------------
 Symbolic Z-matrix:
 Charge =  0 Multiplicity = 1

 SCF Done:  E(RB3LYP) =  -597.774877416     A.U. after   16 cycles
 SCF Done:  E(RB3LYP) =  -597.783603724     A.U. after   16 cycles
 SCF Done:  E(RB3LYP) =  -597.784763150     A.U. after   14 cycles
 SCF Done:  E(RB3LYP) =  -597.785233992     A.U. after   13 cycles
 SCF Done:  E(RB3LYP) =  -597.785360129     A.U. after   13 cycles
 SCF Done:  E(RB3LYP) =  -597.785445957     A.U. after   11 cycles
 SCF Done:  E(RB3LYP) =  -597.785462498     A.U. after   12 cycles
 SCF Done:  E(RB3LYP) =  -597.785466726     A.U. after    9 cycles
 SCF Done:  E(RB3LYP) =  -597.785468206     A.U. after   10 cycles
 SCF Done:  E(RB3LYP) =  -597.785468395     A.U. after    8 cycles
 Optimization completed.
    -- Stationary point found.
 Normal termination of Gaussian 16 at Wed Dec  9 17:42:33 2020.

 --------------------------------------------------------------------
 #N Geom=AllCheck Guess=TCheck SCRF=Check GenChk RB3LYP/6-31G(d) Freq
 --------------------------------------------------------------------

 Structure from the checkpoint file:  "JID_2946.chk"
 -------------------------------
 CID_151437260_JID_2946_neutraal
 -------------------------------
 Charge =  0 Multiplicity = 1

 SCF Done:  E(RB3LYP) =  -597.785468395     A.U. after    1 cycles

  Exact polarizability: 136.857  -5.600 103.372  -2.822   4.059  46.593
 Approx polarizability: 192.167 -19.746 208.244  -6.830  18.924  78.053

                      1                      2                      3
                      A                      A                      A
 Frequencies --     53.3917                65.1259                77.2564
 Red. masses --      9.2888                 6.5627                 3.6390
 Frc consts  --      0.0156                 0.0164                 0.0128
 IR Inten    --      0.0329                 1.0528                 3.7426

                      4                      5                      6
                      A                      A                      A
 Frequencies --    128.4610               188.7815               235.1295
 Red. masses --      6.2432                 4.8581                 2.6697
 Frc consts  --      0.0607                 0.1020                 0.0870
 IR Inten    --      0.9351                 1.5023                 1.6761

                      7                      8                      9
                      A                      A                      A
 Frequencies --    263.3251               286.2194               372.9129
 Red. masses --      1.5680                 4.3960                 6.4889
 Frc consts  --      0.0641                 0.2122                 0.5317
 IR Inten    --      0.5836                 2.9712                 5.0464

                     10                     11                     12
                      A                      A                      A
 Frequencies --    400.8238               430.8766               500.3710
 Red. masses --      6.5215                 4.3267                 4.6722
 Frc consts  --      0.6173                 0.4733                 0.6892
 IR Inten    --     12.0304                 0.8585                10.6845

                     13                     14                     15
                      A                      A                      A
 Frequencies --    525.1948               535.1413               565.6975
 Red. masses --      3.4753                 8.1353                 4.4711
 Frc consts  --      0.5648                 1.3727                 0.8430
 IR Inten    --      1.2967                33.9943                 3.1658

                     16                     17                     18
                      A                      A                      A
 Frequencies --    619.6803               657.9278               749.4766
 Red. masses --      2.6819                 5.3942                 9.2076
 Frc consts  --      0.6068                 1.3757                 3.0473
 IR Inten    --    133.6454                46.4656                26.4058

                     19                     20                     21
                      A                      A                      A
 Frequencies --    803.7291               850.0335               922.8988
 Red. masses --     10.5732                 5.5212                 3.0532
 Frc consts  --      4.0242                 2.3505                 1.5322
 IR Inten    --     17.8476                35.5029                39.1024

                     22                     23                     24
                      A                      A                      A
 Frequencies --    926.4283               967.5232               988.4161
 Red. masses --      1.5613                 1.3597                 6.3930
 Frc consts  --      0.7895                 0.7499                 3.6799
 IR Inten    --     19.0831                 1.1621                20.2488

                     25                     26                     27
                      A                      A                      A
 Frequencies --   1045.1087              1083.9300              1186.7209
 Red. masses --      4.2001                 4.7870                 1.2699
 Frc consts  --      2.7029                 3.3137                 1.0537
 IR Inten    --      7.4519                55.5328                 0.8750

                     28                     29                     30
                      A                      A                      A
 Frequencies --   1217.8827              1250.1258              1270.9007
 Red. masses --      1.5090                 4.3588                 4.8817
 Frc consts  --      1.3187                 4.0135                 4.6457
 IR Inten    --      1.8175                20.8629                50.5346

                     31                     32                     33
                      A                      A                      A
 Frequencies --   1306.5852              1328.0488              1392.8906
 Red. masses --      2.1365                 2.3869                 3.7905
 Frc consts  --      2.1489                 2.4804                 4.3329
 IR Inten    --     28.5049               214.1639                16.1450

                     34                     35                     36
                      A                      A                      A
 Frequencies --   1425.2252              1477.0140              1500.8596
 Red. masses --      2.1034                 2.2714                 1.4169
 Frc consts  --      2.5174                 2.9196                 1.8804
 IR Inten    --     32.4483               198.8583               105.8883

                     37                     38                     39
                      A                      A                      A
 Frequencies --   1520.3216              1521.2819              1535.1619
 Red. masses --      1.8839                 1.0549                 1.0744
 Frc consts  --      2.5655                 1.4383                 1.4918
 IR Inten    --    405.4060                13.2268                 2.7508

                     40                     41                     42
                      A                      A                      A
 Frequencies --   1616.7587              1663.2341              2241.3113
 Red. masses --      5.4907                 5.7959                13.9448
 Frc consts  --      8.4560                 9.4466                41.2730
 IR Inten    --     50.7302                12.4403               378.0856

                     43                     44                     45
                      A                      A                      A
 Frequencies --   3028.7662              3089.0168              3168.9060
 Red. masses --      1.0349                 1.1070                 1.0999
 Frc consts  --      5.5935                 6.2235                 6.5074
 IR Inten    --     45.0955                39.4060                22.5496

                     46                     47                     48
                      A                      A                      A
 Frequencies --   3188.9496              3204.3926              3593.2196
 Red. masses --      1.0917                 1.0906                 1.0763
 Frc consts  --      6.5409                 6.5981                 8.1877
 IR Inten    --     15.5848                20.1864                43.0578

 - Thermochemistry -
 -------------------
 Temperature   298.150 Kelvin.  Pressure   1.00000 Atm.
 Atom     1 has atomic number  6 and mass  12.00000

 Molecular mass:   166.06031 amu.
 Principal axes and moments of inertia in atomic units:
                           1         2         3
     Eigenvalues --   770.713993576.874044276.11666
           X            0.99965   0.02657  -0.00086
           Y           -0.02658   0.99963  -0.00512
           Z            0.00073   0.00514   0.99999
 This molecule is an asymmetric top.
 Rotational symmetry number  1.
 Warning -- assumption of classical behavior for rotation
           may cause significant error
 Rotational temperatures (Kelvin)      0.11238     0.02421     0.02026
 Rotational constants (GHZ):           2.34165     0.50456     0.42205
 Zero-point vibrational energy     340764.9 (Joules/Mol)
                                   81.44475 (Kcal/Mol)
 Warning -- explicit consideration of  16 degrees of freedom as
           vibrations may cause significant error
 Vibrational temperatures:     76.82    93.70   111.15   184.83   271.61
          (Kelvin)            338.30   378.87   411.81   536.54   576.70
                              619.94   719.92   755.64   769.95   813.91
                              891.58   946.61  1078.33  1156.39  1223.01
                             1327.85  1332.92  1392.05  1422.11  1503.68
                             1559.53  1707.43  1752.26  1798.65  1828.54
                             1879.88  1910.77  2004.06  2050.58  2125.09
                             2159.40  2187.40  2188.79  2208.76  2326.16
                             2393.02  3224.75  4357.72  4444.41  4559.35
                             4588.19  4610.41  5169.84

 Zero-point correction=                           0.129790 (Hartree/Particle)
 Thermal correction to Energy=                    0.140319
 Thermal correction to Enthalpy=                  0.141263
 Thermal correction to Gibbs Free Energy=         0.092450
 Sum of electronic and zero-point Energies=           -597.655678
 Sum of electronic and thermal Energies=              -597.645149
 Sum of electronic and thermal Enthalpies=            -597.644205
 Sum of electronic and thermal Free Energies=         -597.693019

                     E (Thermal)             CV                S
                      KCal/Mol        Cal/Mol-Kelvin    Cal/Mol-Kelvin
 Total                   88.052             37.907            102.736
 Electronic               0.000              0.000              0.000
 Translational            0.889              2.981             41.230
 Rotational               0.889              2.981             30.845
 Vibrational             86.274             31.945             30.662
 Vibration     1          0.596              1.976              4.688
 Vibration     2          0.597              1.971              4.296
 Vibration     3          0.599              1.964              3.959
 Vibration     4          0.611              1.925              2.969
 Vibration     5          0.633              1.855              2.240
 Vibration     6          0.655              1.787              1.839
 Vibration     7          0.670              1.740              1.640
 Vibration     8          0.684              1.699              1.496
 Vibration     9          0.744              1.528              1.068
 Vibration    10          0.767              1.468              0.960
 Vibration    11          0.792              1.403              0.856
 Vibration    12          0.856              1.249              0.657
 Vibration    13          0.880              1.194              0.598
 Vibration    14          0.890              1.172              0.576
 Vibration    15          0.922              1.105              0.513
 Vibration    16          0.980              0.990              0.417

 Optimization completed.
    -- Stationary point found.
 Normal termination of Gaussian 16 at Wed Dec  9 17:45:53 2020.

 ----------------------------------------------------------------------
 # B3LYP/6-311++G(d,p) empiricaldispersion=gd3bj scf=xqc pop=npa geom=c
 heck
 ----------------------------------------------------------------------

 ---------------------------------------
 CID_151437260_JID_2946_Energie_neutraal
 ---------------------------------------
 Structure from the checkpoint file:  "JID_2946.chk"
 Charge =  0 Multiplicity = 1

 SCF Done:  E(RB3LYP) =  -597.951813539     A.U. after   16 cycles
 Normal termination of Gaussian 16 at Wed Dec  9 17:48:12 2020.

 ----------------------------------------------------------------------
 # B3LYP/6-311++G(d,p) empiricaldispersion=gd3bj scf=xqc pop=npa geom=c
 heck
 ----------------------------------------------------------------------

 -------------------------------------
 CID_151437260_JID_2946_Energie_kation
 -------------------------------------
 Structure from the checkpoint file:  "JID_2946.chk"
 Charge =  1 Multiplicity = 2

 SCF Done:  E(UB3LYP) =  -597.652708249     A.U. after   24 cycles
 Normal termination of Gaussian 16 at Wed Dec  9 17:51:33 2020.
 Gaussian 16:  ES64L-G16RevA.03 25-Dec-2016

 ----------------------------------------------------------------------
 # B3LYP/6-311++G(d,p) empiricaldispersion=gd3bj scf=xqc pop=npa geom=c
 heck
 ----------------------------------------------------------------------

 ------------------------------------
 CID_151437260_JID_2946_Energie_anion
 ------------------------------------
 Structure from the checkpoint file:  "JID_2946.chk"
 Charge = -1 Multiplicity = 2

                         Standard orientation:
 ---------------------------------------------------------------------
 Center     Atomic      Atomic             Coordinates (Angstroms)
 Number     Number       Type             X           Y           Z
 ---------------------------------------------------------------------
      1          6           0       -3.746766   -1.348205    0.082661
      2          8           0       -3.278950   -0.011405   -0.034045
      3          6           0       -1.932507    0.177922   -0.028016
      4          6           0       -0.954009   -0.811439    0.077828
      5          7           0        0.353812   -0.518724    0.068352
      6          6           0        0.670720    0.769217   -0.033320
      7          7           0       -0.178477    1.806704   -0.129960
      8          6           0       -1.469728    1.499069   -0.133355
      9          7           0        2.027675    1.102720   -0.122352
     10          7           0        2.945367    0.284706    0.604540
     11          7           0        3.227937   -0.766844   -0.012597
     12          7           0        3.577705   -1.778629   -0.399936
     13          1           0       -4.835469   -1.287884    0.060646
     14          1           0       -3.424729   -1.802743    1.028663
     15          1           0       -3.397997   -1.967798   -0.753796
     16          1           0       -1.206272   -1.863862    0.168911
     17          1           0       -2.185801    2.314618   -0.211422
     18          1           0        2.197486    2.070003    0.128234
 ---------------------------------------------------------------------

 SCF Done:  E(UB3LYP) =  -597.953007998     A.U. after   33 cycles
 SCF Done:  E(UB3LYP) =  -597.953007998     a.u. after    1 cycles

 The electronic state is 2-A.
 Alpha  occ. eigenvalues --  -19.03469 -14.29763 -14.22162 -14.21177 -14.20593
 Alpha  occ. eigenvalues --  -14.14928 -14.13728 -10.12127 -10.10649 -10.08583
 Alpha  occ. eigenvalues --  -10.05057 -10.04360  -0.97682  -0.95010  -0.86621
 Alpha  occ. eigenvalues --   -0.82032  -0.73123  -0.72310  -0.64038  -0.58247
 Alpha  occ. eigenvalues --   -0.51530  -0.49248  -0.42731  -0.40679  -0.40493
 Alpha  occ. eigenvalues --   -0.36799  -0.36168  -0.35434  -0.33121  -0.31715
 Alpha  occ. eigenvalues --   -0.29770  -0.28829  -0.28035  -0.26994  -0.23518
 Alpha  occ. eigenvalues --   -0.23404  -0.20681  -0.16732  -0.16453  -0.15193
 Alpha  occ. eigenvalues --   -0.10166  -0.09465  -0.06621   0.06095
 Alpha virt. eigenvalues --    0.07514   0.08616   0.10368   0.10982   0.11675
 Alpha virt. eigenvalues --    0.12101   0.13808   0.14257   0.14721   0.16082
 Alpha virt. eigenvalues --    0.17119   0.17426   0.17670   0.18171   0.19325

  Beta  occ. eigenvalues --  -19.03490 -14.29428 -14.22216 -14.20764 -14.20486
  Beta  occ. eigenvalues --  -14.14719 -14.13356 -10.12120 -10.10691 -10.08690
  Beta  occ. eigenvalues --  -10.04797 -10.03970  -0.97077  -0.95046  -0.86329
  Beta  occ. eigenvalues --   -0.81604  -0.72518  -0.71910  -0.63892  -0.57966
  Beta  occ. eigenvalues --   -0.50801  -0.49100  -0.42369  -0.40459  -0.40420
  Beta  occ. eigenvalues --   -0.36520  -0.36147  -0.34401  -0.32661  -0.31529
  Beta  occ. eigenvalues --   -0.29017  -0.28166  -0.27307  -0.26762  -0.23333
  Beta  occ. eigenvalues --   -0.23224  -0.19902  -0.16062  -0.14732  -0.14542
  Beta  occ. eigenvalues --   -0.09746  -0.09125  -0.05984
  Beta virt. eigenvalues --    0.07455   0.10307   0.10648   0.11346   0.11484
  Beta virt. eigenvalues --    0.12245   0.12896   0.13762   0.14188   0.14895
  Beta virt. eigenvalues --    0.16297   0.17210   0.17501   0.17818   0.18186

 Mulliken charges and spin densities:
               1          2
     1  C   -0.297899  -0.009646
     2  O   -0.204070   0.001349
     3  C   -0.400630  -0.075580
     4  C    0.156300   0.201923
     5  N   -0.166805   0.167571
     6  C   -0.347616  -0.048580
     7  N   -0.188897   0.072004
     8  C   -0.043884   0.317410
     9  N   -0.148261   0.014885
    10  N   -0.576851   0.053731
    11  N    0.395117   0.032410
    12  N   -0.104949   0.242678
    13  H    0.129413   0.001030
    14  H    0.119667   0.014576
    15  H    0.130358   0.004058
    16  H    0.170050  -0.016376
    17  H    0.157259  -0.026440
    18  H    0.221697   0.053000
 Sum of Mulliken charges =  -1.00000   1.00000

 Dipole moment (field-independent basis, Debye):
    X=             -5.5850    Y=             -0.5179    Z=              0.3865  Tot=              5.6223
 Quadrupole moment (field-independent basis, Debye-Ang):
   XX=           -102.8307   YY=            -84.9615   ZZ=            -77.6702
   XY=             15.3032   XZ=             -0.0176   YZ=             -0.6564

 Summary of Natural Population Analysis:

                                       Natural Population
                Natural  -----------------------------------------------
    Atom  No    Charge         Core      Valence    Rydberg      Total
 -----------------------------------------------------------------------
      C    1   -0.09836      0.99961     2.09047    0.00828     3.09836
      O    2   -0.28062      0.99986     3.27069    0.01007     4.28062
      C    3    0.08032      0.99937     1.90813    0.01219     2.91968
      C    4    0.04248      0.99956     1.94550    0.01246     2.95752
      N    5   -0.21930      0.99966     2.70765    0.01198     3.71930
      C    6    0.27067      0.99960     1.70875    0.02097     2.72933
      N    7   -0.24550      0.99967     2.73412    0.01171     3.74550
      C    8    0.09356      0.99958     1.89327    0.01359     2.90644
      N    9   -0.23012      0.99965     2.71594    0.01453     3.73012
      N   10   -0.14840      0.99973     2.63174    0.01694     3.64840
      N   11    0.14359      0.99971     2.33955    0.01715     3.35641
      N   12    0.00434      0.99982     2.48295    0.01289     3.49566
      H   13    0.08447      0.00000     0.41473    0.00080     0.41553
      H   14    0.08073      0.00000     0.41750    0.00178     0.41927
      H   15    0.08070      0.00000     0.41755    0.00175     0.41930
      H   16    0.08078      0.00000     0.41807    0.00115     0.41922
      H   17    0.07846      0.00000     0.41991    0.00162     0.42154
      H   18    0.18221      0.00000     0.31416    0.00364     0.31779
 =======================================================================
   * Total *    0.00000     11.99582    30.83069    0.17349    43.00000

 Normal termination of Gaussian 16 at Wed Dec  9 17:55:39 2020.
