 Gaussian 16, Revision A.03,

 -----------------------------------------------------------
 # opt freq B3LYP/6-31G(d) empiricaldispersion=gd3bj scf=xqc
 -----------------------------------------------------------

 ------------------------------
 CID_141809414_JID_561_neutraal
 ------------------------------
 Symbolic Z-matrix:
 Charge =  0 Multiplicity = 1

 SCF Done:  E(RB3LYP) =  -436.386945214     A.U. after   15 cycles
 SCF Done:  E(RB3LYP) =  -436.393415730     A.U. after   13 cycles
 SCF Done:  E(RB3LYP) =  -436.394518455     A.U. after   13 cycles
 SCF Done:  E(RB3LYP) =  -436.394922801     A.U. after   12 cycles
 SCF Done:  E(RB3LYP) =  -436.395184053     A.U. after   12 cycles
 SCF Done:  E(RB3LYP) =  -436.395330712     A.U. after   11 cycles
 SCF Done:  E(RB3LYP) =  -436.395783216     A.U. after   11 cycles
 SCF Done:  E(RB3LYP) =  -436.396171554     A.U. after   13 cycles
 SCF Done:  E(RB3LYP) =  -436.396178094     A.U. after   11 cycles
 SCF Done:  E(RB3LYP) =  -436.396192448     A.U. after    9 cycles
 SCF Done:  E(RB3LYP) =  -436.396253081     A.U. after   11 cycles
 SCF Done:  E(RB3LYP) =  -436.396261684     A.U. after   10 cycles
 SCF Done:  E(RB3LYP) =  -436.396263573     A.U. after    9 cycles
 SCF Done:  E(RB3LYP) =  -436.396264080     A.U. after    8 cycles
 SCF Done:  E(RB3LYP) =  -436.396264289     A.U. after    8 cycles
 Optimization completed.
    -- Stationary point found.
 Normal termination of Gaussian 16 at Tue Dec  8 12:16:34 2020.

 --------------------------------------------------------------------
 #N Geom=AllCheck Guess=TCheck SCRF=Check GenChk RB3LYP/6-31G(d) Freq
 --------------------------------------------------------------------

 Structure from the checkpoint file:  "JID_561.chk"
 ------------------------------
 CID_141809414_JID_561_neutraal
 ------------------------------
 Charge =  0 Multiplicity = 1

 SCF Done:  E(RB3LYP) =  -436.396264289     A.U. after    1 cycles

  Exact polarizability: 128.476  -7.322  93.465  -4.874  -1.028  50.619
 Approx polarizability: 195.498 -20.585 166.906  -8.305  -3.074  76.137

                      1                      2                      3
                      A                      A                      A
 Frequencies --    100.1460               120.8169               135.8573
 Red. masses --      2.8632                 1.3995                 2.5135
 Frc consts  --      0.0169                 0.0120                 0.0273
 IR Inten    --      4.3661                 1.6793                 3.7230

                      4                      5                      6
                      A                      A                      A
 Frequencies --    234.5575               293.3857               398.0479
 Red. masses --      3.1672                 2.8552                 3.3932
 Frc consts  --      0.1027                 0.1448                 0.3168
 IR Inten    --      7.6490                 1.3571                 4.6961

                      7                      8                      9
                      A                      A                      A
 Frequencies --    426.0935               452.1711               513.0587
 Red. masses --      3.3911                 3.2960                 3.5332
 Frc consts  --      0.3627                 0.3970                 0.5480
 IR Inten    --      2.5909                39.9047                29.9592

                     10                     11                     12
                      A                      A                      A
 Frequencies --    560.4460               628.6816               662.0389
 Red. masses --      5.7306                 3.2744                 1.5577
 Frc consts  --      1.0605                 0.7625                 0.4023
 IR Inten    --      8.8552                10.4318                66.9226

                     13                     14                     15
                      A                      A                      A
 Frequencies --    673.3075               709.1803               744.7132
 Red. masses --      4.2985                 1.8042                 1.4063
 Frc consts  --      1.1481                 0.5346                 0.4595
 IR Inten    --      4.0370               104.7291                47.3373

                     16                     17                     18
                      A                      A                      A
 Frequencies --    789.4780               818.9531               837.4274
 Red. masses --      2.3128                 1.6325                 3.0773
 Frc consts  --      0.8493                 0.6451                 1.2715
 IR Inten    --     68.0235                 6.6397                22.0455

                     19                     20                     21
                      A                      A                      A
 Frequencies --    894.9841               923.5891               961.3979
 Red. masses --      2.8626                 1.7507                 2.5651
 Frc consts  --      1.3510                 0.8799                 1.3969
 IR Inten    --     26.1178                 7.4008                15.0331

                     22                     23                     24
                      A                      A                      A
 Frequencies --   1011.5578              1061.5536              1076.9233
 Red. masses --      2.2564                 1.7330                 1.9864
 Frc consts  --      1.3603                 1.1506                 1.3574
 IR Inten    --     21.2309                11.7467                 4.7661

                     25                     26                     27
                      A                      A                      A
 Frequencies --   1095.3491              1131.7280              1144.4903
 Red. masses --      1.9457                 2.1089                 2.2921
 Frc consts  --      1.3754                 1.5914                 1.7689
 IR Inten    --     10.8208                 0.5128                 9.0136

                     28                     29                     30
                      A                      A                      A
 Frequencies --   1177.1026              1224.8288              1265.0269
 Red. masses --      1.6117                 2.0817                 2.6167
 Frc consts  --      1.3157                 1.8400                 2.4672
 IR Inten    --     12.8440                17.4681                24.7771

                     31                     32                     33
                      A                      A                      A
 Frequencies --   1314.2240              1335.4389              1373.1517
 Red. masses --      1.4574                 1.5195                 1.3672
 Frc consts  --      1.4831                 1.5967                 1.5189
 IR Inten    --     17.1689                40.5760                 9.7178

                     34                     35                     36
                      A                      A                      A
 Frequencies --   1413.9326              1421.7597              1427.4410
 Red. masses --      1.6882                 1.5116                 1.4095
 Frc consts  --      1.9885                 1.8003                 1.6921
 IR Inten    --      5.3179                49.6267                24.0391

                     37                     38                     39
                      A                      A                      A
 Frequencies --   1503.8339              1511.0026              1523.4123
 Red. masses --      1.1204                 1.0495                 3.5902
 Frc consts  --      1.4928                 1.4118                 4.9091
 IR Inten    --     24.5936                 5.1179                60.6251

                     40                     41                     42
                      A                      A                      A
 Frequencies --   1590.4966              1675.2443              1688.3284
 Red. masses --      3.7098                 5.6800                 6.7440
 Frc consts  --      5.5293                 9.3919                11.3261
 IR Inten    --    163.2244                36.8925               198.5264

                     43                     44                     45
                      A                      A                      A
 Frequencies --   2939.3795              3047.6036              3100.1177
 Red. masses --      1.0843                 1.0385                 1.1001
 Frc consts  --      5.5194                 5.6831                 6.2293
 IR Inten    --    109.5008                17.7784                17.8801

                     46                     47                     48
                      A                      A                      A
 Frequencies --   3160.7739              3194.8637              3235.6714
 Red. masses --      1.1003                 1.0901                 1.0939
 Frc consts  --      6.4769                 6.5558                 6.7480
 IR Inten    --     10.9680                10.6774                 7.1944

                     49                     50                     51
                      A                      A                      A
 Frequencies --   3265.1934              3286.8036              3486.1652
 Red. masses --      1.0883                 1.1064                 1.0751
 Frc consts  --      6.8364                 7.0420                 7.6983
 IR Inten    --      0.4207                 7.1095                 8.6341

 - Thermochemistry -
 -------------------
 Temperature   298.150 Kelvin.  Pressure   1.00000 Atm.
 Atom     1 has atomic number  6 and mass  12.00000

 Molecular mass:   135.07965 amu.
 Principal axes and moments of inertia in atomic units:
                           1         2         3
     Eigenvalues --   593.844261584.817482038.84282
           X            0.99998   0.00683   0.00108
           Y           -0.00684   0.99997   0.00401
           Z           -0.00105  -0.00402   0.99999
 This molecule is an asymmetric top.
 Rotational symmetry number  1.
 Warning -- assumption of classical behavior for rotation
           may cause significant error
 Rotational temperatures (Kelvin)      0.14585     0.05465     0.04248
 Rotational constants (GHZ):           3.03908     1.13877     0.88518
 Zero-point vibrational energy     410090.2 (Joules/Mol)
                                   98.01391 (Kcal/Mol)
 Warning -- explicit consideration of  10 degrees of freedom as
           vibrations may cause significant error
 Vibrational temperatures:    144.09   173.83   195.47   337.48   422.12
          (Kelvin)            572.70   613.05   650.57   738.18   806.36
                              904.53   952.53   968.74  1020.35  1071.48
                             1135.88  1178.29  1204.87  1287.68  1328.84
                             1383.24  1455.41  1527.34  1549.45  1575.96
                             1628.30  1646.67  1693.59  1762.26  1820.09
                             1890.88  1921.40  1975.66  2034.33  2045.60
                             2053.77  2163.68  2174.00  2191.85  2288.37
                             2410.30  2429.13  4229.11  4384.82  4460.38
                             4547.65  4596.70  4655.41  4697.88  4728.98
                             5015.81

 Zero-point correction=                           0.156195 (Hartree/Particle)
 Thermal correction to Energy=                    0.164568
 Thermal correction to Enthalpy=                  0.165513
 Thermal correction to Gibbs Free Energy=         0.123019
 Sum of electronic and zero-point Energies=           -436.240069
 Sum of electronic and thermal Energies=              -436.231696
 Sum of electronic and thermal Enthalpies=            -436.230752
 Sum of electronic and thermal Free Energies=         -436.273245

                     E (Thermal)             CV                S
                      KCal/Mol        Cal/Mol-Kelvin    Cal/Mol-Kelvin
 Total                  103.268             32.776             89.435
 Electronic               0.000              0.000              0.000
 Translational            0.889              2.981             40.614
 Rotational               0.889              2.981             29.041
 Vibrational            101.491             26.815             19.780
 Vibration     1          0.604              1.949              3.451
 Vibration     2          0.609              1.932              3.087
 Vibration     3          0.614              1.918              2.861
 Vibration     4          0.654              1.788              1.844
 Vibration     5          0.688              1.686              1.454
 Vibration     6          0.764              1.474              0.970
 Vibration     7          0.788              1.413              0.872
 Vibration     8          0.811              1.356              0.789
 Vibration     9          0.868              1.221              0.626
 Vibration    10          0.916              1.117              0.523

                           ! Non-Optimized Parameters !
 Normal termination of Gaussian 16 at Tue Dec  8 12:22:13 2020.

 ----------------------------------------------------------------------
 # B3LYP/6-311++G(d,p) empiricaldispersion=gd3bj scf=xqc pop=npa geom=c
 heck
 ----------------------------------------------------------------------

 --------------------------------------
 CID_141809414_JID_561_Energie_neutraal
 --------------------------------------
 Structure from the checkpoint file:  "JID_561.chk"
 Charge =  0 Multiplicity = 1

 SCF Done:  E(RB3LYP) =  -436.518578230     A.U. after   16 cycles
 Normal termination of Gaussian 16 at Tue Dec  8 12:24:10 2020.

 ----------------------------------------------------------------------
 # B3LYP/6-311++G(d,p) empiricaldispersion=gd3bj scf=xqc pop=npa geom=c
 heck
 ----------------------------------------------------------------------

 ------------------------------------
 CID_141809414_JID_561_Energie_kation
 ------------------------------------
 Structure from the checkpoint file:  "JID_561.chk"
 Charge =  1 Multiplicity = 2

 SCF Done:  E(UB3LYP) =  -436.260716320     A.U. after   20 cycles
 Normal termination of Gaussian 16 at Tue Dec  8 12:28:06 2020.
 Gaussian 16:  ES64L-G16RevA.03 25-Dec-2016

 ----------------------------------------------------------------------
 # B3LYP/6-311++G(d,p) empiricaldispersion=gd3bj scf=xqc pop=npa geom=c
 heck
 ----------------------------------------------------------------------

 -----------------------------------
 CID_141809414_JID_561_Energie_anion
 -----------------------------------
 Structure from the checkpoint file:  "JID_561.chk"
 Charge = -1 Multiplicity = 2

                         Standard orientation:
 ---------------------------------------------------------------------
 Center     Atomic      Atomic             Coordinates (Angstroms)
 Number     Number       Type             X           Y           Z
 ---------------------------------------------------------------------
      1          6           0       -3.042597   -0.691331   -0.439345
      2          6           0       -1.685738   -0.210513    0.009608
      3          7           0       -0.732456   -1.087774    0.114977
      4          6           0        0.498252   -0.568749    0.643786
      5          7           0        1.662251   -1.347153    0.196964
      6          6           0        2.565277   -0.442086   -0.402390
      7          6           0        2.097723    0.818577   -0.387651
      8          7           0        0.815127    0.814219    0.180818
      9          6           0       -0.210947    1.687836    0.096231
     10          6           0       -1.493050    1.215242    0.196560
     11          1           0       -3.330456   -0.230257   -1.391940
     12          1           0       -3.806129   -0.411952    0.297576
     13          1           0       -3.035788   -1.777176   -0.551715
     14          1           0        0.452933   -0.539168    1.747617
     15          1           0        1.364178   -2.118386   -0.399783
     16          1           0        3.509038   -0.792421   -0.795993
     17          1           0        2.553359    1.734861   -0.733979
     18          1           0        0.039416    2.729825   -0.084829
     19          1           0       -2.334536    1.895777    0.162942
 ---------------------------------------------------------------------

 SCF Done:  E(UB3LYP) =  -436.503538731     A.U. after   33 cycles
 SCF Done:  E(UB3LYP) =  -436.503538731     a.u. after    1 cycles

 The electronic state is 2-A.
 Alpha  occ. eigenvalues --  -14.23044 -14.20341 -14.15843 -10.13969 -10.08455
 Alpha  occ. eigenvalues --  -10.08444 -10.08410 -10.08068 -10.05224 -10.03188
 Alpha  occ. eigenvalues --   -0.89131  -0.78973  -0.78196  -0.65003  -0.64844
 Alpha  occ. eigenvalues --   -0.58949  -0.53594  -0.48792  -0.48184  -0.42177
 Alpha  occ. eigenvalues --   -0.40092  -0.36901  -0.35491  -0.33567  -0.31649
 Alpha  occ. eigenvalues --   -0.30636  -0.29962  -0.29465  -0.27489  -0.25761
 Alpha  occ. eigenvalues --   -0.25026  -0.20832  -0.17974  -0.13654  -0.11907
 Alpha  occ. eigenvalues --   -0.06335   0.05258
 Alpha virt. eigenvalues --    0.07407   0.07904   0.08351   0.10003   0.10601
 Alpha virt. eigenvalues --    0.10843   0.11818   0.12382   0.13188   0.13298
 Alpha virt. eigenvalues --    0.15056   0.16335   0.16767   0.17313   0.18140

  Beta  occ. eigenvalues --  -14.23016 -14.20330 -14.15690 -10.13962 -10.08398
  Beta  occ. eigenvalues --  -10.08320 -10.08228 -10.08029 -10.05223 -10.03198
  Beta  occ. eigenvalues --   -0.89015  -0.78846  -0.77966  -0.64776  -0.64729
  Beta  occ. eigenvalues --   -0.58862  -0.53476  -0.48668  -0.47991  -0.42004
  Beta  occ. eigenvalues --   -0.39931  -0.36796  -0.35354  -0.33482  -0.31491
  Beta  occ. eigenvalues --   -0.30501  -0.29866  -0.29345  -0.27399  -0.25644
  Beta  occ. eigenvalues --   -0.24794  -0.20474  -0.17500  -0.13428  -0.11387
  Beta  occ. eigenvalues --   -0.06111
  Beta virt. eigenvalues --    0.07828   0.08320   0.09192   0.09491   0.10644
  Beta virt. eigenvalues --    0.10874   0.11056   0.11794   0.13033   0.13315
  Beta virt. eigenvalues --    0.13706   0.15035   0.16259   0.16728   0.17491

 Mulliken charges and spin densities:
               1          2
     1  C    0.190582  -0.789606
     2  C   -0.111462   0.123160
     3  N   -0.140630   0.125703
     4  C   -0.305819  -0.324378
     5  N   -0.111479   0.044807
     6  C    0.628425  -0.788908
     7  C    0.498075  -0.558143
     8  N   -0.071592   0.157049
     9  C    1.111421  -1.055274
    10  C   -0.378457   0.292638
    11  H    0.123369   0.017104
    12  H   -0.041996   0.177354
    13  H    0.049377   0.077413
    14  H    0.156247   0.023925
    15  H    0.212582   0.018166
    16  H   -0.484172   0.646842
    17  H   -0.977092   1.144423
    18  H   -0.916619   1.073491
    19  H   -0.430761   0.594234
 Sum of Mulliken charges =  -1.00000   1.00000

 Dipole moment (field-independent basis, Debye):
    X=             -2.6791    Y=             -5.4126    Z=              0.1617  Tot=              6.0415
 Quadrupole moment (field-independent basis, Debye-Ang):
   XX=           -110.3243   YY=           -104.7599   ZZ=            -79.0148
   XY=             -5.5192   XZ=              4.6022   YZ=              3.4782

 Summary of Natural Population Analysis:

                                       Natural Population
                Natural  -----------------------------------------------
    Atom  No    Charge         Core      Valence    Rydberg      Total
 -----------------------------------------------------------------------
      C    1   -0.29855      0.99963     2.29386    0.00506     3.29855
      C    2    0.14659      0.99958     1.83813    0.01570     2.85341
      N    3   -0.27153      0.99965     2.76068    0.01119     3.77153
      C    4    0.18539      0.99964     1.79881    0.01616     2.81461
      N    5   -0.33135      0.99972     2.81939    0.01223     3.83135
      C    6   -0.01936      0.99956     2.00680    0.01300     3.01936
      C    7   -0.03080      0.99951     2.01831    0.01298     3.03080
      N    8   -0.22776      0.99965     2.71614    0.01197     3.72776
      C    9    0.08586      0.99954     1.90107    0.01353     2.91414
      C   10   -0.21071      0.99952     2.19898    0.01220     3.21071
      H   11    0.10049      0.00000     0.39844    0.00106     0.39951
      H   12    0.10141      0.00000     0.39723    0.00136     0.39859
      H   13    0.10401      0.00000     0.39439    0.00160     0.39599
      H   14    0.07059      0.00000     0.42748    0.00193     0.42941
      H   15    0.18535      0.00000     0.31220    0.00245     0.31465
      H   16    0.09963      0.00000     0.39897    0.00139     0.40037
      H   17    0.10825      0.00000     0.38765    0.00410     0.39175
      H   18    0.09845      0.00000     0.39752    0.00403     0.40155
      H   19    0.10402      0.00000     0.39455    0.00143     0.39598
 =======================================================================
   * Total *   -0.00000      9.99601    25.86062    0.14337    36.00000

 Normal termination of Gaussian 16 at Tue Dec  8 12:39:54 2020.
