 Gaussian 16, Revision A.03,

 -----------------------------------------------------------
 # opt freq B3LYP/6-31G(d) empiricaldispersion=gd3bj scf=xqc
 -----------------------------------------------------------

 ------------------------------
 CID_20210436_JID_5933_neutraal
 ------------------------------
 Symbolic Z-matrix:
 Charge =  0 Multiplicity = 1

 SCF Done:  E(RB3LYP) =  -742.130415184     A.U. after   15 cycles
 SCF Done:  E(RB3LYP) =  -742.133343278     A.U. after   13 cycles
 SCF Done:  E(RB3LYP) =  -742.133534032     A.U. after   13 cycles
 SCF Done:  E(RB3LYP) =  -742.134968562     A.U. after   13 cycles
 SCF Done:  E(RB3LYP) =  -742.135482566     A.U. after   13 cycles
 SCF Done:  E(RB3LYP) =  -742.135720204     A.U. after   12 cycles
 SCF Done:  E(RB3LYP) =  -742.135773524     A.U. after   12 cycles
 SCF Done:  E(RB3LYP) =  -742.135803607     A.U. after   11 cycles
 SCF Done:  E(RB3LYP) =  -742.135827856     A.U. after   12 cycles
 SCF Done:  E(RB3LYP) =  -742.135835158     A.U. after   11 cycles
 SCF Done:  E(RB3LYP) =  -742.135847692     A.U. after   10 cycles
 SCF Done:  E(RB3LYP) =  -742.135848080     A.U. after    9 cycles
 SCF Done:  E(RB3LYP) =  -742.135848254     A.U. after    8 cycles
 SCF Done:  E(RB3LYP) =  -742.135848309     A.U. after    7 cycles
 SCF Done:  E(RB3LYP) =  -742.135848333     A.U. after    7 cycles
 Optimization completed.
    -- Stationary point found.
 Normal termination of Gaussian 16 at Thu Dec 10 17:38:38 2020.

 --------------------------------------------------------------------
 #N Geom=AllCheck Guess=TCheck SCRF=Check GenChk RB3LYP/6-31G(d) Freq
 --------------------------------------------------------------------

 Structure from the checkpoint file:  "JID_5933.chk"
 ------------------------------
 CID_20210436_JID_5933_neutraal
 ------------------------------
 Charge =  0 Multiplicity = 1

 SCF Done:  E(RB3LYP) =  -742.135848333     A.U. after    1 cycles

  Exact polarizability: 161.915  -0.098 127.658   5.299  -3.670  65.497
 Approx polarizability: 231.304  -0.914 213.176   9.421  -9.836 108.676

                      1                      2                      3
                      A                      A                      A
 Frequencies --     28.3683                35.7843                59.4493
 Red. masses --      5.5722                10.9203                 7.3073
 Frc consts  --      0.0026                 0.0082                 0.0152
 IR Inten    --      3.0273                 2.1248                 4.7378

                      4                      5                      6
                      A                      A                      A
 Frequencies --     93.6603               116.2822               148.1997
 Red. masses --      6.0872                 3.5710                 3.1877
 Frc consts  --      0.0315                 0.0284                 0.0412
 IR Inten    --      0.2850                 3.3445                 2.6206

                      7                      8                      9
                      A                      A                      A
 Frequencies --    165.7036               177.6809               209.9882
 Red. masses --      1.1225                 5.1334                 6.3620
 Frc consts  --      0.0182                 0.0955                 0.1653
 IR Inten    --      0.5788                 2.5078                 2.0813

                     10                     11                     12
                      A                      A                      A
 Frequencies --    246.8719               296.6959               309.1163
 Red. masses --      5.2326                 6.4378                 7.5101
 Frc consts  --      0.1879                 0.3339                 0.4228
 IR Inten    --     17.4641                 6.0325                 1.7935

                     13                     14                     15
                      A                      A                      A
 Frequencies --    334.5854               372.6775               380.9327
 Red. masses --      5.1294                 5.1245                 3.8318
 Frc consts  --      0.3383                 0.4193                 0.3276
 IR Inten    --      1.5205                 0.0020                 0.0091

                     16                     17                     18
                      A                      A                      A
 Frequencies --    446.0289               474.7683               521.6847
 Red. masses --      5.6495                 3.4065                 5.5003
 Frc consts  --      0.6622                 0.4524                 0.8820
 IR Inten    --      1.0234                 4.7878                 3.3777

                     19                     20                     21
                      A                      A                      A
 Frequencies --    566.8730               606.4174               622.7597
 Red. masses --      6.2229                 6.7957                 1.3510
 Frc consts  --      1.1782                 1.4724                 0.3087
 IR Inten    --     32.0104                25.8570                51.3735

                     22                     23                     24
                      A                      A                      A
 Frequencies --    654.0600               667.2430               721.7807
 Red. masses --      5.1330                 4.3152                 3.7994
 Frc consts  --      1.2938                 1.1319                 1.1662
 IR Inten    --     24.6793                 1.8925                23.9163

                     25                     26                     27
                      A                      A                      A
 Frequencies --    734.0857               760.7436               784.1684
 Red. masses --      3.5517                 4.7793                 3.1267
 Frc consts  --      1.1277                 1.6296                 1.1328
 IR Inten    --     25.5275                13.1838                37.2422

                     28                     29                     30
                      A                      A                      A
 Frequencies --    852.5839               860.1563               915.8195
 Red. masses --      1.7040                 1.7273                 5.6145
 Frc consts  --      0.7298                 0.7529                 2.7745
 IR Inten    --     12.4748                23.2462                20.1353

                     31                     32                     33
                      A                      A                      A
 Frequencies --    955.7348               990.2735              1047.5213
 Red. masses --      4.1991                 1.2953                 2.6232
 Frc consts  --      2.2599                 0.7484                 1.6959
 IR Inten    --     18.7176                 0.4189                27.0248

                     34                     35                     36
                      A                      A                      A
 Frequencies --   1060.9178              1079.1059              1124.5800
 Red. masses --      2.9549                 5.2876                 4.5771
 Frc consts  --      1.9596                 3.6277                 3.4106
 IR Inten    --     41.3885                91.4341                11.9192

                     37                     38                     39
                      A                      A                      A
 Frequencies --   1146.4040              1184.5515              1207.6451
 Red. masses --      1.6457                 1.2517                 1.5526
 Frc consts  --      1.2743                 1.0348                 1.3341
 IR Inten    --    214.9580                 1.2662                55.2234

                     40                     41                     42
                      A                      A                      A
 Frequencies --   1228.8038              1233.7449              1285.1936
 Red. masses --      1.7137                 1.8228                 2.0113
 Frc consts  --      1.5245                 1.6347                 1.9573
 IR Inten    --     46.6337               296.5535               106.1701

                     43                     44                     45
                      A                      A                      A
 Frequencies --   1306.2013              1309.9222              1377.5400
 Red. masses --      1.7803                 1.5373                 4.7282
 Frc consts  --      1.7896                 1.5542                 5.2863
 IR Inten    --     61.0958               111.1757                61.6538

                     46                     47                     48
                      A                      A                      A
 Frequencies --   1394.7238              1417.5276              1468.6557
 Red. masses --      2.2451                 1.4662                 2.4846
 Frc consts  --      2.5732                 1.7358                 3.1575
 IR Inten    --     74.1495                11.7267               142.8653

                     49                     50                     51
                      A                      A                      A
 Frequencies --   1503.8882              1513.2296              1517.7497
 Red. masses --      1.1583                 1.3859                 1.0699
 Frc consts  --      1.5435                 1.8698                 1.4521
 IR Inten    --      5.1692                12.4846                 9.1433

                     52                     53                     54
                      A                      A                      A
 Frequencies --   1531.4555              1548.6731              1627.1676
 Red. masses --      1.0520                 2.7449                 8.1755
 Frc consts  --      1.4537                 3.8788                12.7535
 IR Inten    --     13.5449                40.9539                42.8896

                     55                     56                     57
                      A                      A                      A
 Frequencies --   1664.0371              1805.5745              2374.2140
 Red. masses --      6.1486                 9.3649                12.5900
 Frc consts  --     10.0312                17.9881                41.8134
 IR Inten    --    295.5170               349.0642                 0.1825

                     58                     59                     60
                      A                      A                      A
 Frequencies --   3039.2319              3053.6688              3114.0745
 Red. masses --      1.0358                 1.0670                 1.1020
 Frc consts  --      5.6372                 5.8621                 6.2964
 IR Inten    --     45.6416                18.4549                28.6928

                     61                     62                     63
                      A                      A                      A
 Frequencies --   3133.9249              3164.9244              3223.8414
 Red. masses --      1.0968                 1.1034                 1.0886
 Frc consts  --      6.3467                 6.5122                 6.6661
 IR Inten    --      3.3596                27.1950                 0.9288

                     64                     65                     66
                      A                      A                      A
 Frequencies --   3237.8194              3241.5501              3683.7002
 Red. masses --      1.0944                 1.0905                 1.0638
 Frc consts  --      6.7595                 6.7513                 8.5050
 IR Inten    --      2.3203                 3.5251                68.0503

 - Thermochemistry -
 -------------------
 Temperature   298.150 Kelvin.  Pressure   1.00000 Atm.
 Atom     1 has atomic number  6 and mass  12.00000

 Molecular mass:   207.05316 amu.
 Principal axes and moments of inertia in atomic units:
                           1         2         3
     Eigenvalues --  1611.977644867.058456133.53045
           X            0.99985   0.01481   0.00950
           Y           -0.01484   0.99989   0.00282
           Z           -0.00946  -0.00296   0.99995
 This molecule is an asymmetric top.
 Rotational symmetry number  1.
 Warning -- assumption of classical behavior for rotation
           may cause significant error
 Rotational temperatures (Kelvin)      0.05373     0.01780     0.01412
 Rotational constants (GHZ):           1.11958     0.37081     0.29424
 Zero-point vibrational energy     472303.3 (Joules/Mol)
                                  112.88319 (Kcal/Mol)
 Warning -- explicit consideration of  20 degrees of freedom as
           vibrations may cause significant error
 Vibrational temperatures:     40.82    51.49    85.53   134.76   167.30
          (Kelvin)            213.23   238.41   255.64   302.13   355.19
                              426.88   444.75   481.39   536.20   548.08
                              641.74   683.09   750.59   815.60   872.50
                              896.01   941.05   960.01  1038.48  1056.19
                             1094.54  1128.24  1226.68  1237.57  1317.66
                             1375.09  1424.78  1507.15  1526.42  1552.59
                             1618.02  1649.42  1704.31  1737.53  1767.97
                             1775.08  1849.11  1879.33  1884.69  1981.97
                             2006.70  2039.51  2113.07  2163.76  2177.20
                             2183.70  2203.42  2228.20  2341.13  2394.18
                             2597.82  3415.96  4372.78  4393.55  4480.46
                             4509.02  4553.62  4638.39  4658.50  4663.87
                             5300.02

 Zero-point correction=                           0.179891 (Hartree/Particle)
 Thermal correction to Energy=                    0.193892
 Thermal correction to Enthalpy=                  0.194836
 Thermal correction to Gibbs Free Energy=         0.137421
 Sum of electronic and zero-point Energies=           -741.955958
 Sum of electronic and thermal Energies=              -741.941956
 Sum of electronic and thermal Enthalpies=            -741.941012
 Sum of electronic and thermal Free Energies=         -741.998427

                     E (Thermal)             CV                S
                      KCal/Mol        Cal/Mol-Kelvin    Cal/Mol-Kelvin
 Total                  121.669             50.731            120.840
 Electronic               0.000              0.000              0.000
 Translational            0.889              2.981             41.887
 Rotational               0.889              2.981             32.243
 Vibrational            119.892             44.770             46.711
 Vibration     1          0.593              1.984              5.940
 Vibration     2          0.594              1.982              5.480
 Vibration     3          0.597              1.974              4.475
 Vibration     4          0.603              1.954              3.582
 Vibration     5          0.608              1.936              3.161
 Vibration     6          0.618              1.905              2.695
 Vibration     7          0.624              1.885              2.484
 Vibration     8          0.628              1.870              2.353
 Vibration     9          0.642              1.826              2.044
 Vibration    10          0.661              1.768              1.753
 Vibration    11          0.690              1.680              1.435
 Vibration    12          0.698              1.656              1.367
 Vibration    13          0.716              1.606              1.238
 Vibration    14          0.744              1.528              1.069
 Vibration    15          0.751              1.511              1.035
 Vibration    16          0.805              1.370              0.808
 Vibration    17          0.831              1.306              0.724
 Vibration    18          0.877              1.202              0.606
 Vibration    19          0.923              1.103              0.510
 Vibration    20          0.965              1.018              0.439

 Optimization completed.
    -- Stationary point found.
 Normal termination of Gaussian 16 at Thu Dec 10 17:45:29 2020.

 ----------------------------------------------------------------------
 # B3LYP/6-311++G(d,p) empiricaldispersion=gd3bj scf=xqc pop=npa geom=c
 heck
 ----------------------------------------------------------------------

 --------------------------------------
 CID_20210436_JID_5933_Energie_neutraal
 --------------------------------------
 Structure from the checkpoint file:  "JID_5933.chk"
 Charge =  0 Multiplicity = 1

 SCF Done:  E(RB3LYP) =  -742.352666044     A.U. after   16 cycles
 Normal termination of Gaussian 16 at Thu Dec 10 17:48:10 2020.

 ----------------------------------------------------------------------
 # B3LYP/6-311++G(d,p) empiricaldispersion=gd3bj scf=xqc pop=npa geom=c
 heck
 ----------------------------------------------------------------------

 ------------------------------------
 CID_20210436_JID_5933_Energie_kation
 ------------------------------------
 Structure from the checkpoint file:  "JID_5933.chk"
 Charge =  1 Multiplicity = 2

 SCF Done:  E(UB3LYP) =  -742.026760173     A.U. after   27 cycles
 Normal termination of Gaussian 16 at Thu Dec 10 17:53:24 2020.
 Gaussian 16:  ES64L-G16RevA.03 25-Dec-2016

 ----------------------------------------------------------------------
 # B3LYP/6-311++G(d,p) empiricaldispersion=gd3bj scf=xqc pop=npa geom=c
 heck
 ----------------------------------------------------------------------

 -----------------------------------
 CID_20210436_JID_5933_Energie_anion
 -----------------------------------
 Structure from the checkpoint file:  "JID_5933.chk"
 Charge = -1 Multiplicity = 2

                         Standard orientation:
 ---------------------------------------------------------------------
 Center     Atomic      Atomic             Coordinates (Angstroms)
 Number     Number       Type             X           Y           Z
 ---------------------------------------------------------------------
      1          6           0        1.035923    2.683940    0.286264
      2          8           0        1.007731    1.721656   -0.771897
      3          6           0        0.590662    0.474501   -0.395402
      4          6           0        1.484995   -0.538114   -0.002610
      5          6           0        0.954544   -1.804914    0.307066
      6          6           0       -0.401735   -2.064495    0.251802
      7          6           0       -1.277033   -1.042044   -0.137835
      8          6           0       -0.784046    0.219751   -0.462600
      9          8           0       -2.603784   -1.388780   -0.173951
     10          6           0       -3.540620   -0.429057   -0.622495
     11          6           0       -3.745792    0.668885    0.341665
     12          7           0       -3.898060    1.535280    1.097429
     13          6           0        2.959469   -0.408888    0.104036
     14          8           0        3.702679   -1.344716    0.336185
     15          8           0        3.441047    0.847039   -0.058689
     16          1           0        1.339474    3.627289   -0.170724
     17          1           0        1.763448    2.397487    1.052498
     18          1           0        0.042185    2.795116    0.739019
     19          1           0        1.652750   -2.582400    0.595542
     20          1           0       -0.805731   -3.040548    0.495849
     21          1           0       -1.422503    1.038952   -0.767375
     22          1           0       -3.249570   -0.006862   -1.593146
     23          1           0       -4.480441   -0.971633   -0.750562
     24          1           0        4.407223    0.756650    0.044368
 ---------------------------------------------------------------------

 SCF Done:  E(UB3LYP) =  -742.357298072     A.U. after   33 cycles
 SCF Done:  E(UB3LYP) =  -742.357298072     a.u. after    1 cycles

 The electronic state is 2-A.
 Alpha  occ. eigenvalues --  -19.05972 -19.03292 -19.01797 -18.95977 -14.22729
 Alpha  occ. eigenvalues --  -10.17320 -10.14833 -10.12311 -10.10868 -10.10600
 Alpha  occ. eigenvalues --  -10.10316 -10.05178 -10.04937 -10.04838 -10.04324
 Alpha  occ. eigenvalues --   -0.97762  -0.97152  -0.93681  -0.87415  -0.82083
 Alpha  occ. eigenvalues --   -0.73508  -0.67713  -0.63455  -0.62450  -0.57902
 Alpha  occ. eigenvalues --   -0.53097  -0.48813  -0.47727  -0.44580  -0.42753
 Alpha  occ. eigenvalues --   -0.40520  -0.38623  -0.37476  -0.36202  -0.34975
 Alpha  occ. eigenvalues --   -0.33793  -0.32389  -0.31476  -0.31302  -0.29721
 Alpha  occ. eigenvalues --   -0.28986  -0.28016  -0.27311  -0.26039  -0.25583
 Alpha  occ. eigenvalues --   -0.24543  -0.23864  -0.22870  -0.21120  -0.19048
 Alpha  occ. eigenvalues --   -0.15828  -0.14455  -0.13277  -0.11719   0.04256
 Alpha virt. eigenvalues --    0.06121   0.07978   0.08597   0.09147   0.09669
 Alpha virt. eigenvalues --    0.10061   0.10694   0.11371   0.11783   0.12423
 Alpha virt. eigenvalues --    0.13010   0.14066   0.14389   0.14857   0.15873

  Beta  occ. eigenvalues --  -19.05927 -19.03227 -19.01798 -18.95733 -14.22719
  Beta  occ. eigenvalues --  -10.17278 -10.14580 -10.12305 -10.10559 -10.10544
  Beta  occ. eigenvalues --  -10.10091 -10.05254 -10.04920 -10.04803 -10.04214
  Beta  occ. eigenvalues --   -0.97608  -0.96884  -0.93590  -0.87043  -0.82063
  Beta  occ. eigenvalues --   -0.73242  -0.67503  -0.63230  -0.62167  -0.57797
  Beta  occ. eigenvalues --   -0.52664  -0.48644  -0.47568  -0.44391  -0.42602
  Beta  occ. eigenvalues --   -0.40390  -0.38438  -0.37349  -0.36048  -0.34700
  Beta  occ. eigenvalues --   -0.33632  -0.32214  -0.31327  -0.30372  -0.29369
  Beta  occ. eigenvalues --   -0.28845  -0.27765  -0.27154  -0.25873  -0.25458
  Beta  occ. eigenvalues --   -0.24346  -0.23785  -0.22716  -0.20667  -0.18076
  Beta  occ. eigenvalues --   -0.15777  -0.14223  -0.12734  -0.10598
  Beta virt. eigenvalues --    0.07090   0.07876   0.08745   0.09284   0.09722
  Beta virt. eigenvalues --    0.09852   0.09971   0.11091   0.11337   0.11863
  Beta virt. eigenvalues --    0.12489   0.13010   0.14069   0.14277   0.14897

 Mulliken charges and spin densities:
               1          2
     1  C   -0.145001  -0.142334
     2  O   -0.119625   0.001755
     3  C   -0.190698  -0.482201
     4  C    0.956796  -0.043378
     5  C   -0.280179   0.407315
     6  C   -0.965366   0.145460
     7  C   -1.287724   0.849429
     8  C    0.914162  -0.623054
     9  O   -0.059849   0.020997
    10  C    0.062296  -0.426164
    11  C    0.767099  -0.455244
    12  N   -0.366288   0.019038
    13  C    0.366083   0.049661
    14  O   -0.409736   0.088644
    15  O   -0.262714   0.014222
    16  H    0.070034   0.061690
    17  H    0.093756   0.046166
    18  H    0.085305   0.035472
    19  H    0.174144   0.003584
    20  H    0.118762   0.024900
    21  H    0.157711   0.018839
    22  H   -0.214067   0.417491
    23  H   -0.734379   0.962941
    24  H    0.269475   0.004771
 Sum of Mulliken charges =  -1.00000   1.00000

 Dipole moment (field-independent basis, Debye):
    X=              1.8697    Y=              1.6505    Z=              0.0270  Tot=              2.4941
 Quadrupole moment (field-independent basis, Debye-Ang):
   XX=           -152.1532   YY=           -109.0760   ZZ=           -104.1332
   XY=             10.8164   XZ=              0.9749   YZ=             -0.8894

 Summary of Natural Population Analysis:

                                       Natural Population
                Natural  -----------------------------------------------
    Atom  No    Charge         Core      Valence    Rydberg      Total
 -----------------------------------------------------------------------
      C    1   -0.09217      0.99959     2.08479    0.00778     3.09217
      O    2   -0.28975      0.99986     3.28013    0.00976     4.28975
      C    3    0.21835      0.99936     1.76796    0.01433     2.78165
      C    4   -0.09753      0.99941     2.08904    0.00909     3.09753
      C    5   -0.04288      0.99956     2.03478    0.00854     3.04288
      C    6   -0.15040      0.99953     2.14194    0.00894     3.15040
      C    7    0.21429      0.99938     1.77283    0.01350     2.78571
      C    8   -0.18914      0.99948     2.18124    0.00843     3.18914
      O    9   -0.26420      0.99986     3.25478    0.00957     4.26420
      C   10   -0.06389      0.99948     2.05076    0.01364     3.06389
      C   11    0.14403      0.99965     1.83994    0.01638     2.85597
      N   12   -0.17524      0.99979     2.66403    0.01142     3.67524
      C   13    0.42710      0.99967     1.54861    0.02463     2.57290
      O   14   -0.31114      0.99987     3.30549    0.00578     4.31114
      O   15   -0.34614      0.99988     3.33926    0.00700     4.34614
      H   16    0.08383      0.00000     0.41493    0.00123     0.41617
      H   17    0.08643      0.00000     0.41181    0.00176     0.41357
      H   18    0.08041      0.00000     0.41810    0.00149     0.41959
      H   19    0.10817      0.00000     0.39091    0.00092     0.39183
      H   20    0.10212      0.00000     0.39693    0.00094     0.39788
      H   21    0.10481      0.00000     0.39307    0.00212     0.39519
      H   22    0.10910      0.00000     0.38818    0.00273     0.39090
      H   23    0.11466      0.00000     0.38284    0.00250     0.38534
      H   24    0.22919      0.00000     0.26630    0.00451     0.27081
 =======================================================================
   * Total *    0.00000     14.99437    38.81864    0.18699    54.00000

 Normal termination of Gaussian 16 at Thu Dec 10 17:59:46 2020.
