 Gaussian 16, Revision A.03,

 -----------------------------------------------------------
 # opt freq B3LYP/6-31G(d) empiricaldispersion=gd3bj scf=xqc
 -----------------------------------------------------------

 ------------------------------
 CID_65099948_JID_2174_neutraal
 ------------------------------
 Symbolic Z-matrix:
 Charge =  0 Multiplicity = 1

 SCF Done:  E(RB3LYP) =  -859.093831573     A.U. after   15 cycles
 SCF Done:  E(RB3LYP) =  -859.098239943     A.U. after   11 cycles
 SCF Done:  E(RB3LYP) =  -859.098868685     A.U. after   11 cycles
 SCF Done:  E(RB3LYP) =  -859.099078357     A.U. after   11 cycles
 SCF Done:  E(RB3LYP) =  -859.099192344     A.U. after   11 cycles
 SCF Done:  E(RB3LYP) =  -859.099235497     A.U. after   11 cycles
 SCF Done:  E(RB3LYP) =  -859.099243133     A.U. after   10 cycles
 SCF Done:  E(RB3LYP) =  -859.099245106     A.U. after    8 cycles
 SCF Done:  E(RB3LYP) =  -859.099245491     A.U. after    8 cycles
 Optimization completed.
    -- Stationary point found.
 Normal termination of Gaussian 16 at Wed Dec  9 16:50:40 2020.

 --------------------------------------------------------------------
 #N Geom=AllCheck Guess=TCheck SCRF=Check GenChk RB3LYP/6-31G(d) Freq
 --------------------------------------------------------------------

 Structure from the checkpoint file:  "JID_2174.chk"
 ------------------------------
 CID_65099948_JID_2174_neutraal
 ------------------------------
 Charge =  0 Multiplicity = 1

 SCF Done:  E(RB3LYP) =  -859.099245491     A.U. after    1 cycles

  Exact polarizability: 157.020   2.171 120.044   2.255  -1.182  79.940
 Approx polarizability: 217.695  10.367 196.168   3.025  -3.677 124.040

                      1                      2                      3
                      A                      A                      A
 Frequencies --     56.4049                66.7040               130.6269
 Red. masses --      4.3174                 3.6740                 4.1877
 Frc consts  --      0.0081                 0.0096                 0.0421
 IR Inten    --      0.8373                 0.2254                 0.2838

                      4                      5                      6
                      A                      A                      A
 Frequencies --    167.2519               212.0108               224.7679
 Red. masses --      2.4913                 1.4066                 2.3038
 Frc consts  --      0.0411                 0.0373                 0.0686
 IR Inten    --      2.0497                 0.9952                 3.6126

                      7                      8                      9
                      A                      A                      A
 Frequencies --    294.7251               301.6501               356.3861
 Red. masses --      4.8344                 2.5236                 2.9306
 Frc consts  --      0.2474                 0.1353                 0.2193
 IR Inten    --      1.9852                 0.3722                 3.2298

                     10                     11                     12
                      A                      A                      A
 Frequencies --    393.0841               438.3352               454.9000
 Red. masses --      2.1006                 3.3102                 2.5684
 Frc consts  --      0.1912                 0.3747                 0.3131
 IR Inten    --      2.7019                 5.0733                 8.7351

                     13                     14                     15
                      A                      A                      A
 Frequencies --    461.6524               527.7635               578.1482
 Red. masses --      3.9736                 2.4859                 5.3288
 Frc consts  --      0.4990                 0.4079                 1.0494
 IR Inten    --      2.5495                 2.1087                 5.1870

                     16                     17                     18
                      A                      A                      A
 Frequencies --    643.2784               651.6300               658.0978
 Red. masses --      1.6675                 2.3028                 2.6033
 Frc consts  --      0.4066                 0.5761                 0.6643
 IR Inten    --      1.9422                 2.4007                14.1839

                     19                     20                     21
                      A                      A                      A
 Frequencies --    727.0131               769.3288               795.8803
 Red. masses --      1.9823                 1.7371                 3.4618
 Frc consts  --      0.6173                 0.6057                 1.2919
 IR Inten    --      5.2461                65.6794                12.4249

                     22                     23                     24
                      A                      A                      A
 Frequencies --    812.5469               845.1771               868.8083
 Red. masses --      2.6857                 2.5799                 3.5198
 Frc consts  --      1.0447                 1.0858                 1.5654
 IR Inten    --    117.5392                16.4999                22.9814

                     25                     26                     27
                      A                      A                      A
 Frequencies --    878.0536               893.1086               916.2028
 Red. masses --      1.3056                 3.2153                 1.8904
 Frc consts  --      0.5931                 1.5111                 0.9349
 IR Inten    --      0.1860                 4.0601                 3.3658

                     28                     29                     30
                      A                      A                      A
 Frequencies --    930.0838               961.9594               989.8154
 Red. masses --      1.7501                 2.1174                 1.9491
 Frc consts  --      0.8920                 1.1544                 1.1251
 IR Inten    --     18.7217                 9.7819                 3.8266

                     31                     32                     33
                      A                      A                      A
 Frequencies --   1027.2260              1078.3094              1090.3463
 Red. masses --      2.0487                 1.8163                 1.7166
 Frc consts  --      1.2737                 1.2443                 1.2024
 IR Inten    --     32.0805                 8.3589                15.6522

                     34                     35                     36
                      A                      A                      A
 Frequencies --   1101.3332              1125.2320              1173.2982
 Red. masses --      1.9417                 1.1707                 1.9956
 Frc consts  --      1.3876                 0.8733                 1.6186
 IR Inten    --     15.1190                 2.8593                22.4507

                     37                     38                     39
                      A                      A                      A
 Frequencies --   1181.4617              1202.6073              1232.9669
 Red. masses --      2.0304                 3.6839                 1.4925
 Frc consts  --      1.6698                 3.1391                 1.3368
 IR Inten    --      2.6779                12.9081                63.4155

                     40                     41                     42
                      A                      A                      A
 Frequencies --   1262.8711              1276.7819              1306.6371
 Red. masses --      1.3602                 1.3818                 1.3704
 Frc consts  --      1.2781                 1.3272                 1.3785
 IR Inten    --     33.7980                50.4921                 4.5279

                     43                     44                     45
                      A                      A                      A
 Frequencies --   1340.1101              1361.8992              1380.1680
 Red. masses --      1.4472                 1.4895                 1.2928
 Frc consts  --      1.5313                 1.6277                 1.4509
 IR Inten    --      2.2720                10.1225                 1.1333

                     46                     47                     48
                      A                      A                      A
 Frequencies --   1396.8322              1411.9873              1430.4850
 Red. masses --      1.2683                 1.5067                 1.3568
 Frc consts  --      1.4580                 1.7699                 1.6359
 IR Inten    --     17.0800                 3.8451                14.3068

                     49                     50                     51
                      A                      A                      A
 Frequencies --   1435.9766              1440.5340              1492.0364
 Red. masses --      1.3678                 3.6268                 5.6193
 Frc consts  --      1.6618                 4.4343                 7.3704
 IR Inten    --     33.9349                33.8095                25.0302

                     52                     53                     54
                      A                      A                      A
 Frequencies --   1507.0584              1510.3526              1518.5380
 Red. masses --      1.1574                 1.0959                 1.0968
 Frc consts  --      1.5488                 1.4730                 1.4901
 IR Inten    --      3.9092                 0.9077                 7.0614

                     55                     56                     57
                      A                      A                      A
 Frequencies --   1525.8220              1530.1263              1542.8173
 Red. masses --      1.1036                 1.0988                 1.0599
 Frc consts  --      1.5139                 1.5157                 1.4865
 IR Inten    --      0.6173                14.2883                 2.8491

                     58                     59                     60
                      A                      A                      A
 Frequencies --   1610.8578              2918.5144              2939.4958
 Red. masses --      5.9691                 1.0729                 1.0740
 Frc consts  --      9.1258                 5.3841                 5.4677
 IR Inten    --    102.3693                47.9882                89.4929

                     61                     62                     63
                      A                      A                      A
 Frequencies --   3053.0537              3060.1147              3065.7028
 Red. masses --      1.0833                 1.0427                 1.0579
 Frc consts  --      5.9491                 5.7528                 5.8580
 IR Inten    --     42.8132                24.3805                30.7717

                     64                     65                     66
                      A                      A                      A
 Frequencies --   3090.9219              3107.3397              3116.6216
 Red. masses --      1.0870                 1.1064                 1.0880
 Frc consts  --      6.1185                 6.2942                 6.2264
 IR Inten    --     31.6779                30.9186                17.0228

                     67                     68                     69
                      A                      A                      A
 Frequencies --   3128.0320              3146.6977              3227.1764
 Red. masses --      1.0990                 1.1034                 1.0903
 Frc consts  --      6.3355                 6.4369                 6.6902
 IR Inten    --     33.5631                28.0884                 4.8580

                     70                     71                     72
                      A                      A                      A
 Frequencies --   3272.0716              3288.1742              3463.4765
 Red. masses --      1.0971                 1.0929                 1.0737
 Frc consts  --      6.9205                 6.9624                 7.5883
 IR Inten    --      1.1570                 4.0261                 3.0972

 - Thermochemistry -
 -------------------
 Temperature   298.150 Kelvin.  Pressure   1.00000 Atm.
 Atom     1 has atomic number  6 and mass  12.00000

 Molecular mass:   182.08777 amu.
 Principal axes and moments of inertia in atomic units:
                           1         2         3
     Eigenvalues --   863.749334100.308534669.15042
           X            1.00000  -0.00073  -0.00246
           Y            0.00072   0.99999  -0.00521
           Z            0.00246   0.00521   0.99998
 This molecule is an asymmetric top.
 Rotational symmetry number  1.
 Warning -- assumption of classical behavior for rotation
           may cause significant error
 Rotational temperatures (Kelvin)      0.10028     0.02112     0.01855
 Rotational constants (GHZ):           2.08943     0.44015     0.38652
 Zero-point vibrational energy     588427.9 (Joules/Mol)
                                  140.63764 (Kcal/Mol)
 Warning -- explicit consideration of  15 degrees of freedom as
           vibrations may cause significant error
 Vibrational temperatures:     81.15    95.97   187.94   240.64   305.04
          (Kelvin)            323.39   424.04   434.01   512.76   565.56
                              630.67   654.50   664.21   759.33   831.83
                              925.53   937.55   946.86  1046.01  1106.89
                             1145.09  1169.07  1216.02  1250.02  1263.32
                             1284.98  1318.21  1338.18  1384.04  1424.12
                             1477.95  1551.45  1568.77  1584.57  1618.96
                             1688.11  1699.86  1730.28  1773.96  1816.99
                             1837.00  1879.96  1928.12  1959.47  1985.75
                             2009.73  2031.53  2058.15  2066.05  2072.61
                             2146.71  2168.32  2173.06  2184.84  2195.32
                             2201.51  2219.77  2317.67  4199.09  4229.28
                             4392.66  4402.82  4410.86  4447.15  4470.77
                             4484.12  4500.54  4527.40  4643.19  4707.78
                             4730.95  4983.17

 Zero-point correction=                           0.224120 (Hartree/Particle)
 Thermal correction to Energy=                    0.235112
 Thermal correction to Enthalpy=                  0.236056
 Thermal correction to Gibbs Free Energy=         0.187005
 Sum of electronic and zero-point Energies=           -858.875125
 Sum of electronic and thermal Energies=              -858.864134
 Sum of electronic and thermal Enthalpies=            -858.863190
 Sum of electronic and thermal Free Energies=         -858.912240

                     E (Thermal)             CV                S
                      KCal/Mol        Cal/Mol-Kelvin    Cal/Mol-Kelvin
 Total                  147.535             43.707            103.235
 Electronic               0.000              0.000              0.000
 Translational            0.889              2.981             41.504
 Rotational               0.889              2.981             31.181
 Vibrational            145.757             37.746             30.549
 Vibration     1          0.596              1.975              4.579
 Vibration     2          0.598              1.970              4.248
 Vibration     3          0.612              1.923              2.937
 Vibration     4          0.624              1.883              2.466
 Vibration     5          0.643              1.823              2.026
 Vibration     6          0.649              1.803              1.920
 Vibration     7          0.689              1.684              1.447
 Vibration     8          0.694              1.671              1.408
 Vibration     9          0.732              1.562              1.138
 Vibration    10          0.760              1.485              0.988
 Vibration    11          0.799              1.387              0.832
 Vibration    12          0.813              1.350              0.781
 Vibration    13          0.819              1.335              0.761
 Vibration    14          0.883              1.189              0.592
 Vibration    15          0.935              1.079              0.489

                           ! Non-Optimized Parameters !
 Normal termination of Gaussian 16 at Wed Dec  9 16:57:06 2020.

 ----------------------------------------------------------------------
 # B3LYP/6-311++G(d,p) empiricaldispersion=gd3bj scf=xqc pop=npa geom=c
 heck
 ----------------------------------------------------------------------

 --------------------------------------
 CID_65099948_JID_2174_Energie_neutraal
 --------------------------------------
 Structure from the checkpoint file:  "JID_2174.chk"
 Charge =  0 Multiplicity = 1

 SCF Done:  E(RB3LYP) =  -859.253331693     A.U. after   15 cycles
 Normal termination of Gaussian 16 at Wed Dec  9 17:00:11 2020.

 ----------------------------------------------------------------------
 # B3LYP/6-311++G(d,p) empiricaldispersion=gd3bj scf=xqc pop=npa geom=c
 heck
 ----------------------------------------------------------------------

 ------------------------------------
 CID_65099948_JID_2174_Energie_kation
 ------------------------------------
 Structure from the checkpoint file:  "JID_2174.chk"
 Charge =  1 Multiplicity = 2

 SCF Done:  E(UB3LYP) =  -858.984388497     A.U. after   22 cycles
 Normal termination of Gaussian 16 at Wed Dec  9 17:06:21 2020.
 Gaussian 16:  ES64L-G16RevA.03 25-Dec-2016

 ----------------------------------------------------------------------
 # B3LYP/6-311++G(d,p) empiricaldispersion=gd3bj scf=xqc pop=npa geom=c
 heck
 ----------------------------------------------------------------------

 -----------------------------------
 CID_65099948_JID_2174_Energie_anion
 -----------------------------------
 Structure from the checkpoint file:  "JID_2174.chk"
 Charge = -1 Multiplicity = 2

                         Standard orientation:
 ---------------------------------------------------------------------
 Center     Atomic      Atomic             Coordinates (Angstroms)
 Number     Number       Type             X           Y           Z
 ---------------------------------------------------------------------
      1          6           0        2.884717    1.561598   -0.774258
      2          6           0        2.645006    0.742853    0.497250
      3          6           0        1.154433    0.701786    0.873691
      4          7           0        0.401462   -0.109797   -0.090823
      5          6           0        0.908592   -1.475793   -0.158497
      6          6           0        2.400242   -1.463278   -0.509929
      7          7           0        3.212049   -0.611771    0.363280
      8          6           0       -0.996717    0.027870   -0.038345
      9          6           0       -1.907061   -1.000068    0.053626
     10         16           0       -3.548752   -0.424633    0.008511
     11          6           0       -3.008782    1.220607   -0.107727
     12          6           0       -1.648939    1.309531   -0.130473
     13          1           0        3.935424    1.496015   -1.070497
     14          1           0        2.633199    2.613954   -0.600739
     15          1           0        2.261814    1.205187   -1.599536
     16          1           0        3.183102    1.223593    1.323703
     17          1           0        1.043021    0.285253    1.893304
     18          1           0        0.739605    1.712683    0.890484
     19          1           0        0.347890   -2.016079   -0.928526
     20          1           0        0.753330   -2.006653    0.802646
     21          1           0        2.518294   -1.112754   -1.540947
     22          1           0        2.798497   -2.483026   -0.467360
     23          1           0        3.239201   -1.037261    1.290160
     24          1           0       -1.714824   -2.057367    0.152548
     25          1           0       -3.727601    2.025127   -0.180292
     26          1           0       -1.114447    2.245791   -0.240349
 ---------------------------------------------------------------------

 SCF Done:  E(UB3LYP) =  -859.239046177     A.U. after   33 cycles
 SCF Done:  E(UB3LYP) =  -859.239046177     a.u. after    1 cycles

 The electronic state is 2-A.
 Alpha  occ. eigenvalues --  -88.77667 -14.22205 -14.19136 -10.11148 -10.10318
 Alpha  occ. eigenvalues --  -10.09419 -10.09212 -10.09176 -10.08847 -10.08762
 Alpha  occ. eigenvalues --  -10.07859 -10.05136  -7.86273  -5.82567  -5.82207
 Alpha  occ. eigenvalues --   -5.81861  -0.85415  -0.79998  -0.76832  -0.67541
 Alpha  occ. eigenvalues --   -0.64055  -0.62884  -0.60307  -0.55613  -0.53221
 Alpha  occ. eigenvalues --   -0.46901  -0.46125  -0.44470  -0.43344  -0.37594
 Alpha  occ. eigenvalues --   -0.36304  -0.35867  -0.34950  -0.34115  -0.31654
 Alpha  occ. eigenvalues --   -0.30565  -0.29909  -0.28893  -0.28485  -0.27350
 Alpha  occ. eigenvalues --   -0.26728  -0.25389  -0.24577  -0.23813  -0.22815
 Alpha  occ. eigenvalues --   -0.18404  -0.14791  -0.12616  -0.10227   0.04527
 Alpha virt. eigenvalues --    0.06514   0.07183   0.07896   0.08163   0.08502
 Alpha virt. eigenvalues --    0.09592   0.10254   0.10582   0.11085   0.11321
 Alpha virt. eigenvalues --    0.11599   0.12974   0.13185   0.13674   0.13968

  Beta  occ. eigenvalues --  -88.77664 -14.22202 -14.19116 -10.11146 -10.10305
  Beta  occ. eigenvalues --  -10.09404 -10.09186 -10.09150 -10.08817 -10.08742
  Beta  occ. eigenvalues --  -10.07846 -10.05112  -7.86270  -5.82565  -5.82204
  Beta  occ. eigenvalues --   -5.81853  -0.85390  -0.79956  -0.76806  -0.67499
  Beta  occ. eigenvalues --   -0.64029  -0.62842  -0.60261  -0.55565  -0.53164
  Beta  occ. eigenvalues --   -0.46855  -0.46080  -0.44398  -0.43303  -0.37533
  Beta  occ. eigenvalues --   -0.36273  -0.35824  -0.34915  -0.34073  -0.31622
  Beta  occ. eigenvalues --   -0.30525  -0.29879  -0.28852  -0.28449  -0.27312
  Beta  occ. eigenvalues --   -0.26692  -0.25360  -0.24538  -0.23772  -0.22765
  Beta  occ. eigenvalues --   -0.18364  -0.14738  -0.12581  -0.10174
  Beta virt. eigenvalues --    0.06840   0.07315   0.08018   0.08154   0.08716
  Beta virt. eigenvalues --    0.09068   0.10075   0.10850   0.11045   0.11533
  Beta virt. eigenvalues --    0.11605   0.11756   0.13213   0.13481   0.13967

 Mulliken charges and spin densities:
               1          2
     1  C    1.168964  -1.677718
     2  C   -0.742786   0.562324
     3  C    0.231717  -0.705563
     4  N    0.351211   0.046727
     5  C   -0.253387   0.194486
     6  C    1.660584  -2.315050
     7  N   -0.208120   0.172555
     8  C    0.944583  -2.215400
     9  C   -0.713807   1.748722
    10  S   -0.127352  -0.380178
    11  C    0.512317  -0.868784
    12  C   -0.999359   1.075967
    13  H    0.072489   0.092104
    14  H   -0.219010   0.346031
    15  H    0.066664   0.090494
    16  H   -0.637644   0.854647
    17  H   -0.281891   0.438952
    18  H   -0.039138   0.166848
    19  H    0.009317   0.132581
    20  H   -0.174410   0.329220
    21  H    0.147017   0.014788
    22  H   -0.513429   0.705768
    23  H   -0.130836   0.374952
    24  H   -0.451209   0.729534
    25  H   -0.202075   0.445007
    26  H   -0.470411   0.640984
 Sum of Mulliken charges =  -1.00000   1.00000

 Dipole moment (field-independent basis, Debye):
    X=             -4.5724    Y=              0.1670    Z=             -2.4996  Tot=              5.2137
 Quadrupole moment (field-independent basis, Debye-Ang):
   XX=           -144.3995   YY=           -131.1141   ZZ=           -112.6102
   XY=              2.0436   XZ=             -7.0310   YZ=              0.7347

 Summary of Natural Population Analysis:

                                       Natural Population
                Natural  -----------------------------------------------
    Atom  No    Charge         Core      Valence    Rydberg      Total
 -----------------------------------------------------------------------
      C    1   -0.29167      0.99964     2.28500    0.00703     3.29167
      C    2   -0.01692      0.99960     2.00281    0.01451     3.01692
      C    3   -0.08752      0.99958     2.07623    0.01171     3.08752
      N    4   -0.26511      0.99965     2.75403    0.01143     3.76511
      C    5   -0.09485      0.99961     2.08321    0.01203     3.09485
      C    6   -0.09226      0.99962     2.08033    0.01230     3.09226
      N    7   -0.33903      0.99975     2.82557    0.01371     3.83903
      C    8    0.06751      0.99945     1.92072    0.01233     2.93249
      C    9   -0.22302      0.99948     2.21254    0.01100     3.22302
      S   10    0.18739      4.99947     2.79005    0.02310     7.81261
      C   11   -0.19034      0.99954     2.18008    0.01073     3.19034
      C   12   -0.12995      0.99949     2.11908    0.01138     3.12995
      H   13    0.10217      0.00000     0.39676    0.00107     0.39783
      H   14    0.10058      0.00000     0.39826    0.00116     0.39942
      H   15    0.09993      0.00000     0.39872    0.00134     0.40007
      H   16    0.09812      0.00000     0.39978    0.00210     0.40188
      H   17    0.08750      0.00000     0.41051    0.00199     0.41250
      H   18    0.10195      0.00000     0.39597    0.00208     0.39805
      H   19    0.10123      0.00000     0.39710    0.00167     0.39877
      H   20    0.08477      0.00000     0.41248    0.00275     0.41523
      H   21    0.09060      0.00000     0.40799    0.00140     0.40940
      H   22    0.09876      0.00000     0.39993    0.00131     0.40124
      H   23    0.17510      0.00000     0.32103    0.00387     0.32490
      H   24    0.11476      0.00000     0.38392    0.00132     0.38524
      H   25    0.10871      0.00000     0.39031    0.00098     0.39129
      H   26    0.11160      0.00000     0.38703    0.00137     0.38840
 =======================================================================
   * Total *   -0.00000     15.99488    32.82943    0.17569    49.00000

 Normal termination of Gaussian 16 at Wed Dec  9 17:16:19 2020.
