 Gaussian 16, Revision A.03,

 -----------------------------------------------------------
 # opt freq B3LYP/6-31G(d) empiricaldispersion=gd3bj scf=xqc
 -----------------------------------------------------------

 -------------------------------
 CID_112741992_JID_8785_neutraal
 -------------------------------
 Symbolic Z-matrix:
 Charge =  0 Multiplicity = 1

 SCF Done:  E(RB3LYP) =  -750.981007686     A.U. after   14 cycles
 SCF Done:  E(RB3LYP) =  -750.989262153     A.U. after   12 cycles
 SCF Done:  E(RB3LYP) =  -750.989950669     A.U. after   11 cycles
 SCF Done:  E(RB3LYP) =  -750.990116023     A.U. after   12 cycles
 SCF Done:  E(RB3LYP) =  -750.990345397     A.U. after   11 cycles
 SCF Done:  E(RB3LYP) =  -750.990357075     A.U. after    9 cycles
 SCF Done:  E(RB3LYP) =  -750.990363641     A.U. after    9 cycles
 SCF Done:  E(RB3LYP) =  -750.990365152     A.U. after    7 cycles
 SCF Done:  E(RB3LYP) =  -750.990365660     A.U. after    8 cycles
 SCF Done:  E(RB3LYP) =  -750.990365872     A.U. after    7 cycles
 Optimization completed.
    -- Stationary point found.
 Normal termination of Gaussian 16 at Fri Dec 11 21:07:48 2020.

 --------------------------------------------------------------------
 #N Geom=AllCheck Guess=TCheck SCRF=Check GenChk RB3LYP/6-31G(d) Freq
 --------------------------------------------------------------------

 Structure from the checkpoint file:  "JID_8785.chk"
 -------------------------------
 CID_112741992_JID_8785_neutraal
 -------------------------------
 Charge =  0 Multiplicity = 1

 SCF Done:  E(RB3LYP) =  -750.990365872     A.U. after    1 cycles

  Exact polarizability: 211.613   7.569 162.592  13.333 -14.177 148.865
 Approx polarizability: 283.596  16.139 245.603  25.388 -34.719 233.206

                      1                      2                      3
                      A                      A                      A
 Frequencies --     41.8841                50.9193                62.7103
 Red. masses --      2.7348                 3.5739                 3.7219
 Frc consts  --      0.0028                 0.0055                 0.0086
 IR Inten    --      0.0497                 0.2405                 0.3679

                      4                      5                      6
                      A                      A                      A
 Frequencies --     77.6855               108.3886               130.3152
 Red. masses --      3.2503                 2.9002                 2.9550
 Frc consts  --      0.0116                 0.0201                 0.0296
 IR Inten    --      0.0256                 0.8332                 0.0783

                      7                      8                      9
                      A                      A                      A
 Frequencies --    171.5729               192.1463               198.6100
 Red. masses --      1.1272                 2.2686                 1.5981
 Frc consts  --      0.0195                 0.0493                 0.0371
 IR Inten    --      0.2218                 0.3519                 0.3591

                     10                     11                     12
                      A                      A                      A
 Frequencies --    202.0605               212.1788               226.4712
 Red. masses --      1.2641                 1.7644                 2.7720
 Frc consts  --      0.0304                 0.0468                 0.0838
 IR Inten    --      0.9091                 2.4331                 1.6061

                     13                     14                     15
                      A                      A                      A
 Frequencies --    235.8435               249.9892               258.8799
 Red. masses --      1.8867                 2.0490                 1.4181
 Frc consts  --      0.0618                 0.0754                 0.0560
 IR Inten    --      1.1392                 0.1027                 0.3214

                     16                     17                     18
                      A                      A                      A
 Frequencies --    263.0516               275.4518               328.5824
 Red. masses --      1.3730                 2.4815                 2.7462
 Frc consts  --      0.0560                 0.1109                 0.1747
 IR Inten    --      1.1656                 2.0301                 3.6402

                     19                     20                     21
                      A                      A                      A
 Frequencies --    347.3963               367.1058               395.8375
 Red. masses --      2.6869                 2.7271                 2.3111
 Frc consts  --      0.1911                 0.2165                 0.2134
 IR Inten    --      1.0263                 2.1213                 4.3619

                     22                     23                     24
                      A                      A                      A
 Frequencies --    419.1399               424.0682               443.6205
 Red. masses --      2.2109                 2.8571                 2.6652
 Frc consts  --      0.2288                 0.3027                 0.3090
 IR Inten    --      1.6837                 3.6282                 6.1733

                     25                     26                     27
                      A                      A                      A
 Frequencies --    489.0474               508.3854               531.6638
 Red. masses --      2.6233                 3.1984                 3.8136
 Frc consts  --      0.3697                 0.4870                 0.6351
 IR Inten    --      3.2600                 8.2795                 1.5772

                     28                     29                     30
                      A                      A                      A
 Frequencies --    536.7801               546.1289               572.8373
 Red. masses --      3.6615                 3.1244                 4.2757
 Frc consts  --      0.6216                 0.5490                 0.8267
 IR Inten    --      2.0624                10.5665                 0.8290

                     31                     32                     33
                      A                      A                      A
 Frequencies --    598.7705               621.3405               729.2706
 Red. masses --      4.5567                 3.1502                 2.8302
 Frc consts  --      0.9625                 0.7165                 0.8868
 IR Inten    --      1.8912                13.1906                 3.6452

                     34                     35                     36
                      A                      A                      A
 Frequencies --    772.3521               806.8578               812.5892
 Red. masses --      4.2363                 3.3551                 1.8355
 Frc consts  --      1.4889                 1.2869                 0.7141
 IR Inten    --      3.0244                 7.1368                46.4026

                     37                     38                     39
                      A                      A                      A
 Frequencies --    848.0619               854.4892               878.9120
 Red. masses --      1.4548                 2.3752                 2.2969
 Frc consts  --      0.6165                 1.0218                 1.0454
 IR Inten    --      9.1320                 2.6136                 5.7835

                     40                     41                     42
                      A                      A                      A
 Frequencies --    909.6749               941.5269               944.2594
 Red. masses --      2.0123                 1.2328                 2.2916
 Frc consts  --      0.9811                 0.6439                 1.2039
 IR Inten    --      9.8151                 0.9111                11.0212

                     43                     44                     45
                      A                      A                      A
 Frequencies --    944.8052               965.5474               968.5399
 Red. masses --      2.2768                 1.3481                 1.6779
 Frc consts  --      1.1974                 0.7405                 0.9274
 IR Inten    --      3.9307                 0.6381                 4.4920

                     46                     47                     48
                      A                      A                      A
 Frequencies --    981.1549               994.1252              1008.7945
 Red. masses --      1.4411                 2.5517                 1.6535
 Frc consts  --      0.8174                 1.4858                 0.9914
 IR Inten    --      0.8192                 6.0242                 6.5175

                     49                     50                     51
                      A                      A                      A
 Frequencies --   1015.2597              1052.5840              1066.6841
 Red. masses --      1.8442                 1.7867                 1.8494
 Frc consts  --      1.1200                 1.1663                 1.2398
 IR Inten    --      4.9165                 0.5789                10.0407

                     52                     53                     54
                      A                      A                      A
 Frequencies --   1073.1062              1078.0491              1100.4565
 Red. masses --      1.6265                 1.5615                 1.9743
 Frc consts  --      1.1035                 1.0692                 1.4087
 IR Inten    --      7.7031                 2.4924                11.4535

                     55                     56                     57
                      A                      A                      A
 Frequencies --   1122.5918              1139.2171              1151.6108
 Red. masses --      2.1847                 1.9690                 1.6690
 Frc consts  --      1.6221                 1.5056                 1.3041
 IR Inten    --     26.0159                 9.6839                 1.1253

                     58                     59                     60
                      A                      A                      A
 Frequencies --   1161.2102              1182.9123              1190.3896
 Red. masses --      1.9570                 2.1488                 3.0321
 Frc consts  --      1.5548                 1.7716                 2.5314
 IR Inten    --      4.2691                 1.1208                36.5071

                     61                     62                     63
                      A                      A                      A
 Frequencies --   1202.3601              1223.3528              1265.3606
 Red. masses --      1.6862                 3.0123                 2.2205
 Frc consts  --      1.4362                 2.6561                 2.0947
 IR Inten    --      7.3452                41.2922                51.0427

                     64                     65                     66
                      A                      A                      A
 Frequencies --   1287.3578              1293.8860              1301.2400
 Red. masses --      1.4624                 1.5173                 2.9401
 Frc consts  --      1.4280                 1.4966                 2.9331
 IR Inten    --      6.4564                 6.7733                 6.3538

                     67                     68                     69
                      A                      A                      A
 Frequencies --   1305.1981              1315.6809              1328.0365
 Red. masses --      3.8561                 1.7386                 1.4551
 Frc consts  --      3.8703                 1.7732                 1.5120
 IR Inten    --      3.8985                30.0689                 0.9124

                     70                     71                     72
                      A                      A                      A
 Frequencies --   1357.5688              1365.9049              1374.2604
 Red. masses --      1.3262                 1.4997                 1.3848
 Frc consts  --      1.4400                 1.6485                 1.5409
 IR Inten    --     20.2208                10.5236                17.2594

                     73                     74                     75
                      A                      A                      A
 Frequencies --   1397.1144              1408.5332              1421.0423
 Red. masses --      1.2744                 1.4279                 1.3421
 Frc consts  --      1.4656                 1.6691                 1.5967
 IR Inten    --     15.4802                 1.3177                 8.5322

                     76                     77                     78
                      A                      A                      A
 Frequencies --   1423.0343              1431.3304              1435.3254
 Red. masses --      1.2945                 1.2924                 1.2981
 Frc consts  --      1.5445                 1.5601                 1.5756
 IR Inten    --     12.0216                 9.7819                 3.9436

                     79                     80                     81
                      A                      A                      A
 Frequencies --   1437.4508              1442.8087              1450.5917
 Red. masses --      1.3504                 1.5745                 1.2436
 Frc consts  --      1.6440                 1.9311                 1.5418
 IR Inten    --      1.6305                 5.0505                 7.6808

                     82                     83                     84
                      A                      A                      A
 Frequencies --   1462.6631              1495.7239              1503.2296
 Red. masses --      3.0171                 1.6273                 1.1451
 Frc consts  --      3.8030                 2.1450                 1.5245
 IR Inten    --    115.5132                 6.8559                 7.3461

                     85                     86                     87
                      A                      A                      A
 Frequencies --   1506.8121              1514.2016              1517.0447
 Red. masses --      1.2060                 1.0753                 1.0523
 Frc consts  --      1.6133                 1.4526                 1.4269
 IR Inten    --      6.9627                 7.6172                 0.3944

                     88                     89                     90
                      A                      A                      A
 Frequencies --   1519.1143              1522.3924              1523.2974
 Red. masses --      1.1113                 1.1190                 1.0874
 Frc consts  --      1.5110                 1.5280                 1.4866
 IR Inten    --     14.8593                 7.0941                17.0167

                     91                     92                     93
                      A                      A                      A
 Frequencies --   1528.7277              1532.2164              1534.8004
 Red. masses --      1.1578                 1.0504                 1.1495
 Frc consts  --      1.5942                 1.4529                 1.5954
 IR Inten    --     18.1094                 0.8069                17.0954

                     94                     95                     96
                      A                      A                      A
 Frequencies --   1537.3560              1541.3765              1554.1284
 Red. masses --      1.0856                 1.0835                 1.0601
 Frc consts  --      1.5117                 1.5166                 1.5086
 IR Inten    --      6.6009                 3.4903                11.0475

                     97                     98                     99
                      A                      A                      A
 Frequencies --   1616.1538              1634.8746              2900.6335
 Red. masses --      5.5900                 5.7072                 1.0801
 Frc consts  --      8.6025                 8.9876                 5.3545
 IR Inten    --     13.1835                12.8472                47.0992

                    100                    101                    102
                      A                      A                      A
 Frequencies --   2946.5101              2996.1506              3035.7043
 Red. masses --      1.0724                 1.0701                 1.0806
 Frc consts  --      5.4855                 5.6597                 5.8674
 IR Inten    --     75.2671                48.4474                11.5478

                    103                    104                    105
                      A                      A                      A
 Frequencies --   3040.5233              3044.7498              3047.5005
 Red. masses --      1.0384                 1.0431                 1.0399
 Frc consts  --      5.6563                 5.6972                 5.6902
 IR Inten    --     26.8304                20.4015                28.7193

                    106                    107                    108
                      A                      A                      A
 Frequencies --   3054.3495              3059.2609              3080.3967
 Red. masses --      1.0383                 1.0443                 1.0866
 Frc consts  --      5.7073                 5.7584                 6.0747
 IR Inten    --     18.4682                26.1738                23.3933

                    109                    110                    111
                      A                      A                      A
 Frequencies --   3084.4685              3103.5235              3104.9571
 Red. masses --      1.0862                 1.0918                 1.1003
 Frc consts  --      6.0885                 6.1959                 6.2501
 IR Inten    --     45.2662                19.9141                 3.8845

                    112                    113                    114
                      A                      A                      A
 Frequencies --   3110.8920              3114.2618              3117.9757
 Red. masses --      1.1004                 1.1006                 1.0992
 Frc consts  --      6.2743                 6.2893                 6.2961
 IR Inten    --     49.9545                41.5046                41.3950

                    115                    116                    117
                      A                      A                      A
 Frequencies --   3119.3260              3126.2378              3132.4850
 Red. masses --      1.0967                 1.0914                 1.0947
 Frc consts  --      6.2874                 6.2844                 6.3288
 IR Inten    --     42.0819                19.4600                22.7116

                    118                    119                    120
                      A                      A                      A
 Frequencies --   3140.4519              3146.1146              3164.1489
 Red. masses --      1.1029                 1.1024                 1.1010
 Frc consts  --      6.4088                 6.4290                 6.4943
 IR Inten    --     10.7136                22.4108                22.3322

                    121                    122                    123
                      A                      A                      A
 Frequencies --   3164.8736              3192.3839              3527.8489
 Red. masses --      1.0900                 1.0946                 1.0737
 Frc consts  --      6.4326                 6.5724                 7.8731
 IR Inten    --     11.8559                38.0935                 0.6853

 - Thermochemistry -
 -------------------
 Temperature   298.150 Kelvin.  Pressure   1.00000 Atm.
 Atom     1 has atomic number  6 and mass  12.00000

 Molecular mass:   247.20485 amu.
 Principal axes and moments of inertia in atomic units:
                           1         2         3
     Eigenvalues --  2617.105146842.696417385.76941
           X            0.99985  -0.01683  -0.00492
           Y            0.01675   0.99973  -0.01580
           Z            0.00519   0.01571   0.99986
 This molecule is an asymmetric top.
 Rotational symmetry number  1.
 Warning -- assumption of classical behavior for rotation
           may cause significant error
 Rotational temperatures (Kelvin)      0.03310     0.01266     0.01173
 Rotational constants (GHZ):           0.68959     0.26375     0.24435
 Zero-point vibrational energy    1015935.6 (Joules/Mol)
                                  242.81444 (Kcal/Mol)
 Warning -- explicit consideration of  31 degrees of freedom as
           vibrations may cause significant error
 Vibrational temperatures:     60.26    73.26    90.23   111.77   155.95
          (Kelvin)            187.49   246.86   276.46   285.76   290.72
                              305.28   325.84   339.33   359.68   372.47
                              378.47   396.31   472.76   499.83   528.18
                              569.52   603.05   610.14   638.27   703.63
                              731.45   764.95   772.31   785.76   824.19
                              861.50   893.97  1049.26  1111.24  1160.89
                             1169.13  1220.17  1229.42  1264.56  1308.82
                             1354.65  1358.58  1359.36  1389.21  1393.51
                             1411.66  1430.32  1451.43  1460.73  1514.43
                             1534.72  1543.96  1551.07  1583.31  1615.16
                             1639.08  1656.91  1670.72  1701.95  1712.71
                             1729.93  1760.13  1820.57  1852.22  1861.61
                             1872.19  1877.89  1892.97  1910.75  1953.24
                             1965.23  1977.25  2010.14  2026.57  2044.56
                             2047.43  2059.37  2065.11  2068.17  2075.88
                             2087.08  2104.45  2152.01  2162.81  2167.97
                             2178.60  2182.69  2185.67  2190.38  2191.69
                             2199.50  2204.52  2208.24  2211.91  2217.70
                             2236.04  2325.28  2352.22  4173.36  4239.37
                             4310.79  4367.70  4374.63  4380.72  4384.67
                             4394.53  4401.59  4432.00  4437.86  4465.28
                             4467.34  4475.88  4480.73  4486.07  4488.01
                             4497.96  4506.95  4518.41  4526.56  4552.50
                             4553.55  4593.13  5075.79

 Zero-point correction=                           0.386949 (Hartree/Particle)
 Thermal correction to Energy=                    0.405457
 Thermal correction to Enthalpy=                  0.406401
 Thermal correction to Gibbs Free Energy=         0.341455
 Sum of electronic and zero-point Energies=           -750.603416
 Sum of electronic and thermal Energies=              -750.584909
 Sum of electronic and thermal Enthalpies=            -750.583965
 Sum of electronic and thermal Free Energies=         -750.648911

                     E (Thermal)             CV                S
                      KCal/Mol        Cal/Mol-Kelvin    Cal/Mol-Kelvin
 Total                  254.428             72.359            136.690
 Electronic               0.000              0.000              0.000
 Translational            0.889              2.981             42.416
 Rotational               0.889              2.981             33.247
 Vibrational            252.651             66.398             61.028
 Vibration     1          0.595              1.980              5.168
 Vibration     2          0.595              1.977              4.781
 Vibration     3          0.597              1.972              4.370
 Vibration     4          0.599              1.964              3.949
 Vibration     5          0.606              1.943              3.298
 Vibration     6          0.612              1.923              2.941
 Vibration     7          0.626              1.877              2.418
 Vibration     8          0.634              1.851              2.207
 Vibration     9          0.637              1.842              2.146
 Vibration    10          0.639              1.837              2.114
 Vibration    11          0.643              1.822              2.025
 Vibration    12          0.650              1.801              1.907
 Vibration    13          0.655              1.786              1.834
 Vibration    14          0.663              1.763              1.731
 Vibration    15          0.668              1.748              1.669
 Vibration    16          0.670              1.741              1.641
 Vibration    17          0.677              1.719              1.562
 Vibration    18          0.712              1.618              1.267
 Vibration    19          0.725              1.581              1.178
 Vibration    20          0.740              1.540              1.092
 Vibration    21          0.763              1.479              0.978
 Vibration    22          0.782              1.429              0.895
 Vibration    23          0.786              1.418              0.878
 Vibration    24          0.803              1.375              0.815
 Vibration    25          0.845              1.274              0.686
 Vibration    26          0.864              1.231              0.637
 Vibration    27          0.887              1.180              0.583
 Vibration    28          0.892              1.169              0.572
 Vibration    29          0.901              1.148              0.552
 Vibration    30          0.929              1.090              0.499
 Vibration    31          0.957              1.034              0.452

                           ! Non-Optimized Parameters !
 Normal termination of Gaussian 16 at Fri Dec 11 21:31:20 2020.

 ----------------------------------------------------------------------
 # B3LYP/6-311++G(d,p) empiricaldispersion=gd3bj scf=xqc pop=npa geom=c
 heck
 ----------------------------------------------------------------------

 ---------------------------------------
 CID_112741992_JID_8785_Energie_neutraal
 ---------------------------------------
 Structure from the checkpoint file:  "JID_8785.chk"
 Charge =  0 Multiplicity = 1

 SCF Done:  E(RB3LYP) =  -751.190734812     A.U. after   14 cycles
 Normal termination of Gaussian 16 at Fri Dec 11 21:41:51 2020.

 ----------------------------------------------------------------------
 # B3LYP/6-311++G(d,p) empiricaldispersion=gd3bj scf=xqc pop=npa geom=c
 heck
 ----------------------------------------------------------------------

 -------------------------------------
 CID_112741992_JID_8785_Energie_kation
 -------------------------------------
 Structure from the checkpoint file:  "JID_8785.chk"
 Charge =  1 Multiplicity = 2

 SCF Done:  E(UB3LYP) =  -750.924709141     A.U. after   24 cycles
 Normal termination of Gaussian 16 at Fri Dec 11 22:08:35 2020.
 Gaussian 16:  ES64L-G16RevA.03 25-Dec-2016

 ----------------------------------------------------------------------
 # B3LYP/6-311++G(d,p) empiricaldispersion=gd3bj scf=xqc pop=npa geom=c
 heck
 ----------------------------------------------------------------------

 ------------------------------------
 CID_112741992_JID_8785_Energie_anion
 ------------------------------------
 Structure from the checkpoint file:  "JID_8785.chk"
 Charge = -1 Multiplicity = 2

                         Standard orientation:
 ---------------------------------------------------------------------
 Center     Atomic      Atomic             Coordinates (Angstroms)
 Number     Number       Type             X           Y           Z
 ---------------------------------------------------------------------
      1          6           0       -0.020514    1.484018    2.336481
      2          6           0        0.022746    1.625795    0.807993
      3          6           0        1.356105    2.192956    0.310819
      4          7           0        2.412030    1.195741    0.474460
      5          6           0        2.168449    0.002706   -0.342154
      6          6           0        0.849788   -0.615243    0.141614
      7          7           0       -0.223236    0.368224    0.090633
      8          6           0       -1.566207   -0.047733   -0.090745
      9          6           0       -2.341245    0.612374   -1.070765
     10          6           0       -3.659474    0.194526   -1.257934
     11          6           0       -4.154206   -0.858440   -0.497801
     12          7           0       -3.430912   -1.499750    0.422732
     13          6           0       -2.165330   -1.103819    0.637298
     14          6           0       -1.442422   -1.868581    1.720614
     15          6           0       -1.761105    1.710528   -1.920813
     16          6           0        3.346224   -0.984605   -0.222148
     17          6           0        3.084542   -2.277722   -1.007891
     18          6           0        4.665996   -0.352622   -0.690562
     19          1           0        0.105265    2.462653    2.814719
     20          1           0        0.782661    0.832668    2.691577
     21          1           0       -0.983924    1.074057    2.655190
     22          1           0       -0.766797    2.322822    0.509534
     23          1           0        1.228281    2.500114   -0.744047
     24          1           0        1.621933    3.082463    0.892768
     25          1           0        3.301684    1.612118    0.216151
     26          1           0        2.040896    0.265720   -1.412900
     27          1           0        1.025550   -1.025685    1.148267
     28          1           0        0.562379   -1.441744   -0.511370
     29          1           0       -4.284697    0.673700   -2.006744
     30          1           0       -5.178149   -1.204457   -0.630204
     31          1           0       -0.733626   -2.595799    1.306639
     32          1           0       -0.879148   -1.207277    2.383751
     33          1           0       -2.184332   -2.417953    2.303239
     34          1           0       -1.805566    2.684747   -1.416838
     35          1           0       -0.707154    1.509567   -2.133484
     36          1           0       -2.312049    1.805917   -2.861323
     37          1           0        3.447586   -1.235161    0.842915
     38          1           0        2.878874   -2.060652   -2.063972
     39          1           0        3.961351   -2.933271   -0.969310
     40          1           0        2.236421   -2.842647   -0.609583
     41          1           0        4.975694    0.488788   -0.061443
     42          1           0        5.476596   -1.088719   -0.656532
     43          1           0        4.585024    0.003692   -1.725805
 ---------------------------------------------------------------------

 SCF Done:  E(UB3LYP) =  -751.179018648     A.U. after   33 cycles
 SCF Done:  E(UB3LYP) =  -751.179018649     a.u. after    1 cycles

 The electronic state is 2-A.
 Alpha  occ. eigenvalues --  -14.21640 -14.21054 -14.20007 -10.11829 -10.11668
 Alpha  occ. eigenvalues --  -10.10966 -10.10795 -10.10066 -10.09992 -10.09958
 Alpha  occ. eigenvalues --  -10.09197 -10.08295 -10.08241 -10.07344 -10.07294
 Alpha  occ. eigenvalues --  -10.06753 -10.06580 -10.06184  -0.86249  -0.84269
 Alpha  occ. eigenvalues --   -0.80270  -0.72144  -0.71517  -0.68605  -0.66923
 Alpha  occ. eigenvalues --   -0.62704  -0.61840  -0.59495  -0.59446  -0.56559
 Alpha  occ. eigenvalues --   -0.54218  -0.52128  -0.49348  -0.47466  -0.45358
 Alpha  occ. eigenvalues --   -0.43466  -0.41280  -0.39957  -0.37949  -0.37476
 Alpha  occ. eigenvalues --   -0.36669  -0.35967  -0.34739  -0.34244  -0.33305
 Alpha  occ. eigenvalues --   -0.32598  -0.32285  -0.31766  -0.31355  -0.30992
 Alpha  occ. eigenvalues --   -0.30058  -0.29662  -0.29086  -0.28727  -0.28260
 Alpha  occ. eigenvalues --   -0.27845  -0.26856  -0.26287  -0.25309  -0.25042
 Alpha  occ. eigenvalues --   -0.23977  -0.22808  -0.22355  -0.18468  -0.17278
 Alpha  occ. eigenvalues --   -0.16443  -0.13719  -0.11295   0.04084
 Alpha virt. eigenvalues --    0.05986   0.06317   0.06613   0.07107   0.07474
 Alpha virt. eigenvalues --    0.07716   0.08294   0.08748   0.09079   0.09380
 Alpha virt. eigenvalues --    0.10181   0.10512   0.10695   0.11209   0.11528

  Beta  occ. eigenvalues --  -14.21641 -14.21032 -14.19988 -10.11807 -10.11672
  Beta  occ. eigenvalues --  -10.10968 -10.10788 -10.10058 -10.09970 -10.09952
  Beta  occ. eigenvalues --  -10.09172 -10.08280 -10.08235 -10.07316 -10.07290
  Beta  occ. eigenvalues --  -10.06728 -10.06544 -10.06169  -0.86229  -0.84238
  Beta  occ. eigenvalues --   -0.80247  -0.72100  -0.71492  -0.68576  -0.66897
  Beta  occ. eigenvalues --   -0.62681  -0.61793  -0.59441  -0.59413  -0.56518
  Beta  occ. eigenvalues --   -0.54181  -0.52102  -0.49293  -0.47415  -0.45319
  Beta  occ. eigenvalues --   -0.43426  -0.41259  -0.39925  -0.37917  -0.37455
  Beta  occ. eigenvalues --   -0.36634  -0.35933  -0.34705  -0.34193  -0.33277
  Beta  occ. eigenvalues --   -0.32546  -0.32243  -0.31735  -0.31323  -0.30968
  Beta  occ. eigenvalues --   -0.30026  -0.29636  -0.29052  -0.28699  -0.28232
  Beta  occ. eigenvalues --   -0.27795  -0.26831  -0.26256  -0.25280  -0.25012
  Beta  occ. eigenvalues --   -0.23940  -0.22775  -0.22328  -0.18402  -0.17201
  Beta  occ. eigenvalues --   -0.16391  -0.13668  -0.11273
  Beta virt. eigenvalues --    0.06098   0.06492   0.06640   0.07302   0.07364
  Beta virt. eigenvalues --    0.07534   0.08017   0.08634   0.09052   0.09471
  Beta virt. eigenvalues --    0.09786   0.10389   0.10705   0.11009   0.11565

 Mulliken charges and spin densities:
               1          2
     1  C   -0.250277  -0.446879
     2  C   -1.536847   1.550178
     3  C    2.025224  -2.234602
     4  N   -0.161561   0.157622
     5  C   -0.131417  -0.427369
     6  C    0.276001  -0.536993
     7  N    0.407090  -0.091011
     8  C   -0.024730   0.139762
     9  C   -0.039516   0.903263
    10  C   -0.370042  -0.378846
    11  C    0.362592  -0.303050
    12  N    0.015053   0.031035
    13  C   -1.495363   0.438622
    14  C   -0.138605  -0.369582
    15  C    0.967706  -1.450692
    16  C   -0.979304   1.433844
    17  C    0.426184  -1.195882
    18  C    0.655329  -1.224465
    19  H   -0.093351   0.236267
    20  H    0.117531   0.070294
    21  H   -0.013940   0.154712
    22  H   -0.114967   0.290012
    23  H   -0.078411   0.194472
    24  H   -0.526214   0.710742
    25  H    0.244860   0.006965
    26  H    0.108858   0.074814
    27  H    0.049669   0.106908
    28  H    0.228333  -0.067255
    29  H   -0.183139   0.326410
    30  H    0.112328   0.058728
    31  H    0.065232   0.089245
    32  H    0.226585  -0.099395
    33  H    0.115287   0.065863
    34  H   -0.278714   0.465417
    35  H   -0.175198   0.330610
    36  H    0.010662   0.142325
    37  H    0.104692   0.059644
    38  H   -0.073820   0.229568
    39  H   -0.156740   0.303194
    40  H   -0.027661   0.165248
    41  H   -0.237675   0.352952
    42  H   -0.251598   0.399828
    43  H   -0.180126   0.337478
 Sum of Mulliken charges =  -1.00000   1.00000

 Dipole moment (field-independent basis, Debye):
    X=             -3.7851    Y=             -2.9552    Z=              1.3798  Tot=              4.9964
 Quadrupole moment (field-independent basis, Debye-Ang):
   XX=           -196.5084   YY=           -171.5348   ZZ=           -148.8229
   XY=             -0.0407   XZ=              6.7270   YZ=             -1.3821

 Summary of Natural Population Analysis:

                                       Natural Population
                Natural  -----------------------------------------------
    Atom  No    Charge         Core      Valence    Rydberg      Total
 -----------------------------------------------------------------------
      C    1   -0.29499      0.99964     2.28961    0.00575     3.29499
      C    2   -0.00538      0.99957     1.99234    0.01347     3.00538
      C    3   -0.08571      0.99959     2.07394    0.01217     3.08571
      N    4   -0.34372      0.99972     2.83312    0.01089     3.84372
      C    5   -0.00692      0.99956     1.99477    0.01259     3.00692
      C    6   -0.08268      0.99957     2.07300    0.01010     3.08268
      N    7   -0.28625      0.99966     2.77201    0.01457     3.78625
      C    8    0.06999      0.99937     1.91920    0.01144     2.93001
      C    9    0.00898      0.99948     1.98233    0.00921     2.99102
      C   10   -0.12406      0.99950     2.11567    0.00889     3.12406
      C   11    0.02193      0.99958     1.96434    0.01415     2.97807
      N   12   -0.24343      0.99969     2.73260    0.01114     3.74343
      C   13    0.10549      0.99950     1.88225    0.01276     2.89451
      C   14   -0.30137      0.99963     2.29681    0.00492     3.30137
      C   15   -0.29955      0.99963     2.29402    0.00591     3.29955
      C   16   -0.11551      0.99959     2.10569    0.01023     3.11551
      C   17   -0.28580      0.99965     2.28039    0.00576     3.28580
      C   18   -0.28575      0.99965     2.27999    0.00611     3.28575
      H   19    0.10080      0.00000     0.39839    0.00081     0.39920
      H   20    0.10325      0.00000     0.39566    0.00109     0.39675
      H   21    0.09851      0.00000     0.40061    0.00087     0.40149
      H   22    0.10047      0.00000     0.39732    0.00220     0.39953
      H   23    0.08411      0.00000     0.41366    0.00223     0.41589
      H   24    0.09796      0.00000     0.40059    0.00144     0.40204
      H   25    0.17959      0.00000     0.31722    0.00319     0.32041
      H   26    0.07942      0.00000     0.41813    0.00245     0.42058
      H   27    0.08572      0.00000     0.41249    0.00179     0.41428
      H   28    0.10228      0.00000     0.39640    0.00132     0.39772
      H   29    0.10104      0.00000     0.39801    0.00095     0.39896
      H   30    0.08672      0.00000     0.41220    0.00107     0.41328
      H   31    0.10534      0.00000     0.39353    0.00113     0.39466
      H   32    0.10492      0.00000     0.39406    0.00102     0.39508
      H   33    0.10874      0.00000     0.39003    0.00123     0.39126
      H   34    0.11000      0.00000     0.38823    0.00177     0.39000
      H   35    0.11256      0.00000     0.38566    0.00178     0.38744
      H   36    0.10151      0.00000     0.39763    0.00086     0.39849
      H   37    0.09556      0.00000     0.40262    0.00183     0.40444
      H   38    0.09848      0.00000     0.40058    0.00094     0.40152
      H   39    0.10030      0.00000     0.39889    0.00082     0.39970
      H   40    0.09904      0.00000     0.40015    0.00081     0.40096
      H   41    0.09896      0.00000     0.39990    0.00114     0.40104
      H   42    0.10082      0.00000     0.39816    0.00102     0.39918
      H   43    0.09860      0.00000     0.40022    0.00118     0.40140
 =======================================================================
   * Total *   -0.00000     17.99259    49.79243    0.21498    68.00000

 Normal termination of Gaussian 16 at Fri Dec 11 22:43:56 2020.
