 Gaussian 16, Revision A.03,

 -----------------------------------------------------------
 # opt freq B3LYP/6-31G(d) empiricaldispersion=gd3bj scf=xqc
 -----------------------------------------------------------

 -------------------------------
 CID_115017404_JID_2516_neutraal
 -------------------------------
 Symbolic Z-matrix:
 Charge =  0 Multiplicity = 1

 SCF Done:  E(RB3LYP) =  -881.360361985     A.U. after   13 cycles
 SCF Done:  E(RB3LYP) =  -881.365509129     A.U. after   11 cycles
 SCF Done:  E(RB3LYP) =  -881.365924667     A.U. after   10 cycles
 SCF Done:  E(RB3LYP) =  -881.366017107     A.U. after   10 cycles
 SCF Done:  E(RB3LYP) =  -881.366100153     A.U. after   10 cycles
 SCF Done:  E(RB3LYP) =  -881.366148285     A.U. after   10 cycles
 SCF Done:  E(RB3LYP) =  -881.366191598     A.U. after   11 cycles
 SCF Done:  E(RB3LYP) =  -881.366221862     A.U. after   10 cycles
 SCF Done:  E(RB3LYP) =  -881.366238499     A.U. after   12 cycles
 SCF Done:  E(RB3LYP) =  -881.366282515     A.U. after   12 cycles
 SCF Done:  E(RB3LYP) =  -881.366795838     A.U. after    9 cycles
 SCF Done:  E(RB3LYP) =  -881.366794283     A.U. after    9 cycles
 SCF Done:  E(RB3LYP) =  -881.366802460     A.U. after   10 cycles
 SCF Done:  E(RB3LYP) =  -881.366802628     A.U. after    7 cycles
 SCF Done:  E(RB3LYP) =  -881.366802641     A.U. after    7 cycles
 Optimization completed.
    -- Stationary point found.
 Normal termination of Gaussian 16 at Wed Dec  9 18:04:45 2020.

 --------------------------------------------------------------------
 #N Geom=AllCheck Guess=TCheck SCRF=Check GenChk RB3LYP/6-31G(d) Freq
 --------------------------------------------------------------------

 Structure from the checkpoint file:  "JID_2516.chk"
 -------------------------------
 CID_115017404_JID_2516_neutraal
 -------------------------------
 Charge =  0 Multiplicity = 1

 SCF Done:  E(RB3LYP) =  -881.366802641     A.U. after    1 cycles

  Exact polarizability: 146.438  -3.722 113.565  -0.121  -2.322 102.730
 Approx polarizability: 192.456  -8.420 161.973  -5.579  -1.623 161.652

                      1                      2                      3
                      A                      A                      A
 Frequencies --     20.9846                37.1593                72.8682
 Red. masses --      6.4487                 3.4216                 3.9311
 Frc consts  --      0.0017                 0.0028                 0.0123
 IR Inten    --      0.6374                 0.2049                 1.8128

                      4                      5                      6
                      A                      A                      A
 Frequencies --    110.8617               133.1329               149.0999
 Red. masses --      3.0433                 3.2833                 2.6197
 Frc consts  --      0.0220                 0.0343                 0.0343
 IR Inten    --      1.8935                 3.6696                 0.0434

                      7                      8                      9
                      A                      A                      A
 Frequencies --    184.1798               237.1937               265.7615
 Red. masses --      2.9586                 2.8864                 3.1536
 Frc consts  --      0.0591                 0.0957                 0.1312
 IR Inten    --      2.5306                 5.2296                 1.0730

                     10                     11                     12
                      A                      A                      A
 Frequencies --    273.5779               336.0123               366.2283
 Red. masses --      2.3415                 2.2033                 1.8555
 Frc consts  --      0.1033                 0.1466                 0.1466
 IR Inten    --      3.2225                 0.5872                35.5712

                     13                     14                     15
                      A                      A                      A
 Frequencies --    368.8575               415.0354               445.4817
 Red. masses --      1.5584                 3.2083                 2.1832
 Frc consts  --      0.1249                 0.3256                 0.2553
 IR Inten    --     62.0072                 0.1987                11.3634

                     16                     17                     18
                      A                      A                      A
 Frequencies --    457.5910               513.9734               538.2845
 Red. masses --      2.4777                 2.3325                 2.4620
 Frc consts  --      0.3057                 0.3630                 0.4203
 IR Inten    --     17.0446                 6.7725                 7.8997

                     19                     20                     21
                      A                      A                      A
 Frequencies --    638.5299               657.7093               678.0380
 Red. masses --      2.8636                 2.5152                 2.3981
 Frc consts  --      0.6879                 0.6411                 0.6496
 IR Inten    --     11.3091                 7.4591                47.1671

                     22                     23                     24
                      A                      A                      A
 Frequencies --    693.4983               794.7862               822.5308
 Red. masses --      3.1220                 1.7390                 2.1843
 Frc consts  --      0.8846                 0.6472                 0.8707
 IR Inten    --     21.0604                 1.7829                18.7589

                     25                     26                     27
                      A                      A                      A
 Frequencies --    839.3640               896.3699               937.8327
 Red. masses --      1.7912                 2.0204                 2.1782
 Frc consts  --      0.7435                 0.9564                 1.1288
 IR Inten    --      3.7508                 3.2209                 4.8885

                     28                     29                     30
                      A                      A                      A
 Frequencies --    946.5855               959.8802               978.8607
 Red. masses --      1.6409                 1.5888                 1.8491
 Frc consts  --      0.8662                 0.8625                 1.0439
 IR Inten    --     18.6789                 6.8563                10.8948

                     31                     32                     33
                      A                      A                      A
 Frequencies --   1005.6407              1018.3268              1034.5168
 Red. masses --      1.6890                 1.2042                 2.4108
 Frc consts  --      1.0064                 0.7357                 1.5201
 IR Inten    --     15.2982                43.6349                 6.5825

                     34                     35                     36
                      A                      A                      A
 Frequencies --   1040.2153              1086.2852              1106.2500
 Red. masses --      4.5340                 3.5372                 1.6481
 Frc consts  --      2.8905                 2.4592                 1.1883
 IR Inten    --     51.1356                46.2250                 0.6768

                     37                     38                     39
                      A                      A                      A
 Frequencies --   1106.8674              1129.7916              1148.8307
 Red. masses --      1.8403                 2.3709                 2.1576
 Frc consts  --      1.3284                 1.7831                 1.6778
 IR Inten    --      2.0742                31.2707                22.2241

                     40                     41                     42
                      A                      A                      A
 Frequencies --   1169.2424              1189.0355              1203.0747
 Red. masses --      1.5197                 1.1103                 1.1206
 Frc consts  --      1.2241                 0.9249                 0.9557
 IR Inten    --      6.0631                 9.0621                 5.9996

                     43                     44                     45
                      A                      A                      A
 Frequencies --   1230.5147              1275.9877              1291.4648
 Red. masses --      1.3129                 1.2246                 1.4544
 Frc consts  --      1.1713                 1.1747                 1.4292
 IR Inten    --     12.4784                 0.7436                23.9668

                     46                     47                     48
                      A                      A                      A
 Frequencies --   1313.7070              1320.9170              1341.1901
 Red. masses --      1.2369                 1.2872                 1.3004
 Frc consts  --      1.2577                 1.3233                 1.3782
 IR Inten    --      1.4530                25.8167                 1.3126

                     49                     50                     51
                      A                      A                      A
 Frequencies --   1355.5180              1360.7990              1374.2121
 Red. masses --      1.2714                 1.4464                 1.2140
 Frc consts  --      1.3764                 1.5780                 1.3508
 IR Inten    --      7.8408                 2.6712                 7.4962

                     52                     53                     54
                      A                      A                      A
 Frequencies --   1389.9681              1396.2703              1402.4204
 Red. masses --      1.3279                 1.3547                 1.3264
 Frc consts  --      1.5116                 1.5561                 1.5370
 IR Inten    --      3.2205                 2.0406                 6.8283

                     55                     56                     57
                      A                      A                      A
 Frequencies --   1417.7091              1435.7547              1494.7841
 Red. masses --      1.3172                 1.2688                 1.0907
 Frc consts  --      1.5598                 1.5410                 1.4358
 IR Inten    --      1.1663                87.5965                 1.4372

                     58                     59                     60
                      A                      A                      A
 Frequencies --   1500.8231              1506.4521              1514.7757
 Red. masses --      1.1228                 1.0878                 1.0925
 Frc consts  --      1.4901                 1.4545                 1.4770
 IR Inten    --     14.6645                 4.1461                14.2559

                     61                     62                     63
                      A                      A                      A
 Frequencies --   1516.4921              1529.8601              1532.3942
 Red. masses --      1.0971                 1.0938                 1.1778
 Frc consts  --      1.4866                 1.5084                 1.6296
 IR Inten    --     11.8295                 4.1231                32.5451

                     64                     65                     66
                      A                      A                      A
 Frequencies --   1742.8682              2998.8275              3030.6898
 Red. masses --      5.9574                 1.0702                 1.0626
 Frc consts  --     10.6619                 5.6706                 5.7506
 IR Inten    --      1.9214                54.4158                31.2228

                     67                     68                     69
                      A                      A                      A
 Frequencies --   3035.6680              3048.8756              3055.9081
 Red. masses --      1.0776                 1.0616                 1.0648
 Frc consts  --      5.8506                 5.8142                 5.8586
 IR Inten    --     24.2292                36.5240                35.5520

                     70                     71                     72
                      A                      A                      A
 Frequencies --   3058.1657              3059.4178              3071.8971
 Red. masses --      1.0660                 1.0648                 1.1022
 Frc consts  --      5.8737                 5.8719                 6.1279
 IR Inten    --     25.2454                27.3819                29.3334

                     73                     74                     75
                      A                      A                      A
 Frequencies --   3083.3175              3085.8908              3101.1651
 Red. masses --      1.0928                 1.1010                 1.1027
 Frc consts  --      6.1211                 6.1776                 6.2483
 IR Inten    --     40.9122                45.6581                27.9311

                     76                     77                     78
                      A                      A                      A
 Frequencies --   3116.8815              3117.9520              3149.8440
 Red. masses --      1.1016                 1.1007                 1.0908
 Frc consts  --      6.3053                 6.3047                 6.3764
 IR Inten    --     30.5893                10.5397                 7.7066

                     79                     80                     81
                      A                      A                      A
 Frequencies --   3156.8819              3528.5175              3733.8231
 Red. masses --      1.0864                 1.0732                 1.0662
 Frc consts  --      6.3789                 7.8725                 8.7575
 IR Inten    --     32.8898                 0.3324                 6.4411

 - Thermochemistry -
 -------------------
 Temperature   298.150 Kelvin.  Pressure   1.00000 Atm.
 Atom     1 has atomic number  6 and mass  12.00000

 Molecular mass:   187.10309 amu.
 Principal axes and moments of inertia in atomic units:
                           1         2         3
     Eigenvalues --  1490.609474614.661965355.04936
           X            0.99991  -0.01194   0.00597
           Y            0.01198   0.99990  -0.00718
           Z           -0.00588   0.00726   0.99996
 This molecule is an asymmetric top.
 Rotational symmetry number  1.
 Warning -- assumption of classical behavior for rotation
           may cause significant error
 Rotational temperatures (Kelvin)      0.05811     0.01877     0.01617
 Rotational constants (GHZ):           1.21074     0.39109     0.33702
 Zero-point vibrational energy     674017.7 (Joules/Mol)
                                  161.09408 (Kcal/Mol)
 Warning -- explicit consideration of  18 degrees of freedom as
           vibrations may cause significant error
 Vibrational temperatures:     30.19    53.46   104.84   159.51   191.55
          (Kelvin)            214.52   264.99   341.27   382.37   393.62
                              483.45   526.92   530.70   597.14   640.95
                              658.37   739.49   774.47   918.70   946.30
                              975.55   997.79  1143.52  1183.44  1207.66
                             1289.68  1349.33  1361.93  1381.05  1408.36
                             1446.89  1465.15  1488.44  1496.64  1562.92
                             1591.65  1592.54  1625.52  1652.91  1682.28
                             1710.76  1730.96  1770.44  1835.86  1858.13
                             1890.13  1900.50  1929.67  1950.29  1957.89
                             1977.18  1999.85  2008.92  2017.77  2039.77
                             2065.73  2150.66  2159.35  2167.45  2179.42
                             2181.89  2201.13  2204.77  2507.60  4314.64
                             4360.49  4367.65  4386.65  4396.77  4400.02
                             4401.82  4419.77  4436.21  4439.91  4461.88
                             4484.50  4486.04  4531.92  4542.05  5076.75
                             5372.14

 Zero-point correction=                           0.256720 (Hartree/Particle)
 Thermal correction to Energy=                    0.269862
 Thermal correction to Enthalpy=                  0.270806
 Thermal correction to Gibbs Free Energy=         0.215430
 Sum of electronic and zero-point Energies=           -881.110083
 Sum of electronic and thermal Energies=              -881.096941
 Sum of electronic and thermal Enthalpies=            -881.095997
 Sum of electronic and thermal Free Energies=         -881.151373

                     E (Thermal)             CV                S
                      KCal/Mol        Cal/Mol-Kelvin    Cal/Mol-Kelvin
 Total                  169.341             49.338            116.549
 Electronic               0.000              0.000              0.000
 Translational            0.889              2.981             41.585
 Rotational               0.889              2.981             31.977
 Vibrational            167.563             43.376             42.986
 Vibration     1          0.593              1.986              6.539
 Vibration     2          0.594              1.982              5.405
 Vibration     3          0.599              1.967              4.074
 Vibration     4          0.607              1.940              3.254
 Vibration     5          0.613              1.920              2.900
 Vibration     6          0.618              1.904              2.684
 Vibration     7          0.631              1.861              2.286
 Vibration     8          0.656              1.784              1.824
 Vibration     9          0.672              1.736              1.624
 Vibration    10          0.676              1.722              1.573
 Vibration    11          0.717              1.604              1.231
 Vibration    12          0.739              1.542              1.096
 Vibration    13          0.741              1.536              1.085
 Vibration    14          0.778              1.438              0.909
 Vibration    15          0.805              1.371              0.810
 Vibration    16          0.816              1.344              0.773
 Vibration    17          0.869              1.219              0.624
 Vibration    18          0.893              1.165              0.569

 Optimization completed.
    -- Stationary point found.
 Normal termination of Gaussian 16 at Wed Dec  9 18:12:26 2020.

 ----------------------------------------------------------------------
 # B3LYP/6-311++G(d,p) empiricaldispersion=gd3bj scf=xqc pop=npa geom=c
 heck
 ----------------------------------------------------------------------

 ---------------------------------------
 CID_115017404_JID_2516_Energie_neutraal
 ---------------------------------------
 Structure from the checkpoint file:  "JID_2516.chk"
 Charge =  0 Multiplicity = 1

 SCF Done:  E(RB3LYP) =  -881.544793194     A.U. after   14 cycles
 Normal termination of Gaussian 16 at Wed Dec  9 18:17:06 2020.

 ----------------------------------------------------------------------
 # B3LYP/6-311++G(d,p) empiricaldispersion=gd3bj scf=xqc pop=npa geom=c
 heck
 ----------------------------------------------------------------------

 -------------------------------------
 CID_115017404_JID_2516_Energie_kation
 -------------------------------------
 Structure from the checkpoint file:  "JID_2516.chk"
 Charge =  1 Multiplicity = 2

 SCF Done:  E(UB3LYP) =  -881.251541229     A.U. after   26 cycles
 Normal termination of Gaussian 16 at Wed Dec  9 18:27:10 2020.
 Gaussian 16:  ES64L-G16RevA.03 25-Dec-2016

 ----------------------------------------------------------------------
 # B3LYP/6-311++G(d,p) empiricaldispersion=gd3bj scf=xqc pop=npa geom=c
 heck
 ----------------------------------------------------------------------

 ------------------------------------
 CID_115017404_JID_2516_Energie_anion
 ------------------------------------
 Structure from the checkpoint file:  "JID_2516.chk"
 Charge = -1 Multiplicity = 2

                         Standard orientation:
 ---------------------------------------------------------------------
 Center     Atomic      Atomic             Coordinates (Angstroms)
 Number     Number       Type             X           Y           Z
 ---------------------------------------------------------------------
      1          6           0       -2.639869    1.067323   -0.544630
      2          6           0       -2.646678   -0.309258   -1.214891
      3         16           0       -2.548811   -1.694448   -0.012998
      4          6           0       -1.088206   -1.121852    0.940936
      5          6           0       -1.240599    0.314901    1.438117
      6          6           0       -1.378578    1.345714    0.292289
      7          7           0       -0.229942    1.471260   -0.607433
      8          6           0        1.043127    1.931993   -0.039672
      9          6           0        1.957574    0.834775    0.444523
     10          6           0        3.098719    0.490017   -0.160236
     11          6           0        3.984307   -0.639135    0.280260
     12          8           0        4.181970   -1.601604   -0.755645
     13          1           0       -3.520623    1.147929    0.102822
     14          1           0       -2.715655    1.838890   -1.319789
     15          1           0       -3.581795   -0.464433   -1.760964
     16          1           0       -1.834429   -0.400802   -1.945580
     17          1           0       -0.186504   -1.228153    0.326465
     18          1           0       -0.994482   -1.819357    1.778370
     19          1           0       -0.377788    0.575987    2.063601
     20          1           0       -2.127151    0.378915    2.080948
     21          1           0       -1.505497    2.332790    0.756051
     22          1           0       -0.076299    0.615974   -1.133783
     23          1           0        1.573399    2.517074   -0.802996
     24          1           0        0.806579    2.625239    0.777859
     25          1           0        1.639704    0.272865    1.322878
     26          1           0        3.428390    1.030448   -1.048843
     27          1           0        4.989351   -0.273124    0.519581
     28          1           0        3.577571   -1.104425    1.192749
     29          1           0        3.301249   -1.907506   -1.024379
 ---------------------------------------------------------------------

 SCF Done:  E(UB3LYP) =  -881.531063717     A.U. after   33 cycles
 SCF Done:  E(UB3LYP) =  -881.531063717     a.u. after    1 cycles

 The electronic state is 2-A.
 Alpha  occ. eigenvalues --  -88.73566 -19.02567 -14.20170 -10.12253 -10.10421
 Alpha  occ. eigenvalues --  -10.10305 -10.10099 -10.09540 -10.07846 -10.07726
 Alpha  occ. eigenvalues --  -10.07423 -10.06945  -7.82185  -5.78567  -5.78232
 Alpha  occ. eigenvalues --   -5.77550  -0.92537  -0.81648  -0.72996  -0.69761
 Alpha  occ. eigenvalues --   -0.66093  -0.64656  -0.60292  -0.54445  -0.52430
 Alpha  occ. eigenvalues --   -0.51975  -0.46858  -0.45251  -0.42122  -0.39691
 Alpha  occ. eigenvalues --   -0.37652  -0.36486  -0.35247  -0.34809  -0.34160
 Alpha  occ. eigenvalues --   -0.33292  -0.32185  -0.30170  -0.29696  -0.29305
 Alpha  occ. eigenvalues --   -0.27114  -0.26690  -0.25561  -0.25115  -0.23935
 Alpha  occ. eigenvalues --   -0.21727  -0.20217  -0.19059  -0.17247  -0.12734
 Alpha  occ. eigenvalues --   -0.12366   0.04520
 Alpha virt. eigenvalues --    0.06411   0.06912   0.07678   0.08384   0.08492
 Alpha virt. eigenvalues --    0.09142   0.09475   0.09949   0.10483   0.11128
 Alpha virt. eigenvalues --    0.11834   0.12081   0.12457   0.13321   0.13908

  Beta  occ. eigenvalues --  -88.73563 -19.02532 -14.20156 -10.12231 -10.10413
  Beta  occ. eigenvalues --  -10.10291 -10.10081 -10.09515 -10.07817 -10.07722
  Beta  occ. eigenvalues --  -10.07409 -10.06922  -7.82182  -5.78565  -5.78229
  Beta  occ. eigenvalues --   -5.77547  -0.92460  -0.81620  -0.72963  -0.69719
  Beta  occ. eigenvalues --   -0.66054  -0.64622  -0.60232  -0.54385  -0.52371
  Beta  occ. eigenvalues --   -0.51939  -0.46788  -0.45198  -0.42064  -0.39626
  Beta  occ. eigenvalues --   -0.37611  -0.36453  -0.35200  -0.34755  -0.34128
  Beta  occ. eigenvalues --   -0.33261  -0.32138  -0.30121  -0.29661  -0.29265
  Beta  occ. eigenvalues --   -0.27068  -0.26648  -0.25526  -0.25079  -0.23901
  Beta  occ. eigenvalues --   -0.21692  -0.20189  -0.19014  -0.17162  -0.12713
  Beta  occ. eigenvalues --   -0.12350
  Beta virt. eigenvalues --    0.06754   0.07226   0.07743   0.07942   0.08709
  Beta virt. eigenvalues --    0.09006   0.09632   0.09733   0.10394   0.10765
  Beta virt. eigenvalues --    0.11414   0.12146   0.12302   0.12682   0.13609

 Mulliken charges and spin densities:
               1          2
     1  C    0.339554  -0.983524
     2  C   -0.287253  -0.075467
     3  S    0.097874  -0.154208
     4  C    0.505308  -0.968378
     5  C   -0.283850   0.168985
     6  C    0.323949  -0.496947
     7  N    0.033919   0.013904
     8  C   -0.393424  -0.082710
     9  C   -0.325213   0.618681
    10  C    0.047774  -0.238263
    11  C    1.170188  -1.742474
    12  O   -0.252660   0.020972
    13  H   -0.071512   0.190109
    14  H    0.034785   0.154181
    15  H   -0.110790   0.329102
    16  H   -0.269624   0.446361
    17  H    0.086457   0.078321
    18  H   -0.256131   0.474878
    19  H   -0.568845   0.761698
    20  H   -0.246784   0.403965
    21  H   -0.220078   0.428071
    22  H    0.420305  -0.248275
    23  H   -0.002527   0.188241
    24  H   -0.256391   0.410591
    25  H    0.065130   0.019650
    26  H   -0.035151   0.176234
    27  H   -0.063303   0.201268
    28  H   -0.391241   0.577439
    29  H   -0.090465   0.327596
 Sum of Mulliken charges =  -1.00000   1.00000

 Dipole moment (field-independent basis, Debye):
    X=             -1.3956    Y=              2.2075    Z=             -2.0300  Tot=              3.3078
 Quadrupole moment (field-independent basis, Debye-Ang):
   XX=           -149.0132   YY=           -127.3756   ZZ=           -123.1414
   XY=              9.8372   XZ=              0.4665   YZ=             -2.7393

 Summary of Natural Population Analysis:

                                       Natural Population
                Natural  -----------------------------------------------
    Atom  No    Charge         Core      Valence    Rydberg      Total
 -----------------------------------------------------------------------
      C    1   -0.19716      0.99959     2.18662    0.01095     3.19716
      C    2   -0.24959      0.99959     2.24108    0.00892     3.24959
      S    3    0.08155      4.99964     2.90135    0.01746     7.91845
      C    4   -0.25334      0.99959     2.24195    0.01180     3.25334
      C    5   -0.20713      0.99960     2.19601    0.01153     3.20713
      C    6   -0.00589      0.99958     1.99220    0.01411     3.00589
      N    7   -0.34188      0.99974     2.83052    0.01162     3.84188
      C    8   -0.10269      0.99960     2.09047    0.01261     3.10269
      C    9   -0.08938      0.99950     2.07997    0.00991     3.08938
      C   10   -0.11118      0.99951     2.10223    0.00944     3.11118
      C   11   -0.02631      0.99958     2.01233    0.01440     3.02631
      O   12   -0.36673      0.99990     3.36018    0.00664     4.36673
      H   13    0.10072      0.00000     0.39783    0.00145     0.39928
      H   14    0.10497      0.00000     0.39354    0.00149     0.39503
      H   15    0.10712      0.00000     0.39153    0.00136     0.39288
      H   16    0.09692      0.00000     0.40136    0.00172     0.40308
      H   17    0.09969      0.00000     0.39771    0.00260     0.40031
      H   18    0.11076      0.00000     0.38767    0.00157     0.38924
      H   19    0.10340      0.00000     0.39402    0.00259     0.39660
      H   20    0.10228      0.00000     0.39591    0.00181     0.39772
      H   21    0.09575      0.00000     0.40229    0.00196     0.40425
      H   22    0.17297      0.00000     0.32305    0.00398     0.32703
      H   23    0.09147      0.00000     0.40717    0.00135     0.40853
      H   24    0.09877      0.00000     0.39974    0.00149     0.40123
      H   25    0.09472      0.00000     0.40291    0.00238     0.40528
      H   26    0.09222      0.00000     0.40634    0.00143     0.40778
      H   27    0.08679      0.00000     0.41194    0.00126     0.41321
      H   28    0.08144      0.00000     0.41661    0.00195     0.41856
      H   29    0.22974      0.00000     0.26602    0.00424     0.27026
 =======================================================================
   * Total *   -0.00000     15.99541    34.83055    0.17403    51.00000

 Normal termination of Gaussian 16 at Wed Dec  9 18:38:24 2020.
