 Gaussian 16, Revision A.03,

 -----------------------------------------------------------
 # opt freq B3LYP/6-31G(d) empiricaldispersion=gd3bj scf=xqc
 -----------------------------------------------------------

 -------------------------------
 CID_140325192_JID_1387_neutraal
 -------------------------------
 Symbolic Z-matrix:
 Charge =  0 Multiplicity = 1

 SCF Done:  E(RB3LYP) =  -554.949493580     A.U. after   15 cycles
 SCF Done:  E(RB3LYP) =  -554.971994328     A.U. after   13 cycles
 SCF Done:  E(RB3LYP) =  -554.970127121     A.U. after   14 cycles
 SCF Done:  E(RB3LYP) =  -554.972506483     A.U. after   12 cycles
 SCF Done:  E(RB3LYP) =  -554.974111782     A.U. after   12 cycles
 SCF Done:  E(RB3LYP) =  -554.973226903     A.U. after   13 cycles
 SCF Done:  E(RB3LYP) =  -554.973960230     A.U. after   12 cycles
 SCF Done:  E(RB3LYP) =  -554.974598323     A.U. after   10 cycles
 SCF Done:  E(RB3LYP) =  -554.974916918     A.U. after   12 cycles
 SCF Done:  E(RB3LYP) =  -554.975167799     A.U. after   12 cycles
 SCF Done:  E(RB3LYP) =  -554.975403243     A.U. after   11 cycles
 SCF Done:  E(RB3LYP) =  -554.975433536     A.U. after   10 cycles
 SCF Done:  E(RB3LYP) =  -554.975437817     A.U. after    9 cycles
 SCF Done:  E(RB3LYP) =  -554.975439803     A.U. after    8 cycles
 SCF Done:  E(RB3LYP) =  -554.975440407     A.U. after    8 cycles
 SCF Done:  E(RB3LYP) =  -554.975440619     A.U. after    8 cycles
 Optimization completed.
    -- Stationary point found.
 Normal termination of Gaussian 16 at Tue Dec  8 19:53:41 2020.

 --------------------------------------------------------------------
 #N Geom=AllCheck Guess=TCheck SCRF=Check GenChk RB3LYP/6-31G(d) Freq
 --------------------------------------------------------------------

 Structure from the checkpoint file:  "JID_1387.chk"
 -------------------------------
 CID_140325192_JID_1387_neutraal
 -------------------------------
 Charge =  0 Multiplicity = 1

 SCF Done:  E(RB3LYP) =  -554.975440619     A.U. after    1 cycles

  Exact polarizability:  94.329  -0.576  91.726   0.690   1.443  69.332
 Approx polarizability: 119.408   6.510 140.443   1.543   1.903 102.474

                      1                      2                      3
                      A                      A                      A
 Frequencies --     49.4658                74.0524                97.9974
 Red. masses --      6.5015                 5.4647                 6.1570
 Frc consts  --      0.0094                 0.0177                 0.0348
 IR Inten    --      3.4883                 5.3870                 4.6658

                      4                      5                      6
                      A                      A                      A
 Frequencies --    133.3511               145.6098               166.7190
 Red. masses --      4.7320                 3.3686                 3.0410
 Frc consts  --      0.0496                 0.0421                 0.0498
 IR Inten    --     13.6927                15.1697                 3.8387

                      7                      8                      9
                      A                      A                      A
 Frequencies --    185.3059               234.3928               258.7811
 Red. masses --      3.7661                 4.1458                 2.4327
 Frc consts  --      0.0762                 0.1342                 0.0960
 IR Inten    --      3.4998                 7.6470                22.4667

                     10                     11                     12
                      A                      A                      A
 Frequencies --    308.3948               329.7518               357.8204
 Red. masses --      2.5216                 2.4545                 1.3342
 Frc consts  --      0.1413                 0.1572                 0.1006
 IR Inten    --     31.3587                 0.9131               103.6342

                     13                     14                     15
                      A                      A                      A
 Frequencies --    380.1836               389.0207               451.7076
 Red. masses --      3.4447                 3.0836                 3.3015
 Frc consts  --      0.2933                 0.2749                 0.3969
 IR Inten    --      6.5460                 5.5854                13.6842

                     16                     17                     18
                      A                      A                      A
 Frequencies --    484.7564               508.3131               601.5260
 Red. masses --      1.4357                 2.0020                 4.0541
 Frc consts  --      0.1988                 0.3048                 0.8643
 IR Inten    --     37.6522                71.8006                 1.7835

                     19                     20                     21
                      A                      A                      A
 Frequencies --    691.3545               765.7497               782.6073
 Red. masses --      3.1486                 1.6184                 2.2704
 Frc consts  --      0.8867                 0.5591                 0.8193
 IR Inten    --     23.2938                 9.4610                 9.8663

                     22                     23                     24
                      A                      A                      A
 Frequencies --    859.7900               891.5364               907.4285
 Red. masses --      2.2838                 2.0707                 1.8916
 Frc consts  --      0.9947                 0.9697                 0.9177
 IR Inten    --      6.0251                 1.4003                 5.8946

                     25                     26                     27
                      A                      A                      A
 Frequencies --    951.5051              1017.3164              1064.3585
 Red. masses --      2.4775                 2.6701                 2.3531
 Frc consts  --      1.3215                 1.6282                 1.5706
 IR Inten    --     27.2311                 2.7169                19.1399

                     28                     29                     30
                      A                      A                      A
 Frequencies --   1077.6393              1090.0284              1109.3687
 Red. masses --      2.6540                 4.2955                 2.7006
 Frc consts  --      1.8159                 3.0071                 1.9582
 IR Inten    --      6.8806               110.2357                 6.8137

                     31                     32                     33
                      A                      A                      A
 Frequencies --   1119.2300              1136.0065              1156.8304
 Red. masses --      2.2226                 2.3144                 3.1184
 Frc consts  --      1.6404                 1.7598                 2.4588
 IR Inten    --     37.3681                27.8044               156.8902

                     34                     35                     36
                      A                      A                      A
 Frequencies --   1236.1074              1243.8239              1247.9379
 Red. masses --      1.1981                 1.3230                 1.1658
 Frc consts  --      1.0786                 1.2059                 1.0697
 IR Inten    --      6.3019                45.8517                33.3061

                     37                     38                     39
                      A                      A                      A
 Frequencies --   1271.4703              1333.1639              1347.6766
 Red. masses --      1.3644                 1.1784                 1.2332
 Frc consts  --      1.2996                 1.2340                 1.3196
 IR Inten    --     15.7932                 5.1741                18.4205

                     40                     41                     42
                      A                      A                      A
 Frequencies --   1358.9255              1365.3386              1374.6797
 Red. masses --      1.1646                 1.3234                 1.1893
 Frc consts  --      1.2672                 1.4535                 1.3242
 IR Inten    --      0.5456                 2.8946                 0.9622

                     43                     44                     45
                      A                      A                      A
 Frequencies --   1401.0420              1415.9664              1450.5024
 Red. masses --      1.3141                 1.1634                 1.3152
 Frc consts  --      1.5197                 1.3743                 1.6303
 IR Inten    --     46.5925                 5.0261                19.3895

                     46                     47                     48
                      A                      A                      A
 Frequencies --   1453.0686              1470.0950              1498.2655
 Red. masses --      1.4691                 1.3038                 1.0887
 Frc consts  --      1.8275                 1.6602                 1.4399
 IR Inten    --     25.4664                37.0087                 9.8572

                     49                     50                     51
                      A                      A                      A
 Frequencies --   1512.5937              1529.1994              1542.4113
 Red. masses --      1.0855                 1.0859                 1.0938
 Frc consts  --      1.4633                 1.4962                 1.5332
 IR Inten    --      4.2283                 1.5112                 1.6332

                     52                     53                     54
                      A                      A                      A
 Frequencies --   1549.4100              2360.0660              3011.1065
 Red. masses --      1.0813                12.5790                 1.0633
 Frc consts  --      1.5295                41.2803                 5.6802
 IR Inten    --      8.2713                13.2190                42.8967

                     55                     56                     57
                      A                      A                      A
 Frequencies --   3037.1047              3052.7434              3055.1644
 Red. masses --      1.0667                 1.0687                 1.0899
 Frc consts  --      5.7970                 5.8677                 5.9936
 IR Inten    --     26.3267                10.6226                46.6734

                     58                     59                     60
                      A                      A                      A
 Frequencies --   3058.8641              3060.2602              3079.9617
 Red. masses --      1.0747                 1.0689                 1.0778
 Frc consts  --      5.9247                 5.8982                 6.0240
 IR Inten    --     32.4868                53.9286                 5.4240

                     61                     62                     63
                      A                      A                      A
 Frequencies --   3094.7214              3097.3979              3104.9543
 Red. masses --      1.0965                 1.1003                 1.0996
 Frc consts  --      6.1874                 6.2194                 6.2456
 IR Inten    --     37.4288                68.5375                 7.3829

                     64                     65                     66
                      A                      A                      A
 Frequencies --   3168.0243              3697.9840              3741.6046
 Red. masses --      1.0977                 1.0647                 1.0676
 Frc consts  --      6.4913                 8.5784                 8.8062
 IR Inten    --      5.6260                32.4510                93.5993

 - Thermochemistry -
 -------------------
 Temperature   298.150 Kelvin.  Pressure   1.00000 Atm.
 Atom     1 has atomic number  6 and mass  12.00000

 Molecular mass:   159.08954 amu.
 Principal axes and moments of inertia in atomic units:
                           1         2         3
     Eigenvalues --  1029.904552595.375003069.03182
           X            0.99939  -0.03504   0.00020
           Y            0.03502   0.99904   0.02614
           Z           -0.00111  -0.02612   0.99966
 This molecule is an asymmetric top.
 Rotational symmetry number  1.
 Warning -- assumption of classical behavior for rotation
           may cause significant error
 Rotational temperatures (Kelvin)      0.08410     0.03337     0.02822
 Rotational constants (GHZ):           1.75234     0.69537     0.58805
 Zero-point vibrational energy     538316.8 (Joules/Mol)
                                  128.66079 (Kcal/Mol)
 Warning -- explicit consideration of  18 degrees of freedom as
           vibrations may cause significant error
 Vibrational temperatures:     71.17   106.54   141.00   191.86   209.50
          (Kelvin)            239.87   266.61   337.24   372.33   443.71
                              474.44   514.82   547.00   559.71   649.91
                              697.46   731.35   865.46   994.70  1101.74
                             1126.00  1237.05  1282.72  1305.59  1369.00
                             1463.69  1531.37  1550.48  1568.31  1596.13
                             1610.32  1634.46  1664.42  1778.48  1789.59
                             1795.50  1829.36  1918.13  1939.01  1955.19
                             1964.42  1977.86  2015.79  2037.26  2086.95
                             2090.64  2115.14  2155.67  2176.28  2200.18
                             2219.19  2229.26  3395.61  4332.31  4369.72
                             4392.22  4395.70  4401.02  4403.03  4431.38
                             4452.61  4456.46  4467.34  4558.08  5320.57
                             5383.33

 Zero-point correction=                           0.205034 (Hartree/Particle)
 Thermal correction to Energy=                    0.217266
 Thermal correction to Enthalpy=                  0.218210
 Thermal correction to Gibbs Free Energy=         0.166684
 Sum of electronic and zero-point Energies=           -554.770407
 Sum of electronic and thermal Energies=              -554.758174
 Sum of electronic and thermal Enthalpies=            -554.757230
 Sum of electronic and thermal Free Energies=         -554.808757

                     E (Thermal)             CV                S
                      KCal/Mol        Cal/Mol-Kelvin    Cal/Mol-Kelvin
 Total                  136.337             44.336            108.447
 Electronic               0.000              0.000              0.000
 Translational            0.889              2.981             41.102
 Rotational               0.889              2.981             30.485
 Vibrational            134.559             38.375             36.861
 Vibration     1          0.595              1.978              4.839
 Vibration     2          0.599              1.966              4.043
 Vibration     3          0.603              1.951              3.494
 Vibration     4          0.613              1.920              2.897
 Vibration     5          0.617              1.907              2.729
 Vibration     6          0.624              1.883              2.472
 Vibration     7          0.631              1.860              2.274
 Vibration     8          0.654              1.788              1.845
 Vibration     9          0.668              1.748              1.670
 Vibration    10          0.698              1.658              1.371
 Vibration    11          0.713              1.616              1.261
 Vibration    12          0.733              1.559              1.132
 Vibration    13          0.750              1.512              1.038
 Vibration    14          0.757              1.494              1.004
 Vibration    15          0.810              1.357              0.791
 Vibration    16          0.841              1.284              0.697
 Vibration    17          0.863              1.232              0.638
 Vibration    18          0.960              1.029              0.447

                           ! Non-Optimized Parameters !
 Normal termination of Gaussian 16 at Tue Dec  8 19:58:34 2020.

 ----------------------------------------------------------------------
 # B3LYP/6-311++G(d,p) empiricaldispersion=gd3bj scf=xqc pop=npa geom=c
 heck
 ----------------------------------------------------------------------

 ---------------------------------------
 CID_140325192_JID_1387_Energie_neutraal
 ---------------------------------------
 Structure from the checkpoint file:  "JID_1387.chk"
 Charge =  0 Multiplicity = 1

 SCF Done:  E(RB3LYP) =  -555.158304800     A.U. after   13 cycles
 Normal termination of Gaussian 16 at Tue Dec  8 20:00:34 2020.

 ----------------------------------------------------------------------
 # B3LYP/6-311++G(d,p) empiricaldispersion=gd3bj scf=xqc pop=npa geom=c
 heck
 ----------------------------------------------------------------------

 -------------------------------------
 CID_140325192_JID_1387_Energie_kation
 -------------------------------------
 Structure from the checkpoint file:  "JID_1387.chk"
 Charge =  1 Multiplicity = 2

 SCF Done:  E(UB3LYP) =  -554.816285481     A.U. after   22 cycles
 Normal termination of Gaussian 16 at Tue Dec  8 20:04:53 2020.
 Gaussian 16:  ES64L-G16RevA.03 25-Dec-2016

 ----------------------------------------------------------------------
 # B3LYP/6-311++G(d,p) empiricaldispersion=gd3bj scf=xqc pop=npa geom=c
 heck
 ----------------------------------------------------------------------

 ------------------------------------
 CID_140325192_JID_1387_Energie_anion
 ------------------------------------
 Structure from the checkpoint file:  "JID_1387.chk"
 Charge = -1 Multiplicity = 2

                         Standard orientation:
 ---------------------------------------------------------------------
 Center     Atomic      Atomic             Coordinates (Angstroms)
 Number     Number       Type             X           Y           Z
 ---------------------------------------------------------------------
      1          6           0        0.871072   -1.359392   -0.346258
      2          6           0        2.415315   -1.321054   -0.388905
      3          6           0        2.906209    0.050499   -0.220847
      4          7           0        3.218090    1.159256   -0.071818
      5          6           0        0.342619   -0.909445    1.019910
      6          8           0       -1.058076   -0.697584    1.068013
      7          6           0       -1.630562    0.523125    0.545084
      8          6           0       -0.708608    1.736326    0.485433
      9          8           0        0.190664    1.642079   -0.612525
     10          6           0       -2.297736    0.199528   -0.796031
     11          8           0       -3.135578   -0.935120   -0.665675
     12          1           0        0.537305   -2.379059   -0.566322
     13          1           0        0.486651   -0.693858   -1.119354
     14          1           0        2.848814   -1.944653    0.403351
     15          1           0        2.784428   -1.712008   -1.343276
     16          1           0        0.536680   -1.688684    1.766422
     17          1           0        0.882490   -0.014403    1.348683
     18          1           0       -2.427710    0.760014    1.261383
     19          1           0       -1.350846    2.623122    0.371415
     20          1           0       -0.178698    1.845667    1.441021
     21          1           0        1.065698    1.970280   -0.352104
     22          1           0       -2.928633    1.039714   -1.106703
     23          1           0       -1.534006    0.052469   -1.571835
     24          1           0       -2.614731   -1.565918   -0.138765
 ---------------------------------------------------------------------

 SCF Done:  E(UB3LYP) =  -555.147643654     A.U. after   30 cycles

 The electronic state is 2-A.
 Alpha  occ. eigenvalues --  -19.03518 -19.03274 -19.02342 -14.21747 -10.13444
 Alpha  occ. eigenvalues --  -10.13376 -10.12113 -10.12034 -10.11944 -10.11154
 Alpha  occ. eigenvalues --  -10.07823  -0.95269  -0.93283  -0.91944  -0.81759
 Alpha  occ. eigenvalues --   -0.71589  -0.68218  -0.61291  -0.58580  -0.53717
 Alpha  occ. eigenvalues --   -0.48381  -0.44627  -0.42761  -0.40780  -0.39851
 Alpha  occ. eigenvalues --   -0.39269  -0.35822  -0.35229  -0.34082  -0.33629
 Alpha  occ. eigenvalues --   -0.31812  -0.30520  -0.29182  -0.27588  -0.27284
 Alpha  occ. eigenvalues --   -0.26010  -0.24088  -0.23771  -0.23469  -0.22380
 Alpha  occ. eigenvalues --   -0.18912  -0.18664  -0.16415   0.04485
 Alpha virt. eigenvalues --    0.06097   0.07948   0.08324   0.09389   0.09725
 Alpha virt. eigenvalues --    0.10083   0.11244   0.11531   0.12161   0.12507
 Alpha virt. eigenvalues --    0.12744   0.13236   0.13923   0.15255   0.15428

  Beta  occ. eigenvalues --  -19.03513 -19.03267 -19.02338 -14.21727 -10.13421
  Beta  occ. eigenvalues --  -10.13368 -10.12111 -10.12001 -10.11938 -10.11078
  Beta  occ. eigenvalues --  -10.07799  -0.95254  -0.93272  -0.91933  -0.81721
  Beta  occ. eigenvalues --   -0.71519  -0.68176  -0.61203  -0.58542  -0.53639
  Beta  occ. eigenvalues --   -0.48325  -0.44591  -0.42699  -0.40732  -0.39814
  Beta  occ. eigenvalues --   -0.39226  -0.35754  -0.35193  -0.34041  -0.33606
  Beta  occ. eigenvalues --   -0.31758  -0.30476  -0.29131  -0.27548  -0.27247
  Beta  occ. eigenvalues --   -0.25985  -0.24034  -0.23750  -0.23421  -0.22353
  Beta  occ. eigenvalues --   -0.18894  -0.18642  -0.16393
  Beta virt. eigenvalues --    0.06701   0.07887   0.08530   0.08679   0.10144
  Beta virt. eigenvalues --    0.10306   0.10464   0.11398   0.11938   0.12425
  Beta virt. eigenvalues --    0.12759   0.13314   0.13564   0.14301   0.15358

 Mulliken charges and spin densities:
               1          2
     1  C   -1.450274   1.334047
     2  C    2.219655  -2.518349
     3  C    0.377045  -0.316478
     4  N   -0.376579   0.022161
     5  C    0.904263  -1.172354
     6  O   -0.173377  -0.002841
     7  C   -0.424941   0.600825
     8  C    0.844914  -1.375898
     9  O   -0.232369  -0.011715
    10  C   -0.172125  -0.315542
    11  O   -0.232233   0.006506
    12  H   -0.736809   0.941021
    13  H    0.508893  -0.371102
    14  H   -0.678341   0.876866
    15  H   -0.855560   1.069782
    16  H   -0.546025   0.772798
    17  H    0.085377   0.031956
    18  H   -0.222804   0.434633
    19  H   -0.120442   0.284046
    20  H   -0.151226   0.305442
    21  H    0.147382   0.108650
    22  H    0.045874   0.103184
    23  H    0.031668   0.160456
    24  H    0.208036   0.031905
 Sum of Mulliken charges =  -1.00000   1.00000

 Dipole moment (field-independent basis, Debye):
    X=             -4.4748    Y=              4.9335    Z=             -0.2699  Tot=              6.6660
 Quadrupole moment (field-independent basis, Debye-Ang):
   XX=           -131.3340   YY=           -118.6064   ZZ=            -98.6493
   XY=             10.5647   XZ=              1.5752   YZ=             -0.8099

 Summary of Natural Population Analysis:

                                       Natural Population
                Natural  -----------------------------------------------
    Atom  No    Charge         Core      Valence    Rydberg      Total
 -----------------------------------------------------------------------
      C    1   -0.20059      0.99961     2.18994    0.01104     3.20059
      C    2   -0.25033      0.99954     2.23895    0.01184     3.25033
      C    3    0.18079      0.99965     1.80284    0.01672     2.81921
      N    4   -0.21235      0.99978     2.70097    0.01161     3.71235
      C    5   -0.00890      0.99954     1.99486    0.01449     3.00890
      O    6   -0.31346      0.99988     3.30261    0.01096     4.31346
      C    7    0.04549      0.99953     1.93974    0.01524     2.95451
      C    8   -0.02732      0.99956     2.01529    0.01246     3.02732
      O    9   -0.38031      0.99989     3.37364    0.00678     4.38031
      C   10   -0.01926      0.99956     2.00816    0.01154     3.01926
      O   11   -0.37284      0.99990     3.36628    0.00666     4.37284
      H   12    0.10565      0.00000     0.39168    0.00267     0.39435
      H   13    0.10799      0.00000     0.38965    0.00236     0.39201
      H   14    0.12782      0.00000     0.36318    0.00901     0.37218
      H   15    0.12869      0.00000     0.36691    0.00440     0.37131
      H   16    0.09488      0.00000     0.40296    0.00217     0.40512
      H   17    0.08053      0.00000     0.41752    0.00195     0.41947
      H   18    0.09362      0.00000     0.40488    0.00150     0.40638
      H   19    0.08638      0.00000     0.41220    0.00143     0.41362
      H   20    0.08795      0.00000     0.41061    0.00144     0.41205
      H   21    0.24313      0.00000     0.25343    0.00344     0.25687
      H   22    0.08499      0.00000     0.41379    0.00123     0.41501
      H   23    0.08319      0.00000     0.41504    0.00177     0.41681
      H   24    0.23428      0.00000     0.26240    0.00332     0.26572
 =======================================================================
   * Total *   -0.00000     10.99646    31.83752    0.16602    43.00000

 Normal termination of Gaussian 16 at Tue Dec  8 20:09:38 2020.
