 Gaussian 16, Revision A.03,

 -----------------------------------------------------------
 # opt freq B3LYP/6-31G(d) empiricaldispersion=gd3bj scf=xqc
 -----------------------------------------------------------

 -------------------------------
 CID_108423080_JID_6456_neutraal
 -------------------------------
 Symbolic Z-matrix:
 Charge =  0 Multiplicity = 1

 SCF Done:  E(RB3LYP) =  -697.242952906     A.U. after   14 cycles
 SCF Done:  E(RB3LYP) =  -697.245996968     A.U. after   11 cycles
 SCF Done:  E(RB3LYP) =  -697.246506780     A.U. after   11 cycles
 SCF Done:  E(RB3LYP) =  -697.246447044     A.U. after   12 cycles
 SCF Done:  E(RB3LYP) =  -697.246749274     A.U. after   11 cycles
 SCF Done:  E(RB3LYP) =  -697.246835842     A.U. after   11 cycles
 SCF Done:  E(RB3LYP) =  -697.246844971     A.U. after   10 cycles
 SCF Done:  E(RB3LYP) =  -697.246848079     A.U. after    9 cycles
 SCF Done:  E(RB3LYP) =  -697.246849296     A.U. after    7 cycles
 SCF Done:  E(RB3LYP) =  -697.246849610     A.U. after    7 cycles
 SCF Done:  E(RB3LYP) =  -697.246849659     A.U. after    7 cycles
 SCF Done:  E(RB3LYP) =  -697.246849758     A.U. after    7 cycles
 Optimization completed.
    -- Stationary point found.
 Normal termination of Gaussian 16 at Thu Dec 10 22:57:17 2020.

 --------------------------------------------------------------------
 #N Geom=AllCheck Guess=TCheck SCRF=Check GenChk RB3LYP/6-31G(d) Freq
 --------------------------------------------------------------------

 Structure from the checkpoint file:  "JID_6456.chk"
 -------------------------------
 CID_108423080_JID_6456_neutraal
 -------------------------------
 Charge =  0 Multiplicity = 1

 SCF Done:  E(RB3LYP) =  -697.246849758     A.U. after    1 cycles

  Exact polarizability: 188.813   9.163 141.263 -16.778  13.268 126.640
 Approx polarizability: 244.358  12.649 223.591 -33.650  34.846 191.883

                      1                      2                      3
                      A                      A                      A
 Frequencies --     20.6596                44.4884                53.6880
 Red. masses --      4.1751                 3.4912                 2.6571
 Frc consts  --      0.0010                 0.0041                 0.0045
 IR Inten    --      0.0946                 0.3571                 0.4869

                      4                      5                      6
                      A                      A                      A
 Frequencies --     82.5392                96.8800               121.6136
 Red. masses --      3.3206                 3.0610                 2.1852
 Frc consts  --      0.0133                 0.0169                 0.0190
 IR Inten    --      4.7768                 0.5500                 0.0272

                      7                      8                      9
                      A                      A                      A
 Frequencies --    141.7889               183.5852               206.4206
 Red. masses --      2.1375                 2.7678                 1.7753
 Frc consts  --      0.0253                 0.0550                 0.0446
 IR Inten    --      0.6338                 0.0913                 0.8912

                     10                     11                     12
                      A                      A                      A
 Frequencies --    218.2243               224.2153               233.7593
 Red. masses --      1.9754                 1.7816                 3.7100
 Frc consts  --      0.0554                 0.0528                 0.1194
 IR Inten    --      0.8193                 1.0077                 0.1950

                     13                     14                     15
                      A                      A                      A
 Frequencies --    245.4935               284.6474               299.5825
 Red. masses --      1.6329                 1.5627                 2.5286
 Frc consts  --      0.0580                 0.0746                 0.1337
 IR Inten    --      1.5907                 0.5724                 4.3124

                     16                     17                     18
                      A                      A                      A
 Frequencies --    309.3040               318.2070               343.2548
 Red. masses --      2.2378                 1.4938                 1.5451
 Frc consts  --      0.1261                 0.0891                 0.1073
 IR Inten    --      2.9519                57.5875                70.5244

                     19                     20                     21
                      A                      A                      A
 Frequencies --    346.8741               409.4725               437.5647
 Red. masses --      2.3086                 2.3867                 2.8355
 Frc consts  --      0.1637                 0.2358                 0.3199
 IR Inten    --      0.7237                 3.8184                 9.6760

                     22                     23                     24
                      A                      A                      A
 Frequencies --    460.7152               467.5391               478.1586
 Red. masses --      3.0901                 3.5542                 3.3024
 Frc consts  --      0.3864                 0.4577                 0.4449
 IR Inten    --      1.4816                 0.4113                 8.7610

                     25                     26                     27
                      A                      A                      A
 Frequencies --    555.7478               564.8286               589.1153
 Red. masses --      2.9202                 3.9841                 3.9315
 Frc consts  --      0.5314                 0.7489                 0.8039
 IR Inten    --      4.4540                 3.0710                 5.4741

                     28                     29                     30
                      A                      A                      A
 Frequencies --    654.3725               698.3907               723.3378
 Red. masses --      3.8329                 2.6216                 2.1963
 Frc consts  --      0.9670                 0.7534                 0.6771
 IR Inten    --      0.3971                 0.7180                20.0525

                     31                     32                     33
                      A                      A                      A
 Frequencies --    761.6788               790.3931               800.3069
 Red. masses --      3.2598                 1.6127                 1.3673
 Frc consts  --      1.1143                 0.5936                 0.5160
 IR Inten    --     17.2811                24.8549                 1.0164

                     34                     35                     36
                      A                      A                      A
 Frequencies --    810.8181               860.1114               878.3211
 Red. masses --      1.4372                 1.7652                 1.5378
 Frc consts  --      0.5567                 0.7694                 0.6990
 IR Inten    --      7.8414                 0.1955                 1.9760

                     37                     38                     39
                      A                      A                      A
 Frequencies --    886.0745               890.4417               921.2483
 Red. masses --      2.1431                 1.5072                 2.0286
 Frc consts  --      0.9914                 0.7041                 1.0144
 IR Inten    --     14.8915                12.0406                 1.6284

                     40                     41                     42
                      A                      A                      A
 Frequencies --    949.8208               961.4845               976.4360
 Red. masses --      2.5271                 1.2681                 1.8714
 Frc consts  --      1.3433                 0.6907                 1.0512
 IR Inten    --      4.1132                 0.5241                 7.0065

                     43                     44                     45
                      A                      A                      A
 Frequencies --   1002.5459              1018.8070              1035.8538
 Red. masses --      1.9071                 5.9427                 2.0050
 Frc consts  --      1.1294                 3.6343                 1.2675
 IR Inten    --     12.5021                 0.3380                30.5733

                     46                     47                     48
                      A                      A                      A
 Frequencies --   1063.5098              1089.0638              1096.7136
 Red. masses --      2.1450                 1.9587                 2.9841
 Frc consts  --      1.4294                 1.3688                 2.1147
 IR Inten    --      0.4566                 3.7405                57.6180

                     49                     50                     51
                      A                      A                      A
 Frequencies --   1107.1566              1130.3300              1153.2792
 Red. masses --      1.9998                 1.6707                 1.5993
 Frc consts  --      1.4443                 1.2576                 1.2533
 IR Inten    --      5.3542                 7.4489                16.3940

                     52                     53                     54
                      A                      A                      A
 Frequencies --   1164.7929              1186.9996              1194.8407
 Red. masses --      1.8638                 1.2721                 1.7067
 Frc consts  --      1.4898                 1.0560                 1.4355
 IR Inten    --      9.8162                 0.7733                78.2562

                     55                     56                     57
                      A                      A                      A
 Frequencies --   1205.6404              1209.6797              1226.7763
 Red. masses --      2.2519                 1.1725                 1.4613
 Frc consts  --      1.9285                 1.0109                 1.2958
 IR Inten    --      6.5066                 0.4510                28.1190

                     58                     59                     60
                      A                      A                      A
 Frequencies --   1232.9380              1297.1583              1312.6742
 Red. masses --      1.3581                 1.3433                 1.8817
 Frc consts  --      1.2163                 1.3317                 1.9104
 IR Inten    --     17.3726                 7.5996                95.0066

                     61                     62                     63
                      A                      A                      A
 Frequencies --   1313.0565              1328.7278              1338.7754
 Red. masses --      1.7610                 1.4034                 1.3416
 Frc consts  --      1.7889                 1.4598                 1.4167
 IR Inten    --     63.2118                35.8304                25.3434

                     64                     65                     66
                      A                      A                      A
 Frequencies --   1357.6881              1376.8905              1389.0704
 Red. masses --      1.3629                 4.1530                 1.3499
 Frc consts  --      1.4802                 4.6389                 1.5346
 IR Inten    --      5.9508                19.8286                12.8737

                     67                     68                     69
                      A                      A                      A
 Frequencies --   1390.9849              1410.4375              1435.2243
 Red. masses --      1.6259                 1.4558                 1.3894
 Frc consts  --      1.8535                 1.7063                 1.6862
 IR Inten    --     15.7760                 7.1890                 8.2729

                     70                     71                     72
                      A                      A                      A
 Frequencies --   1448.5160              1449.4386              1492.4829
 Red. masses --      1.2742                 1.4224                 1.5867
 Frc consts  --      1.5752                 1.7606                 2.0824
 IR Inten    --      5.2393                18.5525                43.0050

                     73                     74                     75
                      A                      A                      A
 Frequencies --   1502.1763              1506.2907              1513.2061
 Red. masses --      1.1148                 1.3513                 1.1210
 Frc consts  --      1.4822                 1.8065                 1.5123
 IR Inten    --      1.1906                 1.9289                 0.8133

                     76                     77                     78
                      A                      A                      A
 Frequencies --   1515.0179              1520.4882              1525.2596
 Red. masses --      1.2964                 1.0480                 1.0449
 Frc consts  --      1.7532                 1.4274                 1.4322
 IR Inten    --      4.0676                 4.9484                 5.9968

                     79                     80                     81
                      A                      A                      A
 Frequencies --   1531.4947              1534.6387              1537.8591
 Red. masses --      1.0464                 1.0523                 1.0953
 Frc consts  --      1.4461                 1.4602                 1.5263
 IR Inten    --      1.2311                 3.8315                32.7569

                     82                     83                     84
                      A                      A                      A
 Frequencies --   1538.8232              1542.5300              1544.7107
 Red. masses --      1.0616                 1.1119                 2.0779
 Frc consts  --      1.4811                 1.5588                 2.9213
 IR Inten    --      3.6765                10.1796                34.0443

                     85                     86                     87
                      A                      A                      A
 Frequencies --   1644.5296              1674.0699              3010.3846
 Red. masses --      5.5872                 6.0799                 1.0713
 Frc consts  --      8.9029                10.0391                 5.7199
 IR Inten    --     59.6500                84.0699                17.6760

                     88                     89                     90
                      A                      A                      A
 Frequencies --   3022.7413              3023.1471              3033.0839
 Red. masses --      1.0580                 1.0454                 1.0628
 Frc consts  --      5.6958                 5.6294                 5.7605
 IR Inten    --    101.0355                23.1556                28.0269

                     91                     92                     93
                      A                      A                      A
 Frequencies --   3049.7252              3051.8062              3058.1770
 Red. masses --      1.0423                 1.0635                 1.0392
 Frc consts  --      5.7115                 5.8359                 5.7262
 IR Inten    --     45.9272                 3.0085                25.1867

                     94                     95                     96
                      A                      A                      A
 Frequencies --   3063.9559              3080.2336              3084.1792
 Red. masses --      1.0953                 1.1065                 1.0914
 Frc consts  --      6.0583                 6.1852                 6.1166
 IR Inten    --     34.5455                45.4234                14.6780

                     97                     98                     99
                      A                      A                      A
 Frequencies --   3095.3052              3100.6466              3109.0225
 Red. masses --      1.0925                 1.0984                 1.1012
 Frc consts  --      6.1671                 6.2215                 6.2715
 IR Inten    --     13.5302                27.1743                65.2579

                    100                    101                    102
                      A                      A                      A
 Frequencies --   3120.9137              3129.4365              3153.5205
 Red. masses --      1.1007                 1.1019                 1.0980
 Frc consts  --      6.3168                 6.3578                 6.4332
 IR Inten    --     38.3262                40.3895                23.0544

                    103                    104                    105
                      A                      A                      A
 Frequencies --   3156.1829              3187.8634              3198.2579
 Red. masses --      1.0995                 1.0882                 1.0903
 Frc consts  --      6.4532                 6.5159                 6.5707
 IR Inten    --     29.0910                16.9526                 5.7647

                    106                    107                    108
                      A                      A                      A
 Frequencies --   3227.5219              3232.2408              3717.1812
 Red. masses --      1.0903                 1.0932                 1.0658
 Frc consts  --      6.6915                 6.7292                 8.6766
 IR Inten    --     16.1213                 7.3902                 6.8963

 - Thermochemistry -
 -------------------
 Temperature   298.150 Kelvin.  Pressure   1.00000 Atm.
 Atom     1 has atomic number  6 and mass  12.00000

 Molecular mass:   222.16198 amu.
 Principal axes and moments of inertia in atomic units:
                           1         2         3
     Eigenvalues --  2072.933636955.304447122.92077
           X            0.99996   0.00833   0.00076
           Y           -0.00820   0.99389  -0.11004
           Z           -0.00167   0.11003   0.99393
 This molecule is an asymmetric top.
 Rotational symmetry number  1.
 Warning -- assumption of classical behavior for rotation
           may cause significant error
 Rotational temperatures (Kelvin)      0.04178     0.01245     0.01216
 Rotational constants (GHZ):           0.87062     0.25948     0.25337
 Zero-point vibrational energy     887020.7 (Joules/Mol)
                                  212.00303 (Kcal/Mol)
 Warning -- explicit consideration of  27 degrees of freedom as
           vibrations may cause significant error
 Vibrational temperatures:     29.72    64.01    77.25   118.76   139.39
          (Kelvin)            174.97   204.00   264.14   296.99   313.98
                              322.60   336.33   353.21   409.54   431.03
                              445.02   457.83   493.87   499.07   589.14
                              629.56   662.87   672.68   687.96   799.60
                              812.66   847.61   941.50  1004.83  1040.72
                             1095.89  1137.20  1151.46  1166.59  1237.51
                             1263.71  1274.86  1281.15  1325.47  1366.58
                             1383.36  1404.87  1442.44  1465.84  1490.36
                             1530.15  1566.92  1577.93  1592.95  1626.29
                             1659.31  1675.88  1707.83  1719.11  1734.65
                             1740.46  1765.06  1773.92  1866.32  1888.65
                             1889.20  1911.74  1926.20  1953.41  1981.04
                             1998.56  2001.32  2029.31  2064.97  2084.09
                             2085.42  2147.35  2161.30  2167.22  2177.17
                             2179.77  2187.64  2194.51  2203.48  2208.00
                             2212.64  2214.02  2219.36  2222.49  2366.11
                             2408.61  4331.27  4349.05  4349.63  4363.93
                             4387.87  4390.87  4400.03  4408.35  4431.77
                             4437.45  4453.45  4461.14  4473.19  4490.30
                             4502.56  4537.21  4541.04  4586.62  4601.58
                             4643.68  4650.47  5348.19

 Zero-point correction=                           0.337848 (Hartree/Particle)
 Thermal correction to Energy=                    0.355188
 Thermal correction to Enthalpy=                  0.356132
 Thermal correction to Gibbs Free Energy=         0.292386
 Sum of electronic and zero-point Energies=           -696.909001
 Sum of electronic and thermal Energies=              -696.891662
 Sum of electronic and thermal Enthalpies=            -696.890718
 Sum of electronic and thermal Free Energies=         -696.954464

                     E (Thermal)             CV                S
                      KCal/Mol        Cal/Mol-Kelvin    Cal/Mol-Kelvin
 Total                  222.884             66.169            134.165
 Electronic               0.000              0.000              0.000
 Translational            0.889              2.981             42.097
 Rotational               0.889              2.981             32.996
 Vibrational            221.106             60.208             59.072
 Vibration     1          0.593              1.986              6.570
 Vibration     2          0.595              1.980              5.048
 Vibration     3          0.596              1.976              4.677
 Vibration     4          0.600              1.961              3.830
 Vibration     5          0.603              1.951              3.516
 Vibration     6          0.609              1.931              3.075
 Vibration     7          0.615              1.911              2.780
 Vibration     8          0.631              1.862              2.292
 Vibration     9          0.641              1.831              2.075
 Vibration    10          0.646              1.813              1.974
 Vibration    11          0.649              1.804              1.925
 Vibration    12          0.654              1.789              1.850
 Vibration    13          0.660              1.770              1.763
 Vibration    14          0.683              1.702              1.506
 Vibration    15          0.692              1.674              1.419
 Vibration    16          0.699              1.656              1.366
 Vibration    17          0.705              1.639              1.319
 Vibration    18          0.722              1.589              1.197
 Vibration    19          0.725              1.582              1.180
 Vibration    20          0.774              1.450              0.928
 Vibration    21          0.798              1.388              0.834
 Vibration    22          0.819              1.337              0.764
 Vibration    23          0.825              1.322              0.744
 Vibration    24          0.835              1.299              0.715
 Vibration    25          0.911              1.127              0.532
 Vibration    26          0.921              1.107              0.514
 Vibration    27          0.946              1.055              0.469

 Optimization completed.
    -- Stationary point found.
 Normal termination of Gaussian 16 at Thu Dec 10 23:10:38 2020.

 ----------------------------------------------------------------------
 # B3LYP/6-311++G(d,p) empiricaldispersion=gd3bj scf=xqc pop=npa geom=c
 heck
 ----------------------------------------------------------------------

 ---------------------------------------
 CID_108423080_JID_6456_Energie_neutraal
 ---------------------------------------
 Structure from the checkpoint file:  "JID_6456.chk"
 Charge =  0 Multiplicity = 1

 SCF Done:  E(RB3LYP) =  -697.447145479     A.U. after   15 cycles
 Normal termination of Gaussian 16 at Thu Dec 10 23:16:39 2020.

 ----------------------------------------------------------------------
 # B3LYP/6-311++G(d,p) empiricaldispersion=gd3bj scf=xqc pop=npa geom=c
 heck
 ----------------------------------------------------------------------

 -------------------------------------
 CID_108423080_JID_6456_Energie_kation
 -------------------------------------
 Structure from the checkpoint file:  "JID_6456.chk"
 Charge =  1 Multiplicity = 2

 SCF Done:  E(UB3LYP) =  -697.156470051     A.U. after   26 cycles
 Normal termination of Gaussian 16 at Thu Dec 10 23:30:34 2020.
 Gaussian 16:  ES64L-G16RevA.03 25-Dec-2016

 ----------------------------------------------------------------------
 # B3LYP/6-311++G(d,p) empiricaldispersion=gd3bj scf=xqc pop=npa geom=c
 heck
 ----------------------------------------------------------------------

 ------------------------------------
 CID_108423080_JID_6456_Energie_anion
 ------------------------------------
 Structure from the checkpoint file:  "JID_6456.chk"
 Charge = -1 Multiplicity = 2

                         Standard orientation:
 ---------------------------------------------------------------------
 Center     Atomic      Atomic             Coordinates (Angstroms)
 Number     Number       Type             X           Y           Z
 ---------------------------------------------------------------------
      1          6           0       -3.204093    2.055495   -1.522272
      2          6           0       -2.726724    0.640439   -1.864128
      3          6           0       -1.573948    0.111349   -0.996278
      4          6           0       -1.870280   -0.177739    0.484182
      5          6           0       -3.148411   -1.016323    0.693050
      6          6           0       -3.203422   -2.369888   -0.021293
      7          6           0       -0.659219   -0.884259    1.153419
      8          6           0        0.683613   -0.234859    0.913748
      9          6           0        1.624990   -0.869294    0.105872
     10          6           0        2.872940   -0.285039   -0.148316
     11          6           0        3.189617    0.953877    0.414611
     12          6           0        2.243271    1.588793    1.225643
     13          6           0        1.005370    1.010300    1.479243
     14          8           0        3.706938   -1.006995   -0.956127
     15          6           0        4.979769   -0.458492   -1.248182
     16          8           0       -2.071455    1.102312    1.113566
     17          1           0       -3.623550    2.104778   -0.515304
     18          1           0       -3.963769    2.391381   -2.238081
     19          1           0       -2.368785    2.764742   -1.557490
     20          1           0       -3.577261   -0.052647   -1.829509
     21          1           0       -2.379108    0.627143   -2.905962
     22          1           0       -1.191778   -0.815369   -1.442740
     23          1           0       -0.743788    0.825264   -1.026473
     24          1           0       -3.270378   -1.178260    1.775307
     25          1           0       -3.999391   -0.401379    0.379537
     26          1           0       -2.402650   -3.041204    0.305968
     27          1           0       -4.155128   -2.871033    0.185880
     28          1           0       -3.119794   -2.255590   -1.106817
     29          1           0       -0.866592   -0.927703    2.232747
     30          1           0       -0.616401   -1.921866    0.806844
     31          1           0        1.410966   -1.833392   -0.346250
     32          1           0        4.148522    1.425126    0.235072
     33          1           0        2.487167    2.553166    1.663308
     34          1           0        0.273855    1.525116    2.090622
     35          1           0        4.894433    0.504207   -1.769789
     36          1           0        5.578322   -0.319722   -0.337852
     37          1           0        5.476163   -1.179586   -1.900029
     38          1           0       -2.355756    0.928123    2.025700
 ---------------------------------------------------------------------

 SCF Done:  E(UB3LYP) =  -697.434047791     A.U. after   33 cycles
 SCF Done:  E(UB3LYP) =  -697.434047791     a.u. after    1 cycles

 The electronic state is 2-A.
 Alpha  occ. eigenvalues --  -19.06069 -19.02367 -10.13948 -10.13593 -10.12866
 Alpha  occ. eigenvalues --  -10.08713 -10.08132 -10.07675 -10.07653 -10.07565
 Alpha  occ. eigenvalues --  -10.07487 -10.07317 -10.07200 -10.06948 -10.06775
 Alpha  occ. eigenvalues --  -10.06207  -0.97649  -0.92889  -0.76328  -0.71953
 Alpha  occ. eigenvalues --   -0.68268  -0.67136  -0.66389  -0.62396  -0.60193
 Alpha  occ. eigenvalues --   -0.58939  -0.55157  -0.51477  -0.51210  -0.48843
 Alpha  occ. eigenvalues --   -0.45732  -0.43834  -0.40340  -0.39267  -0.39116
 Alpha  occ. eigenvalues --   -0.38388  -0.37715  -0.35879  -0.34673  -0.33879
 Alpha  occ. eigenvalues --   -0.33726  -0.32761  -0.32468  -0.31189  -0.30130
 Alpha  occ. eigenvalues --   -0.29718  -0.29270  -0.27851  -0.27137  -0.26781
 Alpha  occ. eigenvalues --   -0.25989  -0.25378  -0.25107  -0.24600  -0.23755
 Alpha  occ. eigenvalues --   -0.23449  -0.22686  -0.21205  -0.18059  -0.15278
 Alpha  occ. eigenvalues --   -0.13017   0.04032
 Alpha virt. eigenvalues --    0.05292   0.06486   0.06983   0.07545   0.07829
 Alpha virt. eigenvalues --    0.08118   0.08932   0.09200   0.09304   0.09481
 Alpha virt. eigenvalues --    0.10005   0.10424   0.10559   0.11018   0.12005

  Beta  occ. eigenvalues --  -19.06060 -19.02344 -10.13948 -10.13594 -10.12821
  Beta  occ. eigenvalues --  -10.08708 -10.08127 -10.07657 -10.07637 -10.07557
  Beta  occ. eigenvalues --  -10.07459 -10.07312 -10.07176 -10.06938 -10.06767
  Beta  occ. eigenvalues --  -10.06200  -0.97630  -0.92843  -0.76312  -0.71925
  Beta  occ. eigenvalues --   -0.68248  -0.67102  -0.66363  -0.62365  -0.60140
  Beta  occ. eigenvalues --   -0.58911  -0.55102  -0.51437  -0.51184  -0.48799
  Beta  occ. eigenvalues --   -0.45680  -0.43799  -0.40304  -0.39236  -0.39083
  Beta  occ. eigenvalues --   -0.38367  -0.37685  -0.35847  -0.34644  -0.33860
  Beta  occ. eigenvalues --   -0.33698  -0.32732  -0.32429  -0.31160  -0.30100
  Beta  occ. eigenvalues --   -0.29701  -0.29239  -0.27823  -0.27113  -0.26753
  Beta  occ. eigenvalues --   -0.25951  -0.25349  -0.25084  -0.24582  -0.23726
  Beta  occ. eigenvalues --   -0.23422  -0.22661  -0.21175  -0.18035  -0.15254
  Beta  occ. eigenvalues --   -0.12997
  Beta virt. eigenvalues --    0.06045   0.06468   0.07111   0.07232   0.08002
  Beta virt. eigenvalues --    0.08099   0.08320   0.09105   0.09501   0.09614
  Beta virt. eigenvalues --    0.09734   0.10375   0.10642   0.10834   0.11365

 Mulliken charges and spin densities:
               1          2
     1  C   -0.442063  -0.121838
     2  C    0.132936  -0.451169
     3  C   -0.454020  -0.131337
     4  C   -0.426902   0.679703
     5  C   -0.074173  -0.023809
     6  C    0.410064  -0.975483
     7  C    1.434859  -2.450589
     8  C    0.879449   0.575301
     9  C   -1.500555   0.987579
    10  C   -0.652243   0.054891
    11  C    0.693733  -0.502908
    12  C    0.040173  -0.353784
    13  C   -0.144486  -0.151421
    14  O   -0.207354   0.052278
    15  C    0.870592  -1.209783
    16  O   -0.137836   0.000149
    17  H    0.107479   0.071480
    18  H    0.014395   0.106945
    19  H    0.069558   0.057385
    20  H    0.134395  -0.015504
    21  H    0.075834   0.078108
    22  H    0.016369   0.135072
    23  H    0.395914  -0.204458
    24  H   -0.473721   0.609925
    25  H    0.020526   0.166491
    26  H   -0.023608   0.166451
    27  H   -0.334973   0.486950
    28  H   -0.072480   0.208334
    29  H   -0.281566   0.498795
    30  H    0.235285  -0.087380
    31  H    0.010904   0.171285
    32  H   -0.215830   0.394940
    33  H   -0.220944   0.397886
    34  H    0.085074   0.066588
    35  H   -0.256289   0.411150
    36  H   -0.246361   0.401137
    37  H   -0.433016   0.602127
    38  H   -0.029120   0.298515
 Sum of Mulliken charges =  -1.00000   1.00000

 Dipole moment (field-independent basis, Debye):
    X=             -2.7088    Y=              0.8432    Z=             -1.4768  Tot=              3.1984
 Quadrupole moment (field-independent basis, Debye-Ang):
   XX=           -206.0336   YY=           -139.4134   ZZ=           -141.2540
   XY=             -6.4181   XZ=             16.6944   YZ=              1.6657

 Summary of Natural Population Analysis:

                                       Natural Population
                Natural  -----------------------------------------------
    Atom  No    Charge         Core      Valence    Rydberg      Total
 -----------------------------------------------------------------------
      C    1   -0.28607      0.99966     2.28210    0.00432     3.28607
      C    2   -0.18917      0.99964     2.18239    0.00713     3.18917
      C    3   -0.20009      0.99956     2.19149    0.00904     3.20009
      C    4    0.13999      0.99951     1.84426    0.01625     2.86001
      C    5   -0.20425      0.99958     2.19355    0.01112     3.20425
      C    6   -0.28753      0.99966     2.28192    0.00595     3.28753
      C    7   -0.20746      0.99955     2.19669    0.01123     3.20746
      C    8   -0.00630      0.99952     1.99606    0.01072     3.00630
      C    9   -0.11902      0.99947     2.11115    0.00841     3.11902
      C   10    0.16193      0.99938     1.82508    0.01361     2.83807
      C   11   -0.14995      0.99952     2.14160    0.00883     3.14995
      C   12   -0.08901      0.99957     2.08029    0.00915     3.08901
      C   13   -0.11318      0.99950     2.10402    0.00966     3.11318
      O   14   -0.27363      0.99986     3.26391    0.00986     4.27363
      C   15   -0.10073      0.99960     2.09201    0.00912     3.10073
      O   16   -0.37921      0.99989     3.37209    0.00723     4.37921
      H   17    0.10643      0.00000     0.39244    0.00113     0.39357
      H   18    0.09100      0.00000     0.40815    0.00085     0.40900
      H   19    0.09616      0.00000     0.40287    0.00097     0.40384
      H   20    0.09265      0.00000     0.40604    0.00131     0.40735
      H   21    0.09331      0.00000     0.40558    0.00110     0.40669
      H   22    0.10128      0.00000     0.39753    0.00119     0.39872
      H   23    0.10892      0.00000     0.38968    0.00140     0.39108
      H   24    0.09890      0.00000     0.39874    0.00236     0.40110
      H   25    0.10166      0.00000     0.39707    0.00127     0.39834
      H   26    0.09723      0.00000     0.40169    0.00108     0.40277
      H   27    0.10183      0.00000     0.39725    0.00093     0.39817
      H   28    0.09664      0.00000     0.40240    0.00097     0.40336
      H   29    0.10530      0.00000     0.39317    0.00153     0.39470
      H   30    0.10301      0.00000     0.39523    0.00176     0.39699
      H   31    0.10351      0.00000     0.39485    0.00164     0.39649
      H   32    0.10654      0.00000     0.39203    0.00143     0.39346
      H   33    0.09926      0.00000     0.39988    0.00087     0.40074
      H   34    0.10704      0.00000     0.39149    0.00147     0.39296
      H   35    0.08530      0.00000     0.41292    0.00178     0.41470
      H   36    0.08500      0.00000     0.41315    0.00184     0.41500
      H   37    0.09410      0.00000     0.40458    0.00133     0.40590
      H   38    0.22863      0.00000     0.26752    0.00386     0.27137
 =======================================================================
   * Total *   -0.00000     15.99347    44.82286    0.18368    61.00000

 Normal termination of Gaussian 16 at Thu Dec 10 23:47:52 2020.
