 Gaussian 16, Revision A.03,

 -----------------------------------------------------------
 # opt freq B3LYP/6-31G(d) empiricaldispersion=gd3bj scf=xqc
 -----------------------------------------------------------

 -------------------------------
 CID_107417524_JID_1873_neutraal
 -------------------------------
 Symbolic Z-matrix:
 Charge =  0 Multiplicity = 1

 SCF Done:  E(RB3LYP) =  -445.996707608     A.U. after   14 cycles
 SCF Done:  E(RB3LYP) =  -446.014602169     A.U. after   12 cycles
 SCF Done:  E(RB3LYP) =  -446.015455153     A.U. after   12 cycles
 SCF Done:  E(RB3LYP) =  -446.014029452     A.U. after   12 cycles
 SCF Done:  E(RB3LYP) =  -446.015996373     A.U. after   11 cycles
 SCF Done:  E(RB3LYP) =  -446.015789958     A.U. after   11 cycles
 SCF Done:  E(RB3LYP) =  -446.016292295     A.U. after   11 cycles
 SCF Done:  E(RB3LYP) =  -446.016303797     A.U. after    9 cycles
 SCF Done:  E(RB3LYP) =  -446.016310363     A.U. after    9 cycles
 SCF Done:  E(RB3LYP) =  -446.016317617     A.U. after    9 cycles
 SCF Done:  E(RB3LYP) =  -446.018634147     A.U. after   10 cycles
 SCF Done:  E(RB3LYP) =  -446.018643337     A.U. after   10 cycles
 SCF Done:  E(RB3LYP) =  -446.018645375     A.U. after    9 cycles
 SCF Done:  E(RB3LYP) =  -446.018649717     A.U. after    9 cycles
 SCF Done:  E(RB3LYP) =  -446.018649754     A.U. after    7 cycles
 Optimization completed.
    -- Stationary point found.
 Normal termination of Gaussian 16 at Tue Dec  8 22:01:20 2020.

 --------------------------------------------------------------------
 #N Geom=AllCheck Guess=TCheck SCRF=Check GenChk RB3LYP/6-31G(d) Freq
 --------------------------------------------------------------------

 Structure from the checkpoint file:  "JID_1873.chk"
 -------------------------------
 CID_107417524_JID_1873_neutraal
 -------------------------------
 Charge =  0 Multiplicity = 1

 SCF Done:  E(RB3LYP) =  -446.018649754     A.U. after    1 cycles

  Exact polarizability: 116.224  -1.488  95.380   5.723  -4.867 102.225
 Approx polarizability: 139.215  -5.720 135.192  13.793 -14.962 163.907

                      1                      2                      3
                      A                      A                      A
 Frequencies --     28.2047                50.8538                68.7133
 Red. masses --      3.5298                 3.0527                 3.2090
 Frc consts  --      0.0017                 0.0047                 0.0089
 IR Inten    --      0.1296                 0.0144                 0.0853

                      4                      5                      6
                      A                      A                      A
 Frequencies --    116.9860               162.3718               211.8749
 Red. masses --      3.0989                 2.8013                 3.1370
 Frc consts  --      0.0250                 0.0435                 0.0830
 IR Inten    --      0.3652                 0.3436                 1.8025

                      7                      8                      9
                      A                      A                      A
 Frequencies --    234.3689               261.8026               288.8076
 Red. masses --      1.9944                 1.0609                 3.1304
 Frc consts  --      0.0645                 0.0428                 0.1538
 IR Inten    --      0.4858                 0.1473                 1.4381

                     10                     11                     12
                      A                      A                      A
 Frequencies --    309.8721               345.7048               366.4502
 Red. masses --      2.5576                 2.4989                 2.8829
 Frc consts  --      0.1447                 0.1760                 0.2281
 IR Inten    --      0.4992                 3.4304                 0.8068

                     13                     14                     15
                      A                      A                      A
 Frequencies --    396.4425               489.5042               551.1251
 Red. masses --      2.1421                 2.5821                 2.4676
 Frc consts  --      0.1984                 0.3645                 0.4416
 IR Inten    --      1.0931                 2.7889                 5.5207

                     16                     17                     18
                      A                      A                      A
 Frequencies --    591.2727               596.6997               626.4667
 Red. masses --      2.7003                 1.2019                 1.2899
 Frc consts  --      0.5562                 0.2521                 0.2983
 IR Inten    --      2.0383                46.1239                43.0676

                     19                     20                     21
                      A                      A                      A
 Frequencies --    652.0493               775.2266               808.1765
 Red. masses --      2.8000                 2.2171                 1.5667
 Frc consts  --      0.7014                 0.7850                 0.6029
 IR Inten    --      8.0478                 1.3342                81.5672

                     22                     23                     24
                      A                      A                      A
 Frequencies --    848.8265               884.4291               908.0741
 Red. masses --      1.8867                 1.5330                 2.1572
 Frc consts  --      0.8009                 0.7065                 1.0480
 IR Inten    --      0.6896                 0.4828                 0.1642

                     25                     26                     27
                      A                      A                      A
 Frequencies --    925.8091               934.4773               942.9328
 Red. masses --      3.2705                 2.2333                 2.0189
 Frc consts  --      1.6516                 1.1490                 1.0576
 IR Inten    --     22.3509                 5.3719                 0.4403

                     28                     29                     30
                      A                      A                      A
 Frequencies --    965.3684              1007.7480              1015.6205
 Red. masses --      1.5194                 2.3197                 1.5038
 Frc consts  --      0.8343                 1.3880                 0.9139
 IR Inten    --      9.3996                 0.1373                 5.2855

                     31                     32                     33
                      A                      A                      A
 Frequencies --   1034.7561              1074.2723              1076.0046
 Red. masses --      1.3379                 1.9546                 1.7860
 Frc consts  --      0.8440                 1.3291                 1.2183
 IR Inten    --      0.5817                 1.1737                 2.4842

                     34                     35                     36
                      A                      A                      A
 Frequencies --   1107.7223              1146.3036              1156.5751
 Red. masses --      2.0200                 4.1729                 2.1912
 Frc consts  --      1.4604                 3.2306                 1.7269
 IR Inten    --      3.3890                47.0410                 4.7100

                     37                     38                     39
                      A                      A                      A
 Frequencies --   1177.2362              1210.1034              1216.6988
 Red. masses --      1.9632                 1.5411                 1.5470
 Frc consts  --      1.6030                 1.3296                 1.3493
 IR Inten    --      4.7933                 1.0922                 2.4455

                     40                     41                     42
                      A                      A                      A
 Frequencies --   1257.2024              1275.7841              1307.3340
 Red. masses --      1.2596                 1.2627                 1.2780
 Frc consts  --      1.1730                 1.2109                 1.2869
 IR Inten    --      0.9162                 0.7625                 3.6602

                     43                     44                     45
                      A                      A                      A
 Frequencies --   1314.9497              1336.5560              1350.0402
 Red. masses --      1.3819                 1.2259                 1.3758
 Frc consts  --      1.4078                 1.2903                 1.4774
 IR Inten    --      0.3521                 0.9767                 0.6221

                     46                     47                     48
                      A                      A                      A
 Frequencies --   1354.8447              1367.1839              1376.3518
 Red. masses --      1.2856                 1.2474                 1.2647
 Frc consts  --      1.3904                 1.3737                 1.4116
 IR Inten    --      4.1543                 1.6626                19.3607

                     49                     50                     51
                      A                      A                      A
 Frequencies --   1383.7651              1405.9036              1426.6527
 Red. masses --      1.4268                 1.4599                 1.4517
 Frc consts  --      1.6096                 1.7002                 1.7408
 IR Inten    --      2.2722                 1.9619                 4.6736

                     52                     53                     54
                      A                      A                      A
 Frequencies --   1440.8604              1493.5858              1516.9730
 Red. masses --      1.2362                 1.0711                 1.1069
 Frc consts  --      1.5121                 1.4078                 1.5008
 IR Inten    --      4.2097                 2.8476                 6.3345

                     55                     56                     57
                      A                      A                      A
 Frequencies --   1519.4591              1521.2137              1530.0100
 Red. masses --      1.1164                 1.1354                 1.0547
 Frc consts  --      1.5186                 1.5480                 1.4547
 IR Inten    --     11.1440                15.2929                 9.2035

                     58                     59                     60
                      A                      A                      A
 Frequencies --   1532.8643              1538.8376              1543.3021
 Red. masses --      1.0600                 1.0977                 1.0896
 Frc consts  --      1.4674                 1.5316                 1.5291
 IR Inten    --      6.6374                 1.8843                 4.6018

                     61                     62                     63
                      A                      A                      A
 Frequencies --   2227.8544              2961.3875              3017.7902
 Red. masses --      5.9438                 1.0704                 1.0833
 Frc consts  --     17.3815                 5.5307                 5.8128
 IR Inten    --      0.0219                34.4616                26.9042

                     64                     65                     66
                      A                      A                      A
 Frequencies --   3027.4744              3037.1389              3039.3248
 Red. masses --      1.0721                 1.0525                 1.0630
 Frc consts  --      5.7893                 5.7203                 5.7854
 IR Inten    --     11.1925                 0.3115                41.3382

                     67                     68                     69
                      A                      A                      A
 Frequencies --   3043.3147              3044.2918              3051.0629
 Red. masses --      1.0596                 1.0654                 1.0812
 Frc consts  --      5.7820                 5.8174                 5.9302
 IR Inten    --     22.9223                50.5423                 4.3593

                     70                     71                     72
                      A                      A                      A
 Frequencies --   3052.0907              3079.1983              3091.5362
 Red. masses --      1.0721                 1.1040                 1.0996
 Frc consts  --      5.8841                 6.1670                 6.1919
 IR Inten    --     71.0650                16.1895                30.0508

                     73                     74                     75
                      A                      A                      A
 Frequencies --   3095.3887              3101.4785              3104.9168
 Red. masses --      1.0946                 1.1024                 1.1032
 Frc consts  --      6.1795                 6.2475                 6.2662
 IR Inten    --     43.2696                46.9089                65.8196

                     76                     77                     78
                      A                      A                      A
 Frequencies --   3111.5458              3491.2903              3494.3421
 Red. masses --      1.1026                 1.0733                 1.1594
 Frc consts  --      6.2897                 7.7084                 8.3410
 IR Inten    --     40.3878                 0.2491                50.4387

 - Thermochemistry -
 -------------------
 Temperature   298.150 Kelvin.  Pressure   1.00000 Atm.
 Atom     1 has atomic number  6 and mass  12.00000

 Molecular mass:   151.13610 amu.
 Principal axes and moments of inertia in atomic units:
                           1         2         3
     Eigenvalues --   932.132683369.509023535.15557
           X            0.99998  -0.00097  -0.00570
           Y            0.00106   0.99986   0.01653
           Z            0.00568  -0.01654   0.99985
 This molecule is an asymmetric top.
 Rotational symmetry number  1.
 Warning -- assumption of classical behavior for rotation
           may cause significant error
 Rotational temperatures (Kelvin)      0.09292     0.02571     0.02450
 Rotational constants (GHZ):           1.93614     0.53561     0.51051
 Zero-point vibrational energy     666505.6 (Joules/Mol)
                                  159.29866 (Kcal/Mol)
 Warning -- explicit consideration of  17 degrees of freedom as
           vibrations may cause significant error
 Vibrational temperatures:     40.58    73.17    98.86   168.32   233.62
          (Kelvin)            304.84   337.20   376.68   415.53   445.84
                              497.39   527.24   570.39   704.29   792.95
                              850.71   858.52   901.35   938.15  1115.38
                             1162.79  1221.27  1272.50  1306.52  1332.03
                             1344.50  1356.67  1388.95  1449.92  1461.25
                             1488.78  1545.64  1548.13  1593.77  1649.28
                             1664.05  1693.78  1741.07  1750.56  1808.83
                             1835.57  1880.96  1891.92  1923.01  1942.41
                             1949.32  1967.07  1980.26  1990.93  2022.78
                             2052.63  2073.08  2148.94  2182.59  2186.16
                             2188.69  2201.34  2205.45  2214.04  2220.47
                             3205.39  4260.78  4341.93  4355.86  4369.77
                             4372.91  4378.65  4380.06  4389.80  4391.28
                             4430.28  4448.03  4453.57  4462.34  4467.28
                             4476.82  5023.19  5027.58

 Zero-point correction=                           0.253859 (Hartree/Particle)
 Thermal correction to Energy=                    0.265889
 Thermal correction to Enthalpy=                  0.266833
 Thermal correction to Gibbs Free Energy=         0.214905
 Sum of electronic and zero-point Energies=           -445.764791
 Sum of electronic and thermal Energies=              -445.752761
 Sum of electronic and thermal Enthalpies=            -445.751817
 Sum of electronic and thermal Free Energies=         -445.803745

                     E (Thermal)             CV                S
                      KCal/Mol        Cal/Mol-Kelvin    Cal/Mol-Kelvin
 Total                  166.848             45.346            109.292
 Electronic               0.000              0.000              0.000
 Translational            0.889              2.981             40.949
 Rotational               0.889              2.981             30.785
 Vibrational            165.070             39.384             37.557
 Vibration     1          0.593              1.984              5.952
 Vibration     2          0.595              1.977              4.784
 Vibration     3          0.598              1.969              4.190
 Vibration     4          0.608              1.935              3.150
 Vibration     5          0.622              1.889              2.522
 Vibration     6          0.643              1.823              2.027
 Vibration     7          0.654              1.788              1.845
 Vibration     8          0.669              1.743              1.650
 Vibration     9          0.685              1.695              1.481
 Vibration    10          0.699              1.655              1.363
 Vibration    11          0.724              1.584              1.186
 Vibration    12          0.739              1.541              1.095
 Vibration    13          0.763              1.478              0.976
 Vibration    14          0.845              1.273              0.685
 Vibration    15          0.906              1.137              0.542
 Vibration    16          0.949              1.050              0.465
 Vibration    17          0.955              1.039              0.455

 Optimization completed.
    -- Stationary point found.
 Normal termination of Gaussian 16 at Tue Dec  8 22:06:57 2020.

 ----------------------------------------------------------------------
 # B3LYP/6-311++G(d,p) empiricaldispersion=gd3bj scf=xqc pop=npa geom=c
 heck
 ----------------------------------------------------------------------

 ---------------------------------------
 CID_107417524_JID_1873_Energie_neutraal
 ---------------------------------------
 Structure from the checkpoint file:  "JID_1873.chk"
 Charge =  0 Multiplicity = 1

 SCF Done:  E(RB3LYP) =  -446.147934664     A.U. after   14 cycles
 Normal termination of Gaussian 16 at Tue Dec  8 22:09:04 2020.

 ----------------------------------------------------------------------
 # B3LYP/6-311++G(d,p) empiricaldispersion=gd3bj scf=xqc pop=npa geom=c
 heck
 ----------------------------------------------------------------------

 -------------------------------------
 CID_107417524_JID_1873_Energie_kation
 -------------------------------------
 Structure from the checkpoint file:  "JID_1873.chk"
 Charge =  1 Multiplicity = 2

 SCF Done:  E(UB3LYP) =  -445.827404347     A.U. after   24 cycles
 Normal termination of Gaussian 16 at Tue Dec  8 22:13:50 2020.
 Gaussian 16:  ES64L-G16RevA.03 25-Dec-2016

 ----------------------------------------------------------------------
 # B3LYP/6-311++G(d,p) empiricaldispersion=gd3bj scf=xqc pop=npa geom=c
 heck
 ----------------------------------------------------------------------

 ------------------------------------
 CID_107417524_JID_1873_Energie_anion
 ------------------------------------
 Structure from the checkpoint file:  "JID_1873.chk"
 Charge = -1 Multiplicity = 2

                         Standard orientation:
 ---------------------------------------------------------------------
 Center     Atomic      Atomic             Coordinates (Angstroms)
 Number     Number       Type             X           Y           Z
 ---------------------------------------------------------------------
      1          6           0        1.579185   -2.119513   -0.063975
      2          6           0        1.292058   -0.687787   -0.528939
      3          6           0        2.546359    0.002371   -1.134410
      4          6           0        3.043749    0.958036   -0.038562
      5          6           0        1.737517    1.483635    0.568136
      6          6           0        0.838741    0.233304    0.652421
      7          6           0       -0.649720    0.569800    0.636456
      8          7           0       -1.470969   -0.626079    0.840993
      9          6           0       -2.910442   -0.354081    0.826137
     10          6           0       -3.430289    0.197368   -0.438584
     11          6           0       -3.798841    0.633363   -1.503607
     12          1           0        1.835842   -2.770907   -0.907637
     13          1           0        2.421517   -2.134992    0.639143
     14          1           0        0.715845   -2.552540    0.454419
     15          1           0        0.498470   -0.724062   -1.288435
     16          1           0        3.305376   -0.721177   -1.452351
     17          1           0        2.264520    0.583740   -2.020972
     18          1           0        3.697938    1.749148   -0.420353
     19          1           0        3.609318    0.402397    0.721327
     20          1           0        1.287519    2.221559   -0.111526
     21          1           0        1.868402    1.972679    1.539615
     22          1           0        1.049611   -0.288462    1.595354
     23          1           0       -0.878491    1.267502    1.453646
     24          1           0       -0.893581    1.094207   -0.305396
     25          1           0       -1.267143   -1.290970    0.096183
     26          1           0       -3.438085   -1.287153    1.059799
     27          1           0       -3.130972    0.341356    1.646384
     28          1           0       -4.139199    1.021247   -2.436593
 ---------------------------------------------------------------------

 SCF Done:  E(UB3LYP) =  -446.129719718     A.U. after   33 cycles
 SCF Done:  E(UB3LYP) =  -446.129719718     a.u. after    1 cycles

 The electronic state is 2-A.
 Alpha  occ. eigenvalues --  -14.20680 -10.12327 -10.08961 -10.07595 -10.07114
 Alpha  occ. eigenvalues --  -10.06841 -10.06644 -10.06420 -10.06397 -10.06123
 Alpha  occ. eigenvalues --  -10.05877  -0.81842  -0.74290  -0.67194  -0.64628
 Alpha  occ. eigenvalues --   -0.63590  -0.58911  -0.55896  -0.52505  -0.47379
 Alpha  occ. eigenvalues --   -0.44743  -0.43973  -0.40803  -0.38069  -0.37636
 Alpha  occ. eigenvalues --   -0.36810  -0.34217  -0.32416  -0.32214  -0.30965
 Alpha  occ. eigenvalues --   -0.29493  -0.28785  -0.27621  -0.23825  -0.23191
 Alpha  occ. eigenvalues --   -0.22655  -0.22186  -0.21775  -0.20978  -0.18519
 Alpha  occ. eigenvalues --   -0.17735  -0.14112   0.04646
 Alpha virt. eigenvalues --    0.06429   0.07145   0.07303   0.08262   0.08885
 Alpha virt. eigenvalues --    0.09243   0.10411   0.10510   0.10942   0.11193
 Alpha virt. eigenvalues --    0.11740   0.12445   0.12551   0.13385   0.14067

  Beta  occ. eigenvalues --  -14.20667 -10.12303 -10.08948 -10.07599 -10.07104
  Beta  occ. eigenvalues --  -10.06836 -10.06608 -10.06405 -10.06379 -10.06104
  Beta  occ. eigenvalues --  -10.05854  -0.81821  -0.74267  -0.67164  -0.64596
  Beta  occ. eigenvalues --   -0.63560  -0.58862  -0.55843  -0.52452  -0.47321
  Beta  occ. eigenvalues --   -0.44698  -0.43909  -0.40762  -0.38027  -0.37606
  Beta  occ. eigenvalues --   -0.36779  -0.34169  -0.32392  -0.32180  -0.30934
  Beta  occ. eigenvalues --   -0.29461  -0.28750  -0.27584  -0.23790  -0.23163
  Beta  occ. eigenvalues --   -0.22625  -0.22157  -0.21729  -0.20952  -0.18485
  Beta  occ. eigenvalues --   -0.17709  -0.14092
  Beta virt. eigenvalues --    0.06709   0.07388   0.07765   0.07935   0.08945
  Beta virt. eigenvalues --    0.09287   0.09665   0.10753   0.10881   0.11065
  Beta virt. eigenvalues --    0.11493   0.11968   0.12667   0.12723   0.13612

 Mulliken charges and spin densities:
               1          2
     1  C    0.934310  -1.654876
     2  C   -0.895725   1.220176
     3  C    0.132258  -0.656764
     4  C    0.596009  -0.930935
     5  C   -0.715131   0.270348
     6  C    0.481751  -0.109588
     7  C   -0.283485  -0.594288
     8  N   -0.051014   0.112411
     9  C    1.564572  -2.341964
    10  C    6.262749  -4.926095
    11  C   -6.373932   5.269172
    12  H   -0.208437   0.348599
    13  H   -0.155105   0.296973
    14  H    0.015036   0.108149
    15  H    0.010586   0.180932
    16  H   -0.211018   0.369270
    17  H   -0.184813   0.334870
    18  H   -0.333037   0.491437
    19  H    0.045449   0.087771
    20  H   -0.073866   0.216121
    21  H   -0.098184   0.231581
    22  H    0.097734   0.109127
    23  H   -0.112617   0.267744
    24  H    0.365334  -0.226967
    25  H    0.097118   0.105668
    26  H   -0.227629   0.430635
    27  H   -0.024374   0.178780
    28  H   -1.654539   1.811713
 Sum of Mulliken charges =  -1.00000   1.00000

 Dipole moment (field-independent basis, Debye):
    X=              2.6740    Y=             -0.6615    Z=              3.9128  Tot=              4.7852
 Quadrupole moment (field-independent basis, Debye-Ang):
   XX=           -151.9673   YY=           -109.9368   ZZ=           -112.1291
   XY=              3.2924   XZ=             -9.8904   YZ=              4.4206

 Summary of Natural Population Analysis:

                                       Natural Population
                Natural  -----------------------------------------------
    Atom  No    Charge         Core      Valence    Rydberg      Total
 -----------------------------------------------------------------------
      C    1   -0.28360      0.99965     2.27775    0.00620     3.28360
      C    2   -0.11361      0.99960     2.10349    0.01052     3.11361
      C    3   -0.18835      0.99962     2.18007    0.00865     3.18835
      C    4   -0.19072      0.99964     2.18306    0.00802     3.19072
      C    5   -0.18817      0.99962     2.17985    0.00871     3.18817
      C    6   -0.11028      0.99958     2.10017    0.01053     3.11028
      C    7   -0.08244      0.99959     2.07275    0.01011     3.08244
      N    8   -0.32914      0.99975     2.81848    0.01091     3.82914
      C    9   -0.12538      0.99957     2.11370    0.01211     3.12538
      C   10   -0.01786      0.99937     2.01052    0.00797     3.01786
      C   11   -0.11469      0.99927     2.11124    0.00418     3.11469
      H   12    0.09803      0.00000     0.40103    0.00094     0.40197
      H   13    0.09550      0.00000     0.40323    0.00127     0.40450
      H   14    0.10012      0.00000     0.39871    0.00118     0.39988
      H   15    0.09598      0.00000     0.40220    0.00182     0.40402
      H   16    0.09872      0.00000     0.40014    0.00114     0.40128
      H   17    0.09788      0.00000     0.40061    0.00150     0.40212
      H   18    0.09964      0.00000     0.39918    0.00118     0.40036
      H   19    0.09240      0.00000     0.40621    0.00139     0.40760
      H   20    0.09481      0.00000     0.40378    0.00142     0.40519
      H   21    0.09905      0.00000     0.40005    0.00090     0.40095
      H   22    0.09685      0.00000     0.40121    0.00194     0.40315
      H   23    0.09057      0.00000     0.40786    0.00156     0.40943
      H   24    0.08619      0.00000     0.41176    0.00205     0.41381
      H   25    0.17287      0.00000     0.32343    0.00370     0.32713
      H   26    0.10834      0.00000     0.39028    0.00139     0.39166
      H   27    0.10427      0.00000     0.39426    0.00147     0.39573
      H   28    0.11301      0.00000     0.38358    0.00340     0.38699
 =======================================================================
   * Total *    0.00000     10.99524    30.87860    0.12616    42.00000

 Normal termination of Gaussian 16 at Tue Dec  8 22:20:32 2020.
