 Gaussian 16, Revision A.03,

 -----------------------------------------------------------
 # opt freq B3LYP/6-31G(d) empiricaldispersion=gd3bj scf=xqc
 -----------------------------------------------------------

 ------------------------------
 CID_15295169_JID_5816_neutraal
 ------------------------------
 Symbolic Z-matrix:
 Charge =  0 Multiplicity = 1

 SCF Done:  E(RB3LYP) =  -1079.66478002     A.U. after   18 cycles
 SCF Done:  E(RB3LYP) =  -1079.67105029     A.U. after   14 cycles
 SCF Done:  E(RB3LYP) =  -1079.65952837     A.U. after   17 cycles
 SCF Done:  E(RB3LYP) =  -1079.67197970     A.U. after   15 cycles
 SCF Done:  E(RB3LYP) =  -1079.67176092     A.U. after   14 cycles
 SCF Done:  E(RB3LYP) =  -1079.67054403     A.U. after   15 cycles
 SCF Done:  E(RB3LYP) =  -1079.67069051     A.U. after   14 cycles
 SCF Done:  E(RB3LYP) =  -1079.67250021     A.U. after   12 cycles
 SCF Done:  E(RB3LYP) =  -1079.67379103     A.U. after   14 cycles
 SCF Done:  E(RB3LYP) =  -1079.67429323     A.U. after   13 cycles
 SCF Done:  E(RB3LYP) =  -1079.67453900     A.U. after   13 cycles
 SCF Done:  E(RB3LYP) =  -1079.67456778     A.U. after   12 cycles
 SCF Done:  E(RB3LYP) =  -1079.67457063     A.U. after    9 cycles
 SCF Done:  E(RB3LYP) =  -1079.67457138     A.U. after    9 cycles
 SCF Done:  E(RB3LYP) =  -1079.67457157     A.U. after    8 cycles
 SCF Done:  E(RB3LYP) =  -1079.67457161     A.U. after    7 cycles
 Optimization completed.
    -- Stationary point found.
 Normal termination of Gaussian 16 at Thu Dec 10 17:15:49 2020.

 --------------------------------------------------------------------
 #N Geom=AllCheck Guess=TCheck SCRF=Check GenChk RB3LYP/6-31G(d) Freq
 --------------------------------------------------------------------

 Structure from the checkpoint file:  "JID_5816.chk"
 ------------------------------
 CID_15295169_JID_5816_neutraal
 ------------------------------
 Charge =  0 Multiplicity = 1

 SCF Done:  E(RB3LYP) =  -1079.67457161     A.U. after    1 cycles

  Exact polarizability: 203.429  -5.802 150.921  11.810   7.087  84.878
 Approx polarizability: 302.707 -12.586 289.078  32.555  21.913 133.245

                      1                      2                      3
                      A                      A                      A
 Frequencies --     42.3397                50.2479                69.6396
 Red. masses --      5.0029                 7.3587                 3.0191
 Frc consts  --      0.0053                 0.0109                 0.0086
 IR Inten    --      1.2510                 1.8486                 1.6498

                      4                      5                      6
                      A                      A                      A
 Frequencies --     75.6384               144.7497               150.8832
 Red. masses --      9.4327                 5.0936                 4.0703
 Frc consts  --      0.0318                 0.0629                 0.0546
 IR Inten    --      0.9330                 1.2438                 0.7339

                      7                      8                      9
                      A                      A                      A
 Frequencies --    197.0954               208.0925               254.9650
 Red. masses --      3.9211                 7.8301                 4.7491
 Frc consts  --      0.0897                 0.1998                 0.1819
 IR Inten    --      3.2716                 1.6581                 2.4146

                     10                     11                     12
                      A                      A                      A
 Frequencies --    270.7981               300.8306               322.5239
 Red. masses --      3.3418                 3.0418                 3.4188
 Frc consts  --      0.1444                 0.1622                 0.2095
 IR Inten    --     13.3322                 0.9664                 8.1407

                     13                     14                     15
                      A                      A                      A
 Frequencies --    333.9369               343.0503               372.9753
 Red. masses --      1.4206                 1.6553                 1.1464
 Frc consts  --      0.0933                 0.1148                 0.0940
 IR Inten    --    150.9329                59.8439                41.2671

                     16                     17                     18
                      A                      A                      A
 Frequencies --    385.7646               418.3594               428.6785
 Red. masses --      2.4256                 4.2078                 5.8935
 Frc consts  --      0.2127                 0.4339                 0.6381
 IR Inten    --     45.6627                56.7122                 1.7693

                     19                     20                     21
                      A                      A                      A
 Frequencies --    442.8990               464.1269               492.3301
 Red. masses --      2.7584                 2.3801                 5.9433
 Frc consts  --      0.3188                 0.3021                 0.8488
 IR Inten    --     11.0594                 8.9840                 3.0056

                     22                     23                     24
                      A                      A                      A
 Frequencies --    531.3100               555.0718               605.2918
 Red. masses --      2.5123                 1.5851                 3.6850
 Frc consts  --      0.4178                 0.2877                 0.7955
 IR Inten    --     18.6153                37.2256                 2.4082

                     25                     26                     27
                      A                      A                      A
 Frequencies --    630.4215               645.7040               697.8642
 Red. masses --      4.9352                 5.7018                 3.1256
 Frc consts  --      1.1556                 1.4006                 0.8968
 IR Inten    --      2.0330                16.4257                32.8492

                     28                     29                     30
                      A                      A                      A
 Frequencies --    726.9202               743.8357               765.2545
 Red. masses --      6.2423                 1.8258                 7.7984
 Frc consts  --      1.9434                 0.5952                 2.6907
 IR Inten    --     15.4678               208.4948                53.9939

                     31                     32                     33
                      A                      A                      A
 Frequencies --    819.9016               844.7127               861.6949
 Red. masses --      4.6422                 1.8577                 2.7834
 Frc consts  --      1.8386                 0.7810                 1.2177
 IR Inten    --     13.9380                 5.1206                 4.1149

                     34                     35                     36
                      A                      A                      A
 Frequencies --    870.1985               893.4842               914.7533
 Red. masses --      1.8810                 1.4702                 1.7385
 Frc consts  --      0.8392                 0.6915                 0.8571
 IR Inten    --      5.4838                28.9050                16.0488

                     37                     38                     39
                      A                      A                      A
 Frequencies --    938.5312              1026.7988              1047.1975
 Red. masses --      1.4126                 7.0240                 2.0168
 Frc consts  --      0.7331                 4.3632                 1.3031
 IR Inten    --     99.7036                36.2692                36.2727

                     40                     41                     42
                      A                      A                      A
 Frequencies --   1093.8206              1124.4196              1135.8778
 Red. masses --      1.5964                 2.3987                 2.0539
 Frc consts  --      1.1254                 1.7868                 1.5613
 IR Inten    --      5.1418                30.2572                 6.9007

                     43                     44                     45
                      A                      A                      A
 Frequencies --   1153.1459              1186.6108              1232.5390
 Red. masses --      1.3614                 1.1287                 1.1832
 Frc consts  --      1.0666                 0.9364                 1.0590
 IR Inten    --     14.5034                 0.2817                 3.8061

                     46                     47                     48
                      A                      A                      A
 Frequencies --   1280.5504              1300.0555              1321.9644
 Red. masses --      2.2072                 2.1480                 2.1274
 Frc consts  --      2.1325                 2.1390                 2.1905
 IR Inten    --     33.0069               272.0601               185.4761

                     49                     50                     51
                      A                      A                      A
 Frequencies --   1330.0088              1378.0196              1379.4738
 Red. masses --      1.3456                 1.2048                 6.4264
 Frc consts  --      1.4024                 1.3480                 7.2052
 IR Inten    --     25.3032                 4.1890               164.7031

                     52                     53                     54
                      A                      A                      A
 Frequencies --   1411.2035              1444.1201              1466.3263
 Red. masses --      5.4147                 1.3825                 3.5267
 Frc consts  --      6.3533                 1.6987                 4.4677
 IR Inten    --     26.3452                 6.9157               103.3533

                     55                     56                     57
                      A                      A                      A
 Frequencies --   1473.8611              1524.1439              1533.8481
 Red. masses --      1.2178                 1.0899                 2.9100
 Frc consts  --      1.5587                 1.4917                 4.0338
 IR Inten    --     14.2955                 1.0944               104.6361

                     58                     59                     60
                      A                      A                      A
 Frequencies --   1573.2836              1622.2761              1650.0994
 Red. masses --      4.6959                 6.9348                 1.5211
 Frc consts  --      6.8483                10.7531                 2.4401
 IR Inten    --    222.8614               170.9154                16.9170

                     61                     62                     63
                      A                      A                      A
 Frequencies --   1665.3644              1696.3046              1728.8561
 Red. masses --      1.2561                 4.5663                 1.0834
 Frc consts  --      2.0525                 7.7414                 1.9079
 IR Inten    --    217.9381                30.3391                30.3241

                     64                     65                     66
                      A                      A                      A
 Frequencies --   2957.5568              3049.6275              3078.9353
 Red. masses --      1.0720                 1.0875                 1.0619
 Frc consts  --      5.5249                 5.9588                 5.9310
 IR Inten    --     86.7032                32.4711                29.8227

                     67                     68                     69
                      A                      A                      A
 Frequencies --   3141.8720              3196.3722              3240.1775
 Red. masses --      1.1059                 1.0904                 1.0900
 Frc consts  --      6.4321                 6.5636                 6.7422
 IR Inten    --      8.7542                 4.8247                 4.4155

                     70                     71                     72
                      A                      A                      A
 Frequencies --   3444.6598              3522.8144              3542.7581
 Red. masses --      1.0541                 1.0490                 1.0890
 Frc consts  --      7.3692                 7.6699                 8.0529
 IR Inten    --     72.3194                16.0333                15.9574

                     73                     74                     75
                      A                      A                      A
 Frequencies --   3571.2495              3626.1288              3700.5838
 Red. masses --      1.0457                 1.0969                 1.1028
 Frc consts  --      7.8581                 8.4975                 8.8978
 IR Inten    --     71.0447                18.2739                51.5697

 - Thermochemistry -
 -------------------
 Temperature   298.150 Kelvin.  Pressure   1.00000 Atm.
 Atom     1 has atomic number  6 and mass  12.00000

 Molecular mass:   228.06810 amu.
 Principal axes and moments of inertia in atomic units:
                           1         2         3
     Eigenvalues --  1787.795225869.353746576.94066
           X            0.99980   0.01463  -0.01390
           Y           -0.01433   0.99968   0.02094
           Z            0.01420  -0.02074   0.99968
 This molecule is an asymmetric top.
 Rotational symmetry number  1.
 Warning -- assumption of classical behavior for rotation
           may cause significant error
 Rotational temperatures (Kelvin)      0.04845     0.01476     0.01317
 Rotational constants (GHZ):           1.00948     0.30749     0.27440
 Zero-point vibrational energy     560257.7 (Joules/Mol)
                                  133.90481 (Kcal/Mol)
 Warning -- explicit consideration of  24 degrees of freedom as
           vibrations may cause significant error
 Vibrational temperatures:     60.92    72.30   100.20   108.83   208.26
          (Kelvin)            217.09   283.58   299.40   366.84   389.62
                              432.83   464.04   480.46   493.57   536.63
                              555.03   601.93   616.77   637.23   667.78
                              708.35   764.44   798.62   870.88   907.04
                              929.02  1004.07  1045.88  1070.21  1101.03
                             1179.66  1215.35  1239.79  1252.02  1285.52
                             1316.13  1350.34  1477.33  1506.68  1573.76
                             1617.79  1634.27  1659.12  1707.27  1773.35
                             1842.43  1870.49  1902.01  1913.59  1982.66
                             1984.76  2030.41  2077.77  2109.72  2120.56
                             2192.90  2206.87  2263.60  2334.09  2374.13
                             2396.09  2440.60  2487.44  4255.26  4387.73
                             4429.90  4520.45  4598.87  4661.89  4956.10
                             5068.54  5097.24  5138.23  5217.19  5324.31

 Zero-point correction=                           0.213391 (Hartree/Particle)
 Thermal correction to Energy=                    0.228314
 Thermal correction to Enthalpy=                  0.229258
 Thermal correction to Gibbs Free Energy=         0.171164
 Sum of electronic and zero-point Energies=          -1079.461181
 Sum of electronic and thermal Energies=             -1079.446257
 Sum of electronic and thermal Enthalpies=           -1079.445313
 Sum of electronic and thermal Free Energies=        -1079.503407

                     E (Thermal)             CV                S
                      KCal/Mol        Cal/Mol-Kelvin    Cal/Mol-Kelvin
 Total                  143.269             56.864            122.270
 Electronic               0.000              0.000              0.000
 Translational            0.889              2.981             42.176
 Rotational               0.889              2.981             32.601
 Vibrational            141.492             50.903             47.493
 Vibration     1          0.595              1.980              5.146
 Vibration     2          0.595              1.977              4.808
 Vibration     3          0.598              1.969              4.164
 Vibration     4          0.599              1.965              4.001
 Vibration     5          0.616              1.908              2.740
 Vibration     6          0.618              1.902              2.661
 Vibration     7          0.636              1.844              2.160
 Vibration     8          0.641              1.828              2.060
 Vibration     9          0.665              1.754              1.696
 Vibration    10          0.674              1.727              1.591
 Vibration    11          0.693              1.672              1.412
 Vibration    12          0.708              1.630              1.297
 Vibration    13          0.715              1.608              1.241
 Vibration    14          0.722              1.589              1.198
 Vibration    15          0.744              1.528              1.068
 Vibration    16          0.754              1.501              1.016
 Vibration    17          0.781              1.430              0.898
 Vibration    18          0.790              1.408              0.863
 Vibration    19          0.803              1.377              0.818
 Vibration    20          0.822              1.330              0.754
 Vibration    21          0.848              1.267              0.678
 Vibration    22          0.886              1.181              0.584
 Vibration    23          0.911              1.129              0.534
 Vibration    24          0.964              1.021              0.441

 Optimization completed.
    -- Stationary point found.
 Normal termination of Gaussian 16 at Thu Dec 10 17:23:51 2020.

 ----------------------------------------------------------------------
 # B3LYP/6-311++G(d,p) empiricaldispersion=gd3bj scf=xqc pop=npa geom=c
 heck
 ----------------------------------------------------------------------

 --------------------------------------
 CID_15295169_JID_5816_Energie_neutraal
 --------------------------------------
 Structure from the checkpoint file:  "JID_5816.chk"
 Charge =  0 Multiplicity = 1

 SCF Done:  E(RB3LYP) =  -1079.91519325     A.U. after   18 cycles
 Normal termination of Gaussian 16 at Thu Dec 10 17:28:46 2020.

 ----------------------------------------------------------------------
 # B3LYP/6-311++G(d,p) empiricaldispersion=gd3bj scf=xqc pop=npa geom=c
 heck
 ----------------------------------------------------------------------

 ------------------------------------
 CID_15295169_JID_5816_Energie_kation
 ------------------------------------
 Structure from the checkpoint file:  "JID_5816.chk"
 Charge =  1 Multiplicity = 2

 SCF Done:  E(UB3LYP) =  -1079.63970350     A.U. after   28 cycles
 Normal termination of Gaussian 16 at Thu Dec 10 17:37:24 2020.
 Gaussian 16:  ES64L-G16RevA.03 25-Dec-2016

 ----------------------------------------------------------------------
 # B3LYP/6-311++G(d,p) empiricaldispersion=gd3bj scf=xqc pop=npa geom=c
 heck
 ----------------------------------------------------------------------

 -----------------------------------
 CID_15295169_JID_5816_Energie_anion
 -----------------------------------
 Structure from the checkpoint file:  "JID_5816.chk"
 Charge = -1 Multiplicity = 2

                         Standard orientation:
 ---------------------------------------------------------------------
 Center     Atomic      Atomic             Coordinates (Angstroms)
 Number     Number       Type             X           Y           Z
 ---------------------------------------------------------------------
      1          6           0        1.074528   -1.195577   -0.386315
      2          6           0       -0.254735   -0.960235   -0.696426
      3          6           0       -0.717044    0.381805   -0.653662
      4          6           0        0.145357    1.409085   -0.308908
      5          6           0        1.498788    1.192758    0.034934
      6          6           0        1.941462   -0.152394   -0.028472
      7          7           0        3.315059   -0.516424    0.243773
      8          8           0        4.128199    0.379947    0.539116
      9          8           0        3.636088   -1.704564    0.168396
     10          7           0        2.273320    2.250192    0.422903
     11         16           0       -2.404209    0.776885   -1.116097
     12          6           0       -3.230045    0.985729    0.528535
     13          6           0       -3.734376   -0.297021    1.183922
     14          7           0       -2.635089   -1.116863    1.684307
     15          7           0       -1.139809   -2.018929   -0.955630
     16          1           0        1.480501   -2.199362   -0.401488
     17          1           0       -0.232467    2.427155   -0.301235
     18          1           0        1.943189    3.177774    0.202772
     19          1           0        3.269393    2.090558    0.483152
     20          1           0       -2.526519    1.498918    1.189176
     21          1           0       -4.068520    1.656680    0.314124
     22          1           0       -4.346052    0.008913    2.043700
     23          1           0       -4.413338   -0.810370    0.478959
     24          1           0       -3.002945   -1.830257    2.310061
     25          1           0       -2.187987   -1.615696    0.913116
     26          1           0       -1.917330   -1.750127   -1.550231
     27          1           0       -0.682869   -2.858136   -1.293765
 ---------------------------------------------------------------------

 SCF Done:  E(UB3LYP) =  -1079.95233536     A.U. after   23 cycles

 The electronic state is 2-A.
 Alpha  occ. eigenvalues --  -88.72864 -18.94418 -18.94276 -14.32200 -14.20417
 Alpha  occ. eigenvalues --  -14.18479 -14.18076 -10.10051 -10.09006 -10.08217
 Alpha  occ. eigenvalues --  -10.07830 -10.06237 -10.06018 -10.03499 -10.02557
 Alpha  occ. eigenvalues --   -7.81429  -5.77806  -5.77444  -5.76848  -1.02186
 Alpha  occ. eigenvalues --   -0.84937  -0.80464  -0.78870  -0.78118  -0.70741
 Alpha  occ. eigenvalues --   -0.67893  -0.63890  -0.59054  -0.58365  -0.52232
 Alpha  occ. eigenvalues --   -0.48482  -0.47856  -0.44687  -0.41461  -0.39439
 Alpha  occ. eigenvalues --   -0.38985  -0.38061  -0.37061  -0.35264  -0.34762
 Alpha  occ. eigenvalues --   -0.33185  -0.32565  -0.30203  -0.29706  -0.29117
 Alpha  occ. eigenvalues --   -0.28637  -0.28195  -0.27651  -0.24790  -0.23284
 Alpha  occ. eigenvalues --   -0.22113  -0.20241  -0.15638  -0.14144  -0.13615
 Alpha  occ. eigenvalues --   -0.12887  -0.12469  -0.11636  -0.10179  -0.06324
 Alpha  occ. eigenvalues --    0.02525
 Alpha virt. eigenvalues --    0.06706   0.08194   0.08961   0.09278   0.10224
 Alpha virt. eigenvalues --    0.11174   0.11518   0.12005   0.12476   0.12873
 Alpha virt. eigenvalues --    0.13804   0.14702   0.15220   0.15886   0.16228

  Beta  occ. eigenvalues --  -88.72870 -18.93910 -18.93835 -14.31567 -14.20430
  Beta  occ. eigenvalues --  -14.18478 -14.18024 -10.10051 -10.08932 -10.08149
  Beta  occ. eigenvalues --  -10.07937 -10.06230 -10.05742 -10.03439 -10.02340
  Beta  occ. eigenvalues --   -7.81433  -5.77815  -5.77457  -5.76850  -1.01144
  Beta  occ. eigenvalues --   -0.84047  -0.80449  -0.78730  -0.78110  -0.70482
  Beta  occ. eigenvalues --   -0.67658  -0.63488  -0.58774  -0.58039  -0.51715
  Beta  occ. eigenvalues --   -0.48299  -0.47635  -0.44432  -0.41412  -0.39361
  Beta  occ. eigenvalues --   -0.38767  -0.37979  -0.36949  -0.34889  -0.32972
  Beta  occ. eigenvalues --   -0.32030  -0.31867  -0.30069  -0.29572  -0.29034
  Beta  occ. eigenvalues --   -0.28524  -0.27980  -0.27269  -0.24462  -0.22943
  Beta  occ. eigenvalues --   -0.21962  -0.20048  -0.15180  -0.13984  -0.12641
  Beta  occ. eigenvalues --   -0.11978  -0.10915  -0.10144  -0.09712  -0.05577
  Beta virt. eigenvalues --    0.06633   0.08107   0.08690   0.09132   0.09474
  Beta virt. eigenvalues --    0.10197   0.11238   0.11588   0.12200   0.12810
  Beta virt. eigenvalues --    0.13702   0.14235   0.14829   0.15443   0.15887

 Mulliken charges and spin densities:
               1          2
     1  C   -0.437195   0.238483
     2  C   -1.084329  -0.088079
     3  C    1.774117   0.185583
     4  C   -0.396361   0.053011
     5  C   -0.253103   0.072484
     6  C    0.038548  -0.054844
     7  N   -0.333357   0.203995
     8  O   -0.194343   0.188766
     9  O   -0.185929   0.175578
    10  N   -0.339984   0.021389
    11  S   -0.421948   0.005757
    12  C   -0.445630  -0.023547
    13  C   -0.302863   0.002132
    14  N   -0.438078   0.001336
    15  N   -0.371298  -0.001462
    16  H    0.216731  -0.013330
    17  H    0.123006  -0.001363
    18  H    0.205602  -0.001397
    19  H    0.287062  -0.002619
    20  H    0.208461  -0.007552
    21  H    0.127291   0.040063
    22  H    0.122954  -0.000664
    23  H    0.070773   0.003998
    24  H    0.216165   0.000861
    25  H    0.322824  -0.000441
    26  H    0.235187   0.000389
    27  H    0.255697   0.001474
 Sum of Mulliken charges =  -1.00000   1.00000

 Dipole moment (field-independent basis, Debye):
    X=            -10.4378    Y=              1.3918    Z=             -1.1328  Tot=             10.5909
 Quadrupole moment (field-independent basis, Debye-Ang):
   XX=           -158.6525   YY=           -100.5361   ZZ=           -107.8662
   XY=             14.3587   XZ=             -9.0597   YZ=              3.4917

 Summary of Natural Population Analysis:

                                       Natural Population
                Natural  -----------------------------------------------
    Atom  No    Charge         Core      Valence    Rydberg      Total
 -----------------------------------------------------------------------
      C    1   -0.06844      0.99950     2.05931    0.00963     3.06844
      C    2    0.03405      0.99942     1.95604    0.01049     2.96595
      C    3   -0.04527      0.99936     2.03486    0.01105     3.04527
      C    4   -0.11523      0.99948     2.10566    0.01009     3.11523
      C    5    0.09599      0.99949     1.89301    0.01151     2.90401
      C    6    0.02951      0.99940     1.96007    0.01102     2.97049
      N    7    0.30621      0.99971     2.16785    0.02623     3.19379
      O    8   -0.21043      0.99989     3.20223    0.00831     4.21043
      O    9   -0.19867      0.99990     3.19069    0.00808     4.19867
      N   10   -0.39424      0.99969     2.88511    0.00944     3.89424
      S   11    0.07186      4.99957     2.90777    0.02081     7.92814
      C   12   -0.23710      0.99958     2.22798    0.00953     3.23710
      C   13   -0.09443      0.99963     2.08495    0.00985     3.09443
      N   14   -0.42811      0.99976     2.91708    0.01127     3.92811
      N   15   -0.42102      0.99972     2.91141    0.00989     3.92102
      H   16    0.11169      0.00000     0.38687    0.00144     0.38831
      H   17    0.09139      0.00000     0.40652    0.00209     0.40861
      H   18    0.17665      0.00000     0.32189    0.00146     0.32335
      H   19    0.21029      0.00000     0.28777    0.00194     0.28971
      H   20    0.10660      0.00000     0.39196    0.00143     0.39340
      H   21    0.09383      0.00000     0.40349    0.00269     0.40617
      H   22    0.08438      0.00000     0.41405    0.00158     0.41562
      H   23    0.07396      0.00000     0.42409    0.00195     0.42604
      H   24    0.16665      0.00000     0.33161    0.00174     0.33335
      H   25    0.19153      0.00000     0.30630    0.00217     0.30847
      H   26    0.18713      0.00000     0.31079    0.00208     0.31287
      H   27    0.18121      0.00000     0.31732    0.00147     0.31879
 =======================================================================
   * Total *    0.00000     18.99410    40.80665    0.19924    60.00000

 Normal termination of Gaussian 16 at Thu Dec 10 17:44:05 2020.
