 Gaussian 16, Revision A.03,

 -----------------------------------------------------------
 # opt freq B3LYP/6-31G(d) empiricaldispersion=gd3bj scf=xqc
 -----------------------------------------------------------

 ------------------------------
 CID_79176172_JID_8893_neutraal
 ------------------------------
 Symbolic Z-matrix:
 Charge =  0 Multiplicity = 1

 SCF Done:  E(RB3LYP) =  -858.603230112     A.U. after   17 cycles
 SCF Done:  E(RB3LYP) =  -858.605195827     A.U. after   15 cycles
 SCF Done:  E(RB3LYP) =  -858.611246067     A.U. after   15 cycles
 SCF Done:  E(RB3LYP) =  -858.613976768     A.U. after   15 cycles
 SCF Done:  E(RB3LYP) =  -858.607939494     A.U. after   17 cycles
 SCF Done:  E(RB3LYP) =  -858.615900066     A.U. after   15 cycles
 SCF Done:  E(RB3LYP) =  -858.616867275     A.U. after   14 cycles
 SCF Done:  E(RB3LYP) =  -858.616973733     A.U. after   14 cycles
 SCF Done:  E(RB3LYP) =  -858.617469835     A.U. after   14 cycles
 SCF Done:  E(RB3LYP) =  -858.617809613     A.U. after   14 cycles
 SCF Done:  E(RB3LYP) =  -858.619229895     A.U. after   10 cycles
 SCF Done:  E(RB3LYP) =  -858.619230352     A.U. after    9 cycles
 SCF Done:  E(RB3LYP) =  -858.619230601     A.U. after    9 cycles
 SCF Done:  E(RB3LYP) =  -858.619230761     A.U. after    9 cycles
 SCF Done:  E(RB3LYP) =  -858.619230863     A.U. after    8 cycles
 Optimization completed.
    -- Stationary point found.
 Normal termination of Gaussian 16 at Fri Dec 11 21:35:48 2020.

 --------------------------------------------------------------------
 #N Geom=AllCheck Guess=TCheck SCRF=Check GenChk RB3LYP/6-31G(d) Freq
 --------------------------------------------------------------------

 Structure from the checkpoint file:  "JID_8893.chk"
 ------------------------------
 CID_79176172_JID_8893_neutraal
 ------------------------------
 Charge =  0 Multiplicity = 1

 SCF Done:  E(RB3LYP) =  -858.619230863     A.U. after    1 cycles

  Exact polarizability: 240.271 -10.856 171.183  -5.266 -13.157  99.103
 Approx polarizability: 363.519 -21.329 265.072 -11.681 -36.203 157.700

                      1                      2                      3
                      A                      A                      A
 Frequencies --     28.6619                34.1245                39.7165
 Red. masses --     11.4849                 4.3817                 4.3300
 Frc consts  --      0.0056                 0.0030                 0.0040
 IR Inten    --      0.0143                 2.0955                 1.8922

                      4                      5                      6
                      A                      A                      A
 Frequencies --     57.6859                68.4358                82.3127
 Red. masses --      3.6137                 3.4630                 4.3319
 Frc consts  --      0.0071                 0.0096                 0.0173
 IR Inten    --      0.1302                 0.4510                 1.1950

                      7                      8                      9
                      A                      A                      A
 Frequencies --    123.8166               141.4659               159.3244
 Red. masses --      3.4442                 3.8607                 3.2313
 Frc consts  --      0.0311                 0.0455                 0.0483
 IR Inten    --      4.9634                 0.5638                 0.2437

                     10                     11                     12
                      A                      A                      A
 Frequencies --    186.2048               206.3130               217.5066
 Red. masses --      1.4630                 2.6365                 3.6786
 Frc consts  --      0.0299                 0.0661                 0.1025
 IR Inten    --      1.7697                 0.6862                 0.2866

                     13                     14                     15
                      A                      A                      A
 Frequencies --    238.4712               243.6770               275.1507
 Red. masses --      1.4086                 1.4425                 5.7293
 Frc consts  --      0.0472                 0.0505                 0.2556
 IR Inten    --      0.7510                 0.3438                 2.2724

                     16                     17                     18
                      A                      A                      A
 Frequencies --    292.8943               303.2458               351.7287
 Red. masses --      4.9919                 3.9463                 3.4526
 Frc consts  --      0.2523                 0.2138                 0.2517
 IR Inten    --      3.6691                 0.4328                 0.8809

                     19                     20                     21
                      A                      A                      A
 Frequencies --    353.9861               407.5684               435.8322
 Red. masses --      2.4680                 2.0854                 4.1374
 Frc consts  --      0.1822                 0.2041                 0.4630
 IR Inten    --      0.4901                 0.8061                 0.5678

                     22                     23                     24
                      A                      A                      A
 Frequencies --    456.0957               465.6455               486.6412
 Red. masses --      3.6046                 3.2384                 1.8273
 Frc consts  --      0.4418                 0.4137                 0.2550
 IR Inten    --      6.4031                 1.3290                 1.0965

                     25                     26                     27
                      A                      A                      A
 Frequencies --    527.9770               553.2019               578.6208
 Red. masses --      2.9173                 1.1582                 3.3165
 Frc consts  --      0.4791                 0.2088                 0.6542
 IR Inten    --      7.4737                60.5510                 9.2921

                     28                     29                     30
                      A                      A                      A
 Frequencies --    597.2493               603.8734               628.4010
 Red. masses --      4.2161                 3.7011                 4.7051
 Frc consts  --      0.8861                 0.7952                 1.0947
 IR Inten    --      9.2903                16.1092                 2.9083

                     31                     32                     33
                      A                      A                      A
 Frequencies --    738.4012               744.2384               768.0885
 Red. masses --      4.3220                 5.1093                 5.3527
 Frc consts  --      1.3884                 1.6674                 1.8606
 IR Inten    --      5.3321                 7.6888                14.0247

                     34                     35                     36
                      A                      A                      A
 Frequencies --    773.1163               813.1100               836.1075
 Red. masses --      1.4364                 2.4280                 4.7475
 Frc consts  --      0.5058                 0.9458                 1.9554
 IR Inten    --     15.8400                 4.7572                32.8471

                     37                     38                     39
                      A                      A                      A
 Frequencies --    853.3265               863.6845               869.5925
 Red. masses --      1.5117                 2.1036                 3.6960
 Frc consts  --      0.6486                 0.9245                 1.6467
 IR Inten    --     16.3718                 2.6877                 2.7065

                     40                     41                     42
                      A                      A                      A
 Frequencies --    916.8162               958.5692               972.4077
 Red. masses --      1.8688                 2.2171                 2.3209
 Frc consts  --      0.9255                 1.2003                 1.2930
 IR Inten    --      1.3326                 8.7411                 0.3531

                     43                     44                     45
                      A                      A                      A
 Frequencies --    986.1640               992.3745              1039.8274
 Red. masses --      1.4169                 1.5843                 1.7438
 Frc consts  --      0.8119                 0.9192                 1.1109
 IR Inten    --      2.7976                 3.7726                 9.0207

                     46                     47                     48
                      A                      A                      A
 Frequencies --   1061.3206              1073.6748              1073.8169
 Red. masses --      1.9473                 2.0729                 1.5571
 Frc consts  --      1.2924                 1.4079                 1.0579
 IR Inten    --      7.1884                 6.2949                 3.8661

                     49                     50                     51
                      A                      A                      A
 Frequencies --   1096.1043              1121.8306              1132.9124
 Red. masses --      2.1548                 2.9025                 3.3327
 Frc consts  --      1.5253                 2.1522                 2.5203
 IR Inten    --     18.4431                54.9310               106.7775

                     52                     53                     54
                      A                      A                      A
 Frequencies --   1142.6759              1167.3879              1189.4831
 Red. masses --      2.2039                 2.4080                 3.0394
 Frc consts  --      1.6954                 1.9335                 2.5337
 IR Inten    --     24.2942                 3.2681                 4.6175

                     55                     56                     57
                      A                      A                      A
 Frequencies --   1232.8411              1268.8103              1275.7135
 Red. masses --      2.0111                 1.2194                 1.3232
 Frc consts  --      1.8010                 1.1567                 1.2688
 IR Inten    --      1.6964                39.6496                 6.2887

                     58                     59                     60
                      A                      A                      A
 Frequencies --   1289.7232              1304.3406              1333.7685
 Red. masses --      1.3549                 1.5252                 1.3250
 Frc consts  --      1.3278                 1.5289                 1.3888
 IR Inten    --     90.5727                54.6668                28.8591

                     61                     62                     63
                      A                      A                      A
 Frequencies --   1346.1335              1358.8332              1380.3295
 Red. masses --      1.2688                 3.3229                 1.7863
 Frc consts  --      1.3546                 3.6149                 2.0053
 IR Inten    --     21.3968               193.7428               210.1540

                     64                     65                     66
                      A                      A                      A
 Frequencies --   1388.1106              1391.0065              1406.7038
 Red. masses --      2.6442                 1.6946                 1.5372
 Frc consts  --      3.0019                 1.9319                 1.7923
 IR Inten    --    304.7202               110.0947                21.2882

                     67                     68                     69
                      A                      A                      A
 Frequencies --   1411.4981              1417.1744              1424.7986
 Red. masses --      1.4371                 1.5311                 1.5315
 Frc consts  --      1.6869                 1.8117                 1.8318
 IR Inten    --      1.7151                 2.3012                28.3748

                     70                     71                     72
                      A                      A                      A
 Frequencies --   1443.6205              1446.8517              1491.8038
 Red. masses --      1.2207                 1.2467                 1.5684
 Frc consts  --      1.4989                 1.5376                 2.0566
 IR Inten    --      6.2011                 6.1319                25.5800

                     73                     74                     75
                      A                      A                      A
 Frequencies --   1499.0447              1502.2438              1511.1921
 Red. masses --      1.2109                 1.0572                 1.1092
 Frc consts  --      1.6032                 1.4057                 1.4924
 IR Inten    --     27.1991                 3.2233                16.2772

                     76                     77                     78
                      A                      A                      A
 Frequencies --   1512.8304              1521.4589              1525.7226
 Red. masses --      1.3699                 1.2794                 1.0681
 Frc consts  --      1.8472                 1.7449                 1.4649
 IR Inten    --     45.0378                75.5199                 9.0782

                     79                     80                     81
                      A                      A                      A
 Frequencies --   1526.9984              1537.4351              1539.1178
 Red. masses --      1.0794                 1.1598                 1.0916
 Frc consts  --      1.4829                 1.6152                 1.5236
 IR Inten    --      7.7821                16.5350                 4.5563

                     82                     83                     84
                      A                      A                      A
 Frequencies --   1541.5543              1567.8451              1578.9781
 Red. masses --      1.1865                 3.3939                 3.7510
 Frc consts  --      1.6612                 4.9154                 5.5100
 IR Inten    --     20.2169               100.9579                54.5784

                     85                     86                     87
                      A                      A                      A
 Frequencies --   1628.3086              1669.4093              2956.3051
 Red. masses --      8.9183                 6.5314                 1.0733
 Frc consts  --     13.9317                10.7247                 5.5266
 IR Inten    --    278.9633               527.4630                76.9442

                     88                     89                     90
                      A                      A                      A
 Frequencies --   3037.6413              3046.5343              3050.6884
 Red. masses --      1.0626                 1.0413                 1.0599
 Frc consts  --      5.7767                 5.6945                 5.8117
 IR Inten    --     20.4610                10.9565                25.3396

                     91                     92                     93
                      A                      A                      A
 Frequencies --   3054.8534              3058.3347              3072.0962
 Red. masses --      1.0846                 1.0726                 1.0362
 Frc consts  --      5.9632                 5.9111                 5.7616
 IR Inten    --     66.6635                22.6733                11.6847

                     94                     95                     96
                      A                      A                      A
 Frequencies --   3077.4635              3081.4670              3085.6293
 Red. masses --      1.0973                 1.1013                 1.0639
 Frc consts  --      6.1227                 6.1610                 5.9681
 IR Inten    --     17.5249                24.1917                68.1212

                     97                     98                     99
                      A                      A                      A
 Frequencies --   3107.9941              3121.1983              3132.4035
 Red. masses --      1.1016                 1.1019                 1.1042
 Frc consts  --      6.2697                 6.3245                 6.3831
 IR Inten    --     95.6329                27.9716                15.3253

                    100                    101                    102
                      A                      A                      A
 Frequencies --   3136.1000              3145.6269              3147.2643
 Red. masses --      1.0949                 1.1002                 1.1035
 Frc consts  --      6.3445                 6.4139                 6.4398
 IR Inten    --     17.6718                 4.0962                15.9248

                    103                    104                    105
                      A                      A                      A
 Frequencies --   3234.8847              3267.0426              3547.2775
 Red. masses --      1.0915                 1.0885                 1.0663
 Frc consts  --      6.7299                 6.8453                 7.9053
 IR Inten    --      0.4608                 2.6896               465.9078

 - Thermochemistry -
 -------------------
 Temperature   298.150 Kelvin.  Pressure   1.00000 Atm.
 Atom     1 has atomic number  6 and mass  12.00000

 Molecular mass:   253.14264 amu.
 Principal axes and moments of inertia in atomic units:
                           1         2         3
     Eigenvalues --  3483.445946322.729079325.12922
           X            0.99993   0.01143   0.00410
           Y           -0.01142   0.99993  -0.00261
           Z           -0.00413   0.00256   0.99999
 This molecule is an asymmetric top.
 Rotational symmetry number  1.
 Warning -- assumption of classical behavior for rotation
           may cause significant error
 Rotational temperatures (Kelvin)      0.02486     0.01370     0.00929
 Rotational constants (GHZ):           0.51809     0.28544     0.19354
 Zero-point vibrational energy     825219.1 (Joules/Mol)
                                  197.23211 (Kcal/Mol)
 Warning -- explicit consideration of  29 degrees of freedom as
           vibrations may cause significant error
 Vibrational temperatures:     41.24    49.10    57.14    83.00    98.46
          (Kelvin)            118.43   178.14   203.54   229.23   267.91
                              296.84   312.94   343.11   350.60   395.88
                              421.41   436.30   506.06   509.31   586.40
                              627.07   656.22   669.96   700.17   759.64
                              795.93   832.51   859.31   868.84   904.13
                             1062.39  1070.79  1105.11  1112.34  1169.88
                             1202.97  1227.75  1242.65  1251.15  1319.09
                             1379.17  1399.08  1418.87  1427.81  1496.08
                             1527.00  1544.78  1544.98  1577.05  1614.06
                             1630.01  1644.06  1679.61  1711.40  1773.78
                             1825.54  1835.47  1855.62  1876.66  1919.00
                             1936.79  1955.06  1985.99  1997.18  2001.35
                             2023.93  2030.83  2039.00  2049.97  2077.05
                             2081.70  2146.37  2156.79  2161.39  2174.27
                             2176.63  2189.04  2195.17  2197.01  2212.03
                             2214.45  2217.95  2255.78  2271.80  2342.77
                             2401.91  4253.46  4370.49  4383.28  4389.26
                             4395.25  4400.26  4420.06  4427.78  4433.54
                             4439.53  4471.71  4490.71  4506.83  4512.15
                             4525.86  4528.21  4654.28  4700.55  5103.74

 Zero-point correction=                           0.314309 (Hartree/Particle)
 Thermal correction to Energy=                    0.332508
 Thermal correction to Enthalpy=                  0.333452
 Thermal correction to Gibbs Free Energy=         0.266477
 Sum of electronic and zero-point Energies=           -858.304921
 Sum of electronic and thermal Energies=              -858.286723
 Sum of electronic and thermal Enthalpies=            -858.285778
 Sum of electronic and thermal Free Energies=         -858.352754

                     E (Thermal)             CV                S
                      KCal/Mol        Cal/Mol-Kelvin    Cal/Mol-Kelvin
 Total                  208.652             67.751            140.962
 Electronic               0.000              0.000              0.000
 Translational            0.889              2.981             42.487
 Rotational               0.889              2.981             33.684
 Vibrational            206.875             61.789             64.791
 Vibration     1          0.593              1.984              5.920
 Vibration     2          0.594              1.983              5.574
 Vibration     3          0.594              1.981              5.273
 Vibration     4          0.596              1.974              4.535
 Vibration     5          0.598              1.969              4.198
 Vibration     6          0.600              1.961              3.835
 Vibration     7          0.610              1.929              3.040
 Vibration     8          0.615              1.912              2.784
 Vibration     9          0.621              1.892              2.558
 Vibration    10          0.632              1.859              2.265
 Vibration    11          0.641              1.831              2.076
 Vibration    12          0.646              1.814              1.980
 Vibration    13          0.656              1.782              1.814
 Vibration    14          0.659              1.773              1.776
 Vibration    15          0.677              1.719              1.564
 Vibration    16          0.688              1.687              1.457
 Vibration    17          0.695              1.668              1.399
 Vibration    18          0.728              1.572              1.158
 Vibration    19          0.730              1.567              1.148
 Vibration    20          0.772              1.454              0.935
 Vibration    21          0.796              1.392              0.840
 Vibration    22          0.814              1.347              0.778
 Vibration    23          0.823              1.326              0.750
 Vibration    24          0.843              1.280              0.692
 Vibration    25          0.883              1.188              0.592
 Vibration    26          0.909              1.133              0.538
 Vibration    27          0.935              1.078              0.488
 Vibration    28          0.955              1.038              0.454
 Vibration    29          0.962              1.024              0.443

                           ! Non-Optimized Parameters !
 Normal termination of Gaussian 16 at Fri Dec 11 21:52:17 2020.

 ----------------------------------------------------------------------
 # B3LYP/6-311++G(d,p) empiricaldispersion=gd3bj scf=xqc pop=npa geom=c
 heck
 ----------------------------------------------------------------------

 --------------------------------------
 CID_79176172_JID_8893_Energie_neutraal
 --------------------------------------
 Structure from the checkpoint file:  "JID_8893.chk"
 Charge =  0 Multiplicity = 1

 SCF Done:  E(RB3LYP) =  -858.868083685     A.U. after   16 cycles
 Normal termination of Gaussian 16 at Fri Dec 11 22:00:09 2020.

 ----------------------------------------------------------------------
 # B3LYP/6-311++G(d,p) empiricaldispersion=gd3bj scf=xqc pop=npa geom=c
 heck
 ----------------------------------------------------------------------

 ------------------------------------
 CID_79176172_JID_8893_Energie_kation
 ------------------------------------
 Structure from the checkpoint file:  "JID_8893.chk"
 Charge =  1 Multiplicity = 2

 SCF Done:  E(UB3LYP) =  -858.571696996     A.U. after   29 cycles
 Normal termination of Gaussian 16 at Fri Dec 11 22:21:11 2020.
 Gaussian 16:  ES64L-G16RevA.03 25-Dec-2016

 ----------------------------------------------------------------------
 # B3LYP/6-311++G(d,p) empiricaldispersion=gd3bj scf=xqc pop=npa geom=c
 heck
 ----------------------------------------------------------------------

 -----------------------------------
 CID_79176172_JID_8893_Energie_anion
 -----------------------------------
 Structure from the checkpoint file:  "JID_8893.chk"
 Charge = -1 Multiplicity = 2

                         Standard orientation:
 ---------------------------------------------------------------------
 Center     Atomic      Atomic             Coordinates (Angstroms)
 Number     Number       Type             X           Y           Z
 ---------------------------------------------------------------------
      1          6           0       -2.325020   -3.529021   -0.126840
      2          6           0       -2.658601   -2.305986   -0.987243
      3          6           0       -3.480923   -1.241392   -0.246704
      4          6           0       -2.683916   -0.374338    0.740755
      5          7           0       -1.751364    0.553534    0.096384
      6          6           0       -2.352194    1.771654   -0.470842
      7          6           0       -2.303587    3.010200    0.438491
      8          8           0       -1.110713    3.749025    0.330607
      9          6           0       -0.403715    0.359296    0.071250
     10          7           0        0.352948    1.415362   -0.320950
     11          6           0        1.668933    1.260816   -0.393698
     12          6           0        2.333132    0.077812   -0.070541
     13          6           0        1.580467   -1.042279    0.361983
     14          6           0        0.206883   -0.871502    0.420416
     15          6           0        2.158193   -2.381852    0.732697
     16          7           0        3.778396    0.073461   -0.191795
     17          8           0        4.324645    1.094448   -0.620317
     18          8           0        4.394396   -0.945671    0.137562
     19          1           0       -1.798681   -3.260146    0.797016
     20          1           0       -1.689993   -4.236075   -0.671017
     21          1           0       -3.239259   -4.057169    0.168437
     22          1           0       -1.739484   -1.851184   -1.377309
     23          1           0       -3.224470   -2.640266   -1.865287
     24          1           0       -3.963860   -0.578723   -0.975448
     25          1           0       -4.294782   -1.726050    0.309970
     26          1           0       -3.380193    0.232359    1.332337
     27          1           0       -2.139030   -0.990265    1.458682
     28          1           0       -1.863457    2.006911   -1.420294
     29          1           0       -3.394818    1.522562   -0.687817
     30          1           0       -3.125340    3.679377    0.151973
     31          1           0       -2.499556    2.686690    1.477534
     32          1           0       -0.403302    3.100998    0.132440
     33          1           0        2.248591    2.120483   -0.711107
     34          1           0       -0.396939   -1.718066    0.710911
     35          1           0        2.846468   -2.293889    1.577182
     36          1           0        1.352279   -3.073329    0.994843
     37          1           0        2.741433   -2.803584   -0.089678
 ---------------------------------------------------------------------

 SCF Done:  E(UB3LYP) =  -858.899432019     A.U. after   33 cycles
 SCF Done:  E(UB3LYP) =  -858.899432019     a.u. after    1 cycles

 The electronic state is 2-A.
 Alpha  occ. eigenvalues --  -18.99739 -18.93542 -18.93519 -14.31475 -14.22502
 Alpha  occ. eigenvalues --  -14.18337 -10.11900 -10.11669 -10.11449 -10.10788
 Alpha  occ. eigenvalues --  -10.09185 -10.09006 -10.08749 -10.07022 -10.06757
 Alpha  occ. eigenvalues --  -10.06141 -10.05024 -10.04640  -1.01730  -0.90797
 Alpha  occ. eigenvalues --   -0.86447  -0.84440  -0.80102  -0.71926  -0.69898
 Alpha  occ. eigenvalues --   -0.66156  -0.65494  -0.62127  -0.58945  -0.57608
 Alpha  occ. eigenvalues --   -0.54144  -0.52422  -0.49079  -0.48457  -0.44499
 Alpha  occ. eigenvalues --   -0.42301  -0.40707  -0.39446  -0.38471  -0.37397
 Alpha  occ. eigenvalues --   -0.36226  -0.35485  -0.34732  -0.34541  -0.33140
 Alpha  occ. eigenvalues --   -0.32515  -0.32006  -0.30888  -0.30677  -0.29780
 Alpha  occ. eigenvalues --   -0.29640  -0.29091  -0.28393  -0.27410  -0.26345
 Alpha  occ. eigenvalues --   -0.26092  -0.25865  -0.25316  -0.24986  -0.23371
 Alpha  occ. eigenvalues --   -0.18187  -0.16439  -0.15613  -0.15243  -0.12995
 Alpha  occ. eigenvalues --   -0.11499  -0.09551  -0.09272   0.03178
 Alpha virt. eigenvalues --    0.05324   0.06936   0.07330   0.08242   0.09216
 Alpha virt. eigenvalues --    0.09446   0.09777   0.10220   0.11017   0.11246
 Alpha virt. eigenvalues --    0.12094   0.12638   0.13123   0.13303   0.13700

  Beta  occ. eigenvalues --  -18.99739 -18.93058 -18.92987 -14.30794 -14.22402
  Beta  occ. eigenvalues --  -14.18463 -10.11904 -10.11662 -10.11147 -10.10793
  Beta  occ. eigenvalues --  -10.09175 -10.09006 -10.08748 -10.06846 -10.06544
  Beta  occ. eigenvalues --  -10.06130 -10.05116 -10.04651  -1.00609  -0.90788
  Beta  occ. eigenvalues --   -0.86215  -0.83477  -0.79992  -0.71895  -0.69689
  Beta  occ. eigenvalues --   -0.65901  -0.65444  -0.61811  -0.58858  -0.57493
  Beta  occ. eigenvalues --   -0.53903  -0.52169  -0.48858  -0.48156  -0.44151
  Beta  occ. eigenvalues --   -0.42171  -0.40615  -0.39377  -0.38428  -0.37317
  Beta  occ. eigenvalues --   -0.35650  -0.35383  -0.34510  -0.33061  -0.32498
  Beta  occ. eigenvalues --   -0.32059  -0.31868  -0.30609  -0.30067  -0.29715
  Beta  occ. eigenvalues --   -0.29056  -0.28824  -0.28275  -0.27090  -0.26269
  Beta  occ. eigenvalues --   -0.25994  -0.25749  -0.25243  -0.24934  -0.23315
  Beta  occ. eigenvalues --   -0.17381  -0.16375  -0.15416  -0.15106  -0.11063
  Beta  occ. eigenvalues --   -0.09522  -0.08995  -0.08523
  Beta virt. eigenvalues --    0.05270   0.06860   0.07276   0.08175   0.09216
  Beta virt. eigenvalues --    0.09483   0.09894   0.10308   0.10394   0.10997
  Beta virt. eigenvalues --    0.11299   0.12038   0.12596   0.13099   0.13293

 Mulliken charges and spin densities:
               1          2
     1  C   -0.574979  -0.025232
     2  C   -0.143603   0.015747
     3  C   -0.139901  -0.082266
     4  C   -0.326411  -0.007426
     5  N    0.201463   0.031368
     6  C   -0.194003  -0.004019
     7  C   -0.389686   0.002951
     8  O   -0.306830  -0.000695
     9  C   -1.254688   0.187304
    10  N   -0.133698  -0.072066
    11  C    0.264724   0.198795
    12  C   -2.081938  -0.067193
    13  C    1.692023   0.149394
    14  C    0.619617  -0.073577
    15  C   -0.294920  -0.005123
    16  N   -0.260678   0.218294
    17  O   -0.184669   0.182265
    18  O   -0.209341   0.209175
    19  H    0.145612   0.004064
    20  H    0.139227  -0.000702
    21  H    0.104283   0.019832
    22  H    0.195513   0.001799
    23  H    0.142778   0.001929
    24  H    0.125645   0.000338
    25  H    0.064425   0.052064
    26  H    0.131676   0.036007
    27  H    0.144258   0.020423
    28  H    0.225703   0.003423
    29  H    0.058557   0.000463
    30  H    0.138438   0.001808
    31  H    0.129102  -0.000185
    32  H    0.331649   0.002266
    33  H    0.267432  -0.011821
    34  H   -0.088008  -0.003707
    35  H    0.191052   0.005079
    36  H    0.078359   0.000793
    37  H    0.191818   0.008430
 Sum of Mulliken charges =  -1.00000   1.00000

 Dipole moment (field-independent basis, Debye):
    X=            -14.3794    Y=             -4.6014    Z=              0.5476  Tot=             15.1076
 Quadrupole moment (field-independent basis, Debye-Ang):
   XX=           -186.9597   YY=           -141.0681   ZZ=           -116.3467
   XY=             -0.2678   XZ=              5.1880   YZ=              0.0806

 Summary of Natural Population Analysis:

                                       Natural Population
                Natural  -----------------------------------------------
    Atom  No    Charge         Core      Valence    Rydberg      Total
 -----------------------------------------------------------------------
      C    1   -0.28582      0.99967     2.28177    0.00437     3.28582
      C    2   -0.19618      0.99964     2.19004    0.00650     3.19618
      C    3   -0.19332      0.99962     2.18634    0.00736     3.19332
      C    4   -0.08097      0.99962     2.07152    0.00983     3.08097
      N    5   -0.24573      0.99963     2.73224    0.01386     3.74573
      C    6   -0.09772      0.99962     2.08928    0.00883     3.09772
      C    7   -0.01101      0.99961     1.99980    0.01160     3.01101
      O    8   -0.38742      0.99989     3.38003    0.00749     4.38742
      C    9    0.26129      0.99952     1.72422    0.01497     2.73871
      N   10   -0.31622      0.99966     2.80623    0.01032     3.81622
      C   11    0.09172      0.99956     1.89520    0.01351     2.90828
      C   12   -0.00189      0.99937     1.98827    0.01426     3.00189
      C   13    0.05170      0.99950     1.94039    0.00840     2.94830
      C   14   -0.18120      0.99949     2.17521    0.00650     3.18120
      C   15   -0.29463      0.99963     2.28994    0.00506     3.29463
      N   16    0.31177      0.99971     2.16237    0.02615     3.18823
      O   17   -0.20342      0.99990     3.19583    0.00769     4.20342
      O   18   -0.19269      0.99990     3.18479    0.00800     4.19269
      H   19    0.09560      0.00000     0.40320    0.00120     0.40440
      H   20    0.09991      0.00000     0.39934    0.00075     0.40009
      H   21    0.09162      0.00000     0.40720    0.00118     0.40838
      H   22    0.10689      0.00000     0.39196    0.00115     0.39311
      H   23    0.09208      0.00000     0.40685    0.00107     0.40792
      H   24    0.09607      0.00000     0.40291    0.00102     0.40393
      H   25    0.09001      0.00000     0.40787    0.00211     0.40999
      H   26    0.09142      0.00000     0.40675    0.00183     0.40858
      H   27    0.10050      0.00000     0.39782    0.00168     0.39950
      H   28    0.10742      0.00000     0.39121    0.00137     0.39258
      H   29    0.09096      0.00000     0.40777    0.00127     0.40904
      H   30    0.07471      0.00000     0.42370    0.00159     0.42529
      H   31    0.07052      0.00000     0.42803    0.00145     0.42948
      H   32    0.24891      0.00000     0.24798    0.00312     0.25109
      H   33    0.10448      0.00000     0.39429    0.00123     0.39552
      H   34    0.09444      0.00000     0.40390    0.00166     0.40556
      H   35    0.11587      0.00000     0.38296    0.00117     0.38413
      H   36    0.08496      0.00000     0.41393    0.00110     0.41504
      H   37    0.11535      0.00000     0.38347    0.00119     0.38465
 =======================================================================
   * Total *    0.00000     17.99354    49.79459    0.21187    68.00000

 Normal termination of Gaussian 16 at Fri Dec 11 22:45:19 2020.
