 Gaussian 16, Revision A.03,

 -----------------------------------------------------------
 # opt freq B3LYP/6-31G(d) empiricaldispersion=gd3bj scf=xqc
 -----------------------------------------------------------

 -------------------------------
 CID_120947059_JID_9267_neutraal
 -------------------------------
 Symbolic Z-matrix:
 Charge =  0 Multiplicity = 1

 SCF Done:  E(RB3LYP) =  -1201.31819641     A.U. after   15 cycles
 SCF Done:  E(RB3LYP) =  -1201.32572593     A.U. after   13 cycles
 SCF Done:  E(RB3LYP) =  -1201.32639793     A.U. after   12 cycles
 SCF Done:  E(RB3LYP) =  -1201.32729529     A.U. after   12 cycles
 SCF Done:  E(RB3LYP) =  -1201.32784968     A.U. after   12 cycles
 SCF Done:  E(RB3LYP) =  -1201.32856090     A.U. after   12 cycles
 SCF Done:  E(RB3LYP) =  -1201.32913742     A.U. after   12 cycles
 SCF Done:  E(RB3LYP) =  -1201.32941700     A.U. after   12 cycles
 SCF Done:  E(RB3LYP) =  -1201.32946140     A.U. after   11 cycles
 SCF Done:  E(RB3LYP) =  -1201.32952193     A.U. after   11 cycles
 SCF Done:  E(RB3LYP) =  -1201.32954495     A.U. after    9 cycles
 SCF Done:  E(RB3LYP) =  -1201.32954525     A.U. after    8 cycles
 SCF Done:  E(RB3LYP) =  -1201.32954546     A.U. after    8 cycles
 SCF Done:  E(RB3LYP) =  -1201.32954550     A.U. after    7 cycles
 Optimization completed.
    -- Stationary point found.
 Normal termination of Gaussian 16 at Sat Dec 12 09:35:50 2020.

 --------------------------------------------------------------------
 #N Geom=AllCheck Guess=TCheck SCRF=Check GenChk RB3LYP/6-31G(d) Freq
 --------------------------------------------------------------------

 Structure from the checkpoint file:  "JID_9267.chk"
 -------------------------------
 CID_120947059_JID_9267_neutraal
 -------------------------------
 Charge =  0 Multiplicity = 1

 SCF Done:  E(RB3LYP) =  -1201.32954550     A.U. after    1 cycles

  Exact polarizability: 219.929 -45.631 145.641   9.017   4.423 165.055
 Approx polarizability: 305.896 -91.196 235.249  12.112  14.983 302.642

                      1                      2                      3
                      A                      A                      A
 Frequencies --     14.6998                28.5498                41.8924
 Red. masses --      6.0392                 4.8152                 5.0063
 Frc consts  --      0.0008                 0.0023                 0.0052
 IR Inten    --      0.5462                 1.4031                 0.3875

                      4                      5                      6
                      A                      A                      A
 Frequencies --     62.3658                74.9239                89.5599
 Red. masses --      4.2887                 5.3811                 5.3878
 Frc consts  --      0.0098                 0.0178                 0.0255
 IR Inten    --      0.0811                 4.6131                 1.7732

                      7                      8                      9
                      A                      A                      A
 Frequencies --    142.5955               187.7984               202.0661
 Red. masses --      5.9873                 4.1587                 4.5666
 Frc consts  --      0.0717                 0.0864                 0.1099
 IR Inten    --      0.9511                 3.9319                 3.0519

                     10                     11                     12
                      A                      A                      A
 Frequencies --    216.3401               243.8386               281.7933
 Red. masses --      4.3298                 4.1424                 4.8319
 Frc consts  --      0.1194                 0.1451                 0.2261
 IR Inten    --      1.1977                 0.5855                 4.7723

                     13                     14                     15
                      A                      A                      A
 Frequencies --    306.5085               343.2599               356.6258
 Red. masses --      4.9404                 3.3216                 4.2512
 Frc consts  --      0.2735                 0.2306                 0.3186
 IR Inten    --      1.6573                 1.5461                 1.4795

                     16                     17                     18
                      A                      A                      A
 Frequencies --    405.4469               429.8900               467.9870
 Red. masses --      3.3395                 3.0946                 2.3336
 Frc consts  --      0.3234                 0.3369                 0.3011
 IR Inten    --      2.4922                 1.6244                 0.6941

                     19                     20                     21
                      A                      A                      A
 Frequencies --    472.4176               504.3888               517.9558
 Red. masses --      4.2421                 1.6810                 3.3509
 Frc consts  --      0.5578                 0.2520                 0.5297
 IR Inten    --      5.2670                38.8852                 6.3097

                     22                     23                     24
                      A                      A                      A
 Frequencies --    526.7850               542.6005               568.0864
 Red. masses --      1.8518                 7.2179                 4.6372
 Frc consts  --      0.3028                 1.2521                 0.8817
 IR Inten    --     81.6978                 0.5657                 9.3274

                     25                     26                     27
                      A                      A                      A
 Frequencies --    607.0754               611.5948               644.4548
 Red. masses --      2.8570                 2.9755                 4.2927
 Frc consts  --      0.6204                 0.6557                 1.0504
 IR Inten    --     18.6233                60.0817                24.4799

                     28                     29                     30
                      A                      A                      A
 Frequencies --    690.1530               698.5631               723.3445
 Red. masses --      3.3783                 2.5306                 2.5908
 Frc consts  --      0.9481                 0.7276                 0.7987
 IR Inten    --     12.1911                38.2886                36.4877

                     31                     32                     33
                      A                      A                      A
 Frequencies --    746.4187               761.8752               768.9879
 Red. masses --      1.9658                 6.5133                 2.3125
 Frc consts  --      0.6453                 2.2275                 0.8057
 IR Inten    --     13.9832                 4.2090                15.8871

                     34                     35                     36
                      A                      A                      A
 Frequencies --    797.9932               827.2177               841.8282
 Red. masses --      2.8254                 3.2890                 2.1603
 Frc consts  --      1.0600                 1.3260                 0.9020
 IR Inten    --     83.2702                45.2756                 8.9433

                     37                     38                     39
                      A                      A                      A
 Frequencies --    843.0864               889.0383               897.5435
 Red. masses --      2.0256                 2.5914                 1.5021
 Frc consts  --      0.8483                 1.2068                 0.7129
 IR Inten    --      3.5501                64.9715                 8.1953

                     40                     41                     42
                      A                      A                      A
 Frequencies --    899.6895               922.3350               930.0528
 Red. masses --      1.9730                 2.3158                 1.6733
 Frc consts  --      0.9409                 1.1607                 0.8528
 IR Inten    --      6.1247                 5.6351                 7.4879

                     43                     44                     45
                      A                      A                      A
 Frequencies --    946.5044               968.3400               973.1025
 Red. masses --      1.7515                 1.2849                 2.0869
 Frc consts  --      0.9245                 0.7099                 1.1643
 IR Inten    --      7.5986                 1.7439                 0.9722

                     46                     47                     48
                      A                      A                      A
 Frequencies --   1002.7910              1032.9749              1051.8227
 Red. masses --      2.0994                 2.2797                 2.2271
 Frc consts  --      1.2438                 1.4332                 1.4517
 IR Inten    --     22.1004                 1.7465                 6.7259

                     49                     50                     51
                      A                      A                      A
 Frequencies --   1073.2334              1100.2948              1106.0225
 Red. masses --      3.7591                 2.0235                 2.5674
 Frc consts  --      2.5510                 1.4434                 1.8504
 IR Inten    --     35.4995                41.6297                22.0703

                     52                     53                     54
                      A                      A                      A
 Frequencies --   1120.8740              1131.6342              1140.7391
 Red. masses --      1.2389                 2.4052                 1.9721
 Frc consts  --      0.9170                 1.8148                 1.5120
 IR Inten    --     10.9934                 2.2081                10.1983

                     55                     56                     57
                      A                      A                      A
 Frequencies --   1164.5824              1186.7859              1205.9459
 Red. masses --      2.5999                 1.3647                 1.2197
 Frc consts  --      2.0775                 1.1325                 1.0451
 IR Inten    --      7.4576                 2.1347                29.9592

                     58                     59                     60
                      A                      A                      A
 Frequencies --   1234.1935              1238.6834              1257.8155
 Red. masses --      1.8486                 1.6081                 1.3801
 Frc consts  --      1.6591                 1.4537                 1.2865
 IR Inten    --     47.7286                33.7280                39.8946

                     61                     62                     63
                      A                      A                      A
 Frequencies --   1270.6337              1292.7744              1306.4082
 Red. masses --      1.3855                 1.4636                 1.2612
 Frc consts  --      1.3179                 1.4412                 1.2683
 IR Inten    --     56.5513                19.7094                13.3389

                     64                     65                     66
                      A                      A                      A
 Frequencies --   1307.9848              1344.9189              1355.7634
 Red. masses --      1.3833                 1.5258                 1.9697
 Frc consts  --      1.3943                 1.6261                 2.1332
 IR Inten    --      4.6463                10.5219                31.8715

                     67                     68                     69
                      A                      A                      A
 Frequencies --   1368.5635              1375.4913              1385.3248
 Red. masses --      3.4121                 2.3521                 1.5710
 Frc consts  --      3.7653                 2.6219                 1.7764
 IR Inten    --     59.0655                91.7057                52.8412

                     70                     71                     72
                      A                      A                      A
 Frequencies --   1409.3509              1422.8790              1444.9110
 Red. masses --      1.4713                 1.4980                 1.3057
 Frc consts  --      1.7218                 1.7869                 1.6062
 IR Inten    --     32.1280                15.5909                19.4402

                     73                     74                     75
                      A                      A                      A
 Frequencies --   1463.1545              1474.3893              1483.0312
 Red. masses --      1.3316                 4.1745                 1.5165
 Frc consts  --      1.6796                 5.3466                 1.9652
 IR Inten    --     50.5703                40.7694                22.4369

                     76                     77                     78
                      A                      A                      A
 Frequencies --   1486.4638              1521.4896              1530.2170
 Red. masses --      2.5116                 1.1256                 1.0974
 Frc consts  --      3.2697                 1.5352                 1.5140
 IR Inten    --     13.0258                32.2694                 2.1218

                     79                     80                     81
                      A                      A                      A
 Frequencies --   1548.6990              1570.5083              1606.4252
 Red. masses --      1.0996                 4.4792                 6.8984
 Frc consts  --      1.5539                 6.5093                10.4886
 IR Inten    --      9.4276                 5.4890                 3.8245

                     82                     83                     84
                      A                      A                      A
 Frequencies --   1657.9876              1769.1343              2934.1322
 Red. masses --      6.1655                 8.3662                 1.0743
 Frc consts  --      9.9858                15.4277                 5.4491
 IR Inten    --     22.7554               283.6009                48.1335

                     85                     86                     87
                      A                      A                      A
 Frequencies --   2943.0396              3065.1560              3091.1938
 Red. masses --      1.0726                 1.0698                 1.0841
 Frc consts  --      5.4739                 5.9220                 6.1037
 IR Inten    --    103.0264                26.0625                10.4288

                     88                     89                     90
                      A                      A                      A
 Frequencies --   3102.9587              3108.7855              3118.5541
 Red. masses --      1.0877                 1.0885                 1.0905
 Frc consts  --      6.1706                 6.1984                 6.2485
 IR Inten    --     34.0615                32.0652                26.8695

                     91                     92                     93
                      A                      A                      A
 Frequencies --   3139.1972              3201.0269              3215.2772
 Red. masses --      1.0966                 1.0876                 1.0906
 Frc consts  --      6.3671                 6.5662                 6.6431
 IR Inten    --     24.5457                 2.9185                 2.2364

                     94                     95                     96
                      A                      A                      A
 Frequencies --   3217.2810              3226.6690              3268.8594
 Red. masses --      1.0946                 1.0908                 1.0977
 Frc consts  --      6.6754                 6.6909                 6.9107
 IR Inten    --      7.8223                 4.1477                 1.3724

                     97                     98                     99
                      A                      A                      A
 Frequencies --   3524.5749              3558.9321              3682.7772
 Red. masses --      1.0754                 1.0747                 1.0651
 Frc consts  --      7.8712                 8.0198                 8.5110
 IR Inten    --      0.5538                13.0116                22.7522

 - Thermochemistry -
 -------------------
 Temperature   298.150 Kelvin.  Pressure   1.00000 Atm.
 Atom     1 has atomic number  6 and mass  12.00000

 Molecular mass:   276.09325 amu.
 Principal axes and moments of inertia in atomic units:
                           1         2         3
     Eigenvalues --  3075.380289914.55639**********
           X            0.99997   0.00444   0.00566
           Y           -0.00435   0.99985  -0.01682
           Z           -0.00574   0.01679   0.99984
 This molecule is an asymmetric top.
 Rotational symmetry number  1.
 Warning -- assumption of classical behavior for rotation
           may cause significant error
 Rotational temperatures (Kelvin)      0.02816     0.00874     0.00778
 Rotational constants (GHZ):           0.58684     0.18203     0.16215
 Zero-point vibrational energy     752815.3 (Joules/Mol)
                                  179.92717 (Kcal/Mol)
 Warning -- explicit consideration of  26 degrees of freedom as
           vibrations may cause significant error
 Vibrational temperatures:     21.15    41.08    60.27    89.73   107.80
          (Kelvin)            128.86   205.16   270.20   290.73   311.27
                              350.83   405.44   441.00   493.87   513.10
                              583.35   618.52   673.33   679.70   725.70
                              745.22   757.93   780.68   817.35   873.45
                              879.95   927.23   992.98  1005.08  1040.73
                             1073.93  1096.17  1106.40  1148.13  1190.18
                             1211.20  1213.01  1279.13  1291.36  1294.45
                             1327.03  1338.14  1361.81  1393.23  1400.08
                             1442.79  1486.22  1513.34  1544.14  1583.08
                             1591.32  1612.69  1628.17  1641.27  1675.57
                             1707.52  1735.09  1775.73  1782.19  1809.72
                             1828.16  1860.01  1879.63  1881.90  1935.04
                             1950.64  1969.06  1979.03  1993.17  2027.74
                             2047.21  2078.90  2105.15  2121.32  2133.75
                             2138.69  2189.08  2201.64  2228.23  2259.61
                             2311.29  2385.47  2545.39  4221.56  4234.38
                             4410.08  4447.54  4464.47  4472.85  4486.90
                             4516.60  4605.56  4626.07  4628.95  4642.46
                             4703.16  5071.08  5120.51  5298.69

 Zero-point correction=                           0.286732 (Hartree/Particle)
 Thermal correction to Energy=                    0.303269
 Thermal correction to Enthalpy=                  0.304213
 Thermal correction to Gibbs Free Energy=         0.239821
 Sum of electronic and zero-point Energies=          -1201.042813
 Sum of electronic and thermal Energies=             -1201.026277
 Sum of electronic and thermal Enthalpies=           -1201.025333
 Sum of electronic and thermal Free Energies=        -1201.089724

                     E (Thermal)             CV                S
                      KCal/Mol        Cal/Mol-Kelvin    Cal/Mol-Kelvin
 Total                  190.304             64.678            135.523
 Electronic               0.000              0.000              0.000
 Translational            0.889              2.981             42.745
 Rotational               0.889              2.981             34.183
 Vibrational            188.527             58.717             58.595
 Vibration     1          0.593              1.986              7.246
 Vibration     2          0.593              1.984              5.928
 Vibration     3          0.595              1.980              5.168
 Vibration     4          0.597              1.972              4.381
 Vibration     5          0.599              1.966              4.020
 Vibration     6          0.602              1.957              3.670
 Vibration     7          0.616              1.911              2.769
 Vibration     8          0.632              1.857              2.249
 Vibration     9          0.639              1.837              2.114
 Vibration    10          0.645              1.816              1.990
 Vibration    11          0.659              1.773              1.775
 Vibration    12          0.681              1.707              1.523
 Vibration    13          0.697              1.661              1.381
 Vibration    14          0.722              1.589              1.197
 Vibration    15          0.732              1.562              1.137
 Vibration    16          0.770              1.458              0.943
 Vibration    17          0.791              1.405              0.859
 Vibration    18          0.825              1.321              0.743
 Vibration    19          0.829              1.311              0.731
 Vibration    20          0.860              1.240              0.647
 Vibration    21          0.873              1.210              0.615
 Vibration    22          0.882              1.191              0.594
 Vibration    23          0.898              1.156              0.560
 Vibration    24          0.924              1.100              0.508
 Vibration    25          0.966              1.017              0.438
 Vibration    26          0.971              1.007              0.430

 Optimization completed.
    -- Stationary point found.
 Normal termination of Gaussian 16 at Sat Dec 12 09:53:16 2020.

 ----------------------------------------------------------------------
 # B3LYP/6-311++G(d,p) empiricaldispersion=gd3bj scf=xqc pop=npa geom=c
 heck
 ----------------------------------------------------------------------

 ---------------------------------------
 CID_120947059_JID_9267_Energie_neutraal
 ---------------------------------------
 Structure from the checkpoint file:  "JID_9267.chk"
 Charge =  0 Multiplicity = 1

 SCF Done:  E(RB3LYP) =  -1201.58802621     A.U. after   16 cycles
 Normal termination of Gaussian 16 at Sat Dec 12 10:01:22 2020.

 ----------------------------------------------------------------------
 # B3LYP/6-311++G(d,p) empiricaldispersion=gd3bj scf=xqc pop=npa geom=c
 heck
 ----------------------------------------------------------------------

 -------------------------------------
 CID_120947059_JID_9267_Energie_kation
 -------------------------------------
 Structure from the checkpoint file:  "JID_9267.chk"
 Charge =  1 Multiplicity = 2

 SCF Done:  E(UB3LYP) =  -1201.29739406     A.U. after   33 cycles
 SCF Done:  E(UB3LYP) =  -1201.29739406     a.u. after    2 cycles
 Normal termination of Gaussian 16 at Sat Dec 12 10:48:17 2020.
 Gaussian 16:  ES64L-G16RevA.03 25-Dec-2016

 ----------------------------------------------------------------------
 # B3LYP/6-311++G(d,p) empiricaldispersion=gd3bj scf=xqc pop=npa geom=c
 heck
 ----------------------------------------------------------------------

 ------------------------------------
 CID_120947059_JID_9267_Energie_anion
 ------------------------------------
 Structure from the checkpoint file:  "JID_9267.chk"
 Charge = -1 Multiplicity = 2

                         Standard orientation:
 ---------------------------------------------------------------------
 Center     Atomic      Atomic             Coordinates (Angstroms)
 Number     Number       Type             X           Y           Z
 ---------------------------------------------------------------------
      1          6           0       -3.496997    0.277349    0.910132
      2          6           0       -2.411292   -0.253672   -0.063642
      3          6           0       -3.008924   -1.584893   -0.607370
      4          6           0       -4.499816   -1.438180   -0.280884
      5          7           0       -4.403510   -0.867849    1.066802
      6          8           0       -2.464040   -2.716124    0.054227
      7          6           0       -2.061961    0.740040   -1.176493
      8          7           0       -1.598301    2.041630   -0.681510
      9          6           0       -0.495168    2.205334    0.139156
     10          8           0       -0.490633    3.045680    1.032118
     11          6           0        0.699336    1.345068   -0.133158
     12          6           0        1.438846    0.901963    0.959584
     13          6           0        2.577540    0.109396    0.758878
     14          6           0        2.969750   -0.199829   -0.569424
     15          6           0        2.252267    0.271332   -1.672622
     16          6           0        1.116755    1.036317   -1.445550
     17         16           0        4.416880   -1.190212   -0.587937
     18          6           0        4.479238   -1.177643    1.164258
     19          6           0        3.469798   -0.469364    1.730905
     20          1           0       -4.005671    1.151583    0.460790
     21          1           0       -3.091797    0.593736    1.875453
     22          1           0       -1.490744   -0.500215    0.474023
     23          1           0       -2.812182   -1.729630   -1.673606
     24          1           0       -5.016006   -2.402094   -0.277287
     25          1           0       -4.997149   -0.768261   -1.008543
     26          1           0       -5.304386   -0.602250    1.456091
     27          1           0       -2.779267   -2.640450    0.972824
     28          1           0       -1.300197    0.304486   -1.825646
     29          1           0       -2.940655    0.937188   -1.801720
     30          1           0       -2.342667    2.657885   -0.370317
     31          1           0        1.123589    1.181480    1.959769
     32          1           0        2.577217    0.050934   -2.684661
     33          1           0        0.560322    1.434944   -2.287454
     34          1           0        5.277692   -1.708291    1.665538
     35          1           0        3.345640   -0.349887    2.801320
 ---------------------------------------------------------------------

 SCF Done:  E(UB3LYP) =  -1201.58595725     A.U. after   33 cycles
 SCF Done:  E(UB3LYP) =  -1201.58617430     a.u. after    7 cycles

 The electronic state is 2-A.
 Alpha  occ. eigenvalues --  -88.76792 -19.02472 -18.96682 -14.21650 -14.21183
 Alpha  occ. eigenvalues --  -10.14481 -10.12773 -10.10520 -10.10333 -10.09981
 Alpha  occ. eigenvalues --  -10.09889 -10.08744 -10.08167 -10.07579 -10.07579
 Alpha  occ. eigenvalues --  -10.07427 -10.06656 -10.06408 -10.06018  -7.85422
 Alpha  occ. eigenvalues --   -5.81736  -5.81380  -5.80972  -0.93298  -0.91834
 Alpha  occ. eigenvalues --   -0.82849  -0.80606  -0.78615  -0.72411  -0.67824
 Alpha  occ. eigenvalues --   -0.66493  -0.63149  -0.62836  -0.60995  -0.57860
 Alpha  occ. eigenvalues --   -0.52645  -0.51084  -0.50221  -0.48454  -0.47193
 Alpha  occ. eigenvalues --   -0.44665  -0.43309  -0.40859  -0.40650  -0.37573
 Alpha  occ. eigenvalues --   -0.36980  -0.36545  -0.36294  -0.34876  -0.33890
 Alpha  occ. eigenvalues --   -0.32703  -0.32358  -0.31492  -0.30340  -0.30195
 Alpha  occ. eigenvalues --   -0.29698  -0.28729  -0.27999  -0.27447  -0.26819
 Alpha  occ. eigenvalues --   -0.25905  -0.24962  -0.24537  -0.23307  -0.23147
 Alpha  occ. eigenvalues --   -0.22271  -0.18539  -0.18400  -0.15404  -0.14530
 Alpha  occ. eigenvalues --   -0.13821  -0.13372  -0.11876   0.04025
 Alpha virt. eigenvalues --    0.05395   0.06790   0.07145   0.07453   0.08107
 Alpha virt. eigenvalues --    0.08355   0.09144   0.09762   0.10447   0.10577
 Alpha virt. eigenvalues --    0.11052   0.11406   0.11675   0.12071   0.12345

  Beta  occ. eigenvalues --  -88.76772 -19.02467 -18.96525 -14.21633 -14.21159
  Beta  occ. eigenvalues --  -10.14352 -10.12773 -10.10502 -10.10290 -10.09956
  Beta  occ. eigenvalues --  -10.09879 -10.08447 -10.08184 -10.07582 -10.07575
  Beta  occ. eigenvalues --  -10.07490 -10.06618 -10.06276 -10.05889  -7.85404
  Beta  occ. eigenvalues --   -5.81730  -5.81375  -5.80897  -0.93290  -0.91547
  Beta  occ. eigenvalues --   -0.82813  -0.80487  -0.78419  -0.72233  -0.67781
  Beta  occ. eigenvalues --   -0.66317  -0.63053  -0.62591  -0.60854  -0.57788
  Beta  occ. eigenvalues --   -0.52440  -0.51027  -0.50008  -0.48355  -0.47075
  Beta  occ. eigenvalues --   -0.44551  -0.43248  -0.40807  -0.40590  -0.37500
  Beta  occ. eigenvalues --   -0.36857  -0.36431  -0.36206  -0.34784  -0.33767
  Beta  occ. eigenvalues --   -0.32635  -0.32309  -0.31366  -0.30221  -0.29989
  Beta  occ. eigenvalues --   -0.29306  -0.28573  -0.27702  -0.27346  -0.26711
  Beta  occ. eigenvalues --   -0.25725  -0.24864  -0.24428  -0.23195  -0.23098
  Beta  occ. eigenvalues --   -0.21826  -0.18478  -0.17957  -0.15159  -0.14480
  Beta  occ. eigenvalues --   -0.13449  -0.12456  -0.11469
  Beta virt. eigenvalues --    0.06503   0.07065   0.07130   0.07628   0.07980
  Beta virt. eigenvalues --    0.08320   0.08644   0.09214   0.09942   0.10627
  Beta virt. eigenvalues --    0.10689   0.11288   0.11708   0.11716   0.12343

 Mulliken charges and spin densities:
               1          2
     1  C    0.018745  -0.539872
     2  C   -0.296166   0.210723
     3  C   -0.506574   0.537458
     4  C    0.713144  -1.195697
     5  N   -0.283986   0.106097
     6  O   -0.185088  -0.002453
     7  C    0.024483  -0.512067
     8  N   -0.083257   0.014979
     9  C   -0.460384  -0.002324
    10  O   -0.319850   0.056689
    11  C    0.740647   0.009480
    12  C   -0.079206   0.009862
    13  C   -0.273449   0.017506
    14  C    0.364292   0.119639
    15  C   -0.082198  -0.037286
    16  C   -0.585154   0.168128
    17  S   -0.731238   0.051486
    18  C   -0.100641   0.021037
    19  C    0.069797  -0.005252
    20  H   -0.178650   0.324729
    21  H    0.203143   0.002491
    22  H    0.156063   0.062478
    23  H    0.216057  -0.003720
    24  H    0.008170   0.193953
    25  H   -0.376821   0.495607
    26  H   -0.111866   0.366017
    27  H    0.252235  -0.010208
    28  H    0.062879   0.003166
    29  H   -0.174543   0.384132
    30  H    0.195904   0.097327
    31  H    0.203159  -0.002724
    32  H    0.130680   0.019497
    33  H    0.127333   0.040578
    34  H    0.214152  -0.002115
    35  H    0.128188   0.000660
 Sum of Mulliken charges =  -1.00000   1.00000

 Dipole moment (field-independent basis, Debye):
    X=              4.6844    Y=             -2.9618    Z=             -0.1113  Tot=              5.5433
 Quadrupole moment (field-independent basis, Debye-Ang):
   XX=           -201.9257   YY=           -164.4952   ZZ=           -133.5020
   XY=             -2.7090   XZ=              3.2634   YZ=             -4.6530

 Summary of Natural Population Analysis:

                                       Natural Population
                Natural  -----------------------------------------------
    Atom  No    Charge         Core      Valence    Rydberg      Total
 -----------------------------------------------------------------------
      C    1   -0.08992      0.99962     2.07856    0.01174     3.08992
      C    2   -0.13440      0.99957     2.12453    0.01030     3.13440
      C    3    0.06292      0.99954     1.92196    0.01559     2.93708
      C    4   -0.10336      0.99961     2.09180    0.01195     3.10336
      N    5   -0.35241      0.99975     2.83954    0.01312     3.85241
      O    6   -0.37194      0.99990     3.36596    0.00608     4.37194
      C    7   -0.08657      0.99958     2.07478    0.01221     3.08657
      N    8   -0.32681      0.99969     2.81677    0.01035     3.82681
      C    9    0.35523      0.99962     1.62143    0.02372     2.64477
      O   10   -0.30825      0.99988     3.30316    0.00521     4.30825
      C   11   -0.05539      0.99946     2.04478    0.01114     3.05539
      C   12   -0.06115      0.99949     2.05439    0.00727     3.06115
      C   13   -0.05254      0.99947     2.04492    0.00815     3.05254
      C   14   -0.03550      0.99941     2.02632    0.00977     3.03550
      C   15   -0.12381      0.99950     2.11536    0.00894     3.12381
      C   16   -0.06933      0.99954     2.05993    0.00985     3.06933
      S   17    0.18011      4.99946     2.79812    0.02231     7.81989
      C   18   -0.18133      0.99954     2.17118    0.01061     3.18133
      C   19   -0.12046      0.99950     2.11166    0.00930     3.12046
      H   20    0.08003      0.00000     0.41809    0.00188     0.41997
      H   21    0.09899      0.00000     0.39993    0.00108     0.40101
      H   22    0.11265      0.00000     0.38613    0.00122     0.38735
      H   23    0.08970      0.00000     0.40933    0.00097     0.41030
      H   24    0.09826      0.00000     0.40067    0.00106     0.40174
      H   25    0.08517      0.00000     0.41241    0.00241     0.41483
      H   26    0.18201      0.00000     0.31506    0.00293     0.31799
      H   27    0.23109      0.00000     0.26613    0.00278     0.26891
      H   28    0.10196      0.00000     0.39679    0.00125     0.39804
      H   29    0.09588      0.00000     0.40279    0.00133     0.40412
      H   30    0.18815      0.00000     0.30940    0.00245     0.31185
      H   31    0.10602      0.00000     0.39284    0.00114     0.39398
      H   32    0.09875      0.00000     0.40000    0.00126     0.40125
      H   33    0.09979      0.00000     0.39888    0.00133     0.40021
      H   34    0.10254      0.00000     0.39651    0.00094     0.39746
      H   35    0.10388      0.00000     0.39512    0.00100     0.39612
 =======================================================================
   * Total *    0.00000     22.99213    49.76520    0.24267    73.00000

 Normal termination of Gaussian 16 at Sat Dec 12 13:19:51 2020.
