 Gaussian 16, Revision A.03,

 -----------------------------------------------------------
 # opt freq B3LYP/6-31G(d) empiricaldispersion=gd3bj scf=xqc
 -----------------------------------------------------------

 ------------------------------
 CID_83008303_JID_9176_neutraal
 ------------------------------
 Symbolic Z-matrix:
 Charge =  0 Multiplicity = 1

 SCF Done:  E(RB3LYP) =  -862.283796458     A.U. after   14 cycles
 SCF Done:  E(RB3LYP) =  -862.288198762     A.U. after   12 cycles
 SCF Done:  E(RB3LYP) =  -862.288718996     A.U. after   11 cycles
 SCF Done:  E(RB3LYP) =  -862.289056363     A.U. after   11 cycles
 SCF Done:  E(RB3LYP) =  -862.289390915     A.U. after   12 cycles
 SCF Done:  E(RB3LYP) =  -862.289588289     A.U. after   12 cycles
 SCF Done:  E(RB3LYP) =  -862.289766000     A.U. after   12 cycles
 SCF Done:  E(RB3LYP) =  -862.289832279     A.U. after   10 cycles
 SCF Done:  E(RB3LYP) =  -862.289901312     A.U. after   11 cycles
 SCF Done:  E(RB3LYP) =  -862.289914560     A.U. after    9 cycles
 SCF Done:  E(RB3LYP) =  -862.289928077     A.U. after    9 cycles
 SCF Done:  E(RB3LYP) =  -862.289928321     A.U. after    8 cycles
 SCF Done:  E(RB3LYP) =  -862.289928557     A.U. after    9 cycles
 SCF Done:  E(RB3LYP) =  -862.289928696     A.U. after    7 cycles
 SCF Done:  E(RB3LYP) =  -862.289928764     A.U. after    7 cycles
 Optimization completed.
    -- Stationary point found.
 Normal termination of Gaussian 16 at Mon Dec 14 13:38:33 2020.

 --------------------------------------------------------------------
 #N Geom=AllCheck Guess=TCheck SCRF=Check GenChk RB3LYP/6-31G(d) Freq
 --------------------------------------------------------------------

 Structure from the checkpoint file:  "JID_9176.chk"
 ------------------------------
 CID_83008303_JID_9176_neutraal
 ------------------------------
 Charge =  0 Multiplicity = 1

 SCF Done:  E(RB3LYP) =  -862.289928764     A.U. after    1 cycles

  Exact polarizability: 255.924   1.639 144.744 -12.681   2.965 130.596
 Approx polarizability: 333.995   6.970 228.426 -28.864   0.561 224.409

                      1                      2                      3
                      A                      A                      A
 Frequencies --     12.7970                27.2465                34.1965
 Red. masses --      5.0579                 3.7043                 1.0363
 Frc consts  --      0.0005                 0.0016                 0.0007
 IR Inten    --      0.6101                 0.0675                 0.1816

                      4                      5                      6
                      A                      A                      A
 Frequencies --     40.0918                78.3225                89.5292
 Red. masses --      4.0970                 2.5109                 3.7597
 Frc consts  --      0.0039                 0.0091                 0.0178
 IR Inten    --      0.8884                 2.7076                 2.1559

                      7                      8                      9
                      A                      A                      A
 Frequencies --    104.7628               159.6842               186.8086
 Red. masses --      3.8012                 1.2181                 3.9046
 Frc consts  --      0.0246                 0.0183                 0.0803
 IR Inten    --      4.4644                 0.4121                 1.6185

                     10                     11                     12
                      A                      A                      A
 Frequencies --    189.8571               213.9263               214.8795
 Red. masses --      3.9314                 2.8177                 4.0087
 Frc consts  --      0.0835                 0.0760                 0.1091
 IR Inten    --      0.9642                 3.0237                 0.0344

                     13                     14                     15
                      A                      A                      A
 Frequencies --    220.7701               225.7279               265.0003
 Red. masses --      2.8017                 2.4466                 1.0856
 Frc consts  --      0.0805                 0.0734                 0.0449
 IR Inten    --      0.1494                 0.8321                28.1685

                     16                     17                     18
                      A                      A                      A
 Frequencies --    278.7810               312.7761               323.6180
 Red. masses --      1.6986                 3.9279                 5.7691
 Frc consts  --      0.0778                 0.2264                 0.3560
 IR Inten    --      0.0296                 1.4443                 4.9834

                     19                     20                     21
                      A                      A                      A
 Frequencies --    340.0268               370.3954               431.6043
 Red. masses --      4.7363                 3.2527                 4.4863
 Frc consts  --      0.3226                 0.2629                 0.4924
 IR Inten    --      4.8300                 1.9285                 7.0869

                     22                     23                     24
                      A                      A                      A
 Frequencies --    446.1468               454.5308               467.9088
 Red. masses --      5.5854                 3.1156                 3.6055
 Frc consts  --      0.6550                 0.3792                 0.4651
 IR Inten    --      1.4156                 1.2172                13.0021

                     25                     26                     27
                      A                      A                      A
 Frequencies --    518.2534               525.2024               553.0379
 Red. masses --      4.1960                 5.1857                 7.3133
 Frc consts  --      0.6640                 0.8428                 1.3179
 IR Inten    --      1.2901                 0.8747                 4.9018

                     28                     29                     30
                      A                      A                      A
 Frequencies --    570.6719               589.7744               632.7501
 Red. masses --      3.7813                 3.8516                 2.2741
 Frc consts  --      0.7256                 0.7893                 0.5364
 IR Inten    --      0.4993                44.6949               204.9186

                     31                     32                     33
                      A                      A                      A
 Frequencies --    645.9262               700.4073               701.8226
 Red. masses --      3.4847                 2.6901                 3.8227
 Frc consts  --      0.8566                 0.7775                 1.1094
 IR Inten    --     38.1850                 2.6915                64.6503

                     34                     35                     36
                      A                      A                      A
 Frequencies --    711.6563               739.0942               764.4518
 Red. masses --      3.7582                 5.4321                 6.1955
 Frc consts  --      1.1214                 1.7483                 2.1332
 IR Inten    --      4.3180                 4.6655                 4.8502

                     37                     38                     39
                      A                      A                      A
 Frequencies --    771.4504               790.4598               815.4628
 Red. masses --      6.6426                 1.3678                 1.5459
 Frc consts  --      2.3292                 0.5035                 0.6057
 IR Inten    --      8.5294                28.8684                27.2387

                     40                     41                     42
                      A                      A                      A
 Frequencies --    867.2268               875.8162               893.6885
 Red. masses --      3.4102                 1.2792                 1.4244
 Frc consts  --      1.5111                 0.5781                 0.6703
 IR Inten    --     28.0262                 6.4531                 4.9834

                     43                     44                     45
                      A                      A                      A
 Frequencies --    898.3829               959.0456               967.2622
 Red. masses --      1.4220                 2.8116                 1.2566
 Frc consts  --      0.6762                 1.5236                 0.6927
 IR Inten    --     17.4602                48.5700                 0.0936

                     46                     47                     48
                      A                      A                      A
 Frequencies --   1019.2813              1029.9454              1041.4113
 Red. masses --      5.8977                 2.1887                 2.7761
 Frc consts  --      3.6101                 1.3679                 1.7739
 IR Inten    --      0.7176                30.4219                22.0336

                     49                     50                     51
                      A                      A                      A
 Frequencies --   1073.8890              1076.2873              1127.1651
 Red. masses --      1.5145                 4.8839                 1.5808
 Frc consts  --      1.0291                 3.3333                 1.1833
 IR Inten    --     11.3407                78.7343                 4.4620

                     52                     53                     54
                      A                      A                      A
 Frequencies --   1128.3794              1162.0138              1185.5111
 Red. masses --      1.5773                 2.2164                 1.3371
 Frc consts  --      1.1832                 1.7633                 1.1072
 IR Inten    --      8.8425                50.2523                16.2224

                     55                     56                     57
                      A                      A                      A
 Frequencies --   1186.4214              1187.1790              1204.3797
 Red. masses --      1.5848                 1.4310                 1.2164
 Frc consts  --      1.3143                 1.1883                 1.0396
 IR Inten    --     94.3022                74.6840                 4.1001

                     58                     59                     60
                      A                      A                      A
 Frequencies --   1214.5222              1222.9198              1244.5200
 Red. masses --      1.4671                 1.5355                 2.0834
 Frc consts  --      1.2751                 1.3530                 1.9012
 IR Inten    --     82.4858                55.4541               127.6167

                     61                     62                     63
                      A                      A                      A
 Frequencies --   1265.7826              1282.0345              1289.2286
 Red. masses --      4.1148                 1.6452                 4.0203
 Frc consts  --      3.8844                 1.5932                 3.9370
 IR Inten    --    161.9500               255.1783                87.0666

                     64                     65                     66
                      A                      A                      A
 Frequencies --   1329.4066              1358.5921              1368.4120
 Red. masses --      1.5593                 4.9971                 4.2313
 Frc consts  --      1.6237                 5.4343                 4.6683
 IR Inten    --      4.7785                20.3655                11.2942

                     67                     68                     69
                      A                      A                      A
 Frequencies --   1397.8920              1441.9253              1459.7254
 Red. masses --      6.6537                 1.2462                 2.8662
 Frc consts  --      7.6606                 1.5266                 3.5983
 IR Inten    --      9.5812                 0.2524                46.9682

                     70                     71                     72
                      A                      A                      A
 Frequencies --   1484.3956              1495.2963              1511.4169
 Red. masses --      2.2037                 1.2428                 1.2856
 Frc consts  --      2.8608                 1.6372                 1.7302
 IR Inten    --     41.3442                41.7755                13.6003

                     73                     74                     75
                      A                      A                      A
 Frequencies --   1516.7755              1517.8424              1520.4993
 Red. masses --      1.1945                 1.0519                 1.0482
 Frc consts  --      1.6192                 1.4279                 1.4278
 IR Inten    --      4.2581                 5.4613                 5.4726

                     76                     77                     78
                      A                      A                      A
 Frequencies --   1527.9914              1535.4377              1539.6846
 Red. masses --      1.3384                 1.1028                 1.8035
 Frc consts  --      1.8411                 1.5318                 2.5190
 IR Inten    --     18.3531                90.8407                63.0811

                     79                     80                     81
                      A                      A                      A
 Frequencies --   1540.2027              1568.2314              1640.6110
 Red. masses --      1.1392                 3.1659                 5.0234
 Frc consts  --      1.5922                 4.5874                 7.9664
 IR Inten    --      5.4327               313.0398                21.5373

                     82                     83                     84
                      A                      A                      A
 Frequencies --   1645.4172              1666.9521              1672.9078
 Red. masses --      6.1471                 3.4757                 3.7856
 Frc consts  --      9.8055                 5.6904                 6.2421
 IR Inten    --     41.1332                13.7126                56.6817

                     85                     86                     87
                      A                      A                      A
 Frequencies --   1692.1971              3024.4992              3031.1971
 Red. masses --      1.7482                 1.0348                 1.0379
 Frc consts  --      2.9495                 5.5772                 5.6186
 IR Inten    --    107.0835                59.4995                72.9277

                     88                     89                     90
                      A                      A                      A
 Frequencies --   3043.9528              3082.8049              3100.3237
 Red. masses --      1.0396                 1.1065                 1.0970
 Frc consts  --      5.6753                 6.1960                 6.2124
 IR Inten    --     33.8499                42.1783                20.9190

                     91                     92                     93
                      A                      A                      A
 Frequencies --   3106.5287              3127.7374              3148.6948
 Red. masses --      1.0978                 1.1024                 1.1045
 Frc consts  --      6.2420                 6.3543                 6.4515
 IR Inten    --     38.0409                17.4955                35.0600

                     94                     95                     96
                      A                      A                      A
 Frequencies --   3159.0483              3181.4419              3198.3572
 Red. masses --      1.0996                 1.0866                 1.0930
 Frc consts  --      6.4655                 6.4801                 6.5878
 IR Inten    --     27.2481                 6.7189                33.7552

                     97                     98                     99
                      A                      A                      A
 Frequencies --   3201.6370              3217.5173              3227.1906
 Red. masses --      1.0913                 1.0890                 1.0917
 Frc consts  --      6.5911                 6.6422                 6.6990
 IR Inten    --      1.8435                 9.9566                 0.8451

                    100                    101                    102
                      A                      A                      A
 Frequencies --   3232.1211              3557.0212              3657.9895
 Red. masses --      1.0920                 1.0476                 1.0980
 Frc consts  --      6.7210                 7.8098                 8.6563
 IR Inten    --      2.6079                18.0735                18.1054

 - Thermochemistry -
 -------------------
 Temperature   298.150 Kelvin.  Pressure   1.00000 Atm.
 Atom     1 has atomic number  6 and mass  12.00000

 Molecular mass:   259.12084 amu.
 Principal axes and moments of inertia in atomic units:
                           1         2         3
     Eigenvalues --  2093.78797********************
           X            0.99999  -0.00354  -0.00071
           Y            0.00357   0.99923   0.03914
           Z            0.00058  -0.03915   0.99923
 This molecule is an asymmetric top.
 Rotational symmetry number  1.
 Warning -- assumption of classical behavior for rotation
           may cause significant error
 Rotational temperatures (Kelvin)      0.04137     0.00844     0.00790
 Rotational constants (GHZ):           0.86195     0.17586     0.16452
 Zero-point vibrational energy     775491.0 (Joules/Mol)
                                  185.34681 (Kcal/Mol)
 Warning -- explicit consideration of  29 degrees of freedom as
           vibrations may cause significant error
 Vibrational temperatures:     18.41    39.20    49.20    57.68   112.69
          (Kelvin)            128.81   150.73   229.75   268.78   273.16
                              307.79   309.16   317.64   324.77   381.28
                              401.10   450.01   465.61   489.22   532.92
                              620.98   641.91   653.97   673.22   745.65
                              755.65   795.70   821.07   848.55   910.39
                              929.34  1007.73  1009.77  1023.91  1063.39
                             1099.88  1109.95  1137.30  1173.27  1247.75
                             1260.10  1285.82  1292.57  1379.85  1391.67
                             1466.52  1481.86  1498.36  1545.09  1548.54
                             1621.74  1623.49  1671.88  1705.69  1707.00
                             1708.09  1732.83  1747.43  1759.51  1790.59
                             1821.18  1844.56  1854.91  1912.72  1954.71
                             1968.84  2011.25  2074.61  2100.22  2135.71
                             2151.40  2174.59  2182.30  2183.84  2187.66
                             2198.44  2209.15  2215.26  2216.01  2256.34
                             2360.47  2367.39  2398.37  2406.94  2434.69
                             4351.58  4361.22  4379.57  4435.47  4460.67
                             4469.60  4500.12  4530.27  4545.17  4577.39
                             4601.72  4606.44  4629.29  4643.21  4650.30
                             5117.76  5263.03

 Zero-point correction=                           0.295369 (Hartree/Particle)
 Thermal correction to Energy=                    0.314152
 Thermal correction to Enthalpy=                  0.315096
 Thermal correction to Gibbs Free Energy=         0.245989
 Sum of electronic and zero-point Energies=           -861.994560
 Sum of electronic and thermal Energies=              -861.975777
 Sum of electronic and thermal Enthalpies=            -861.974833
 Sum of electronic and thermal Free Energies=         -862.043939

                     E (Thermal)             CV                S
                      KCal/Mol        Cal/Mol-Kelvin    Cal/Mol-Kelvin
 Total                  197.133             70.247            145.447
 Electronic               0.000              0.000              0.000
 Translational            0.889              2.981             42.556
 Rotational               0.889              2.981             33.821
 Vibrational            195.356             64.286             69.069
 Vibration     1          0.593              1.987              7.521
 Vibration     2          0.593              1.984              6.020
 Vibration     3          0.594              1.983              5.570
 Vibration     4          0.594              1.981              5.255
 Vibration     5          0.600              1.964              3.932
 Vibration     6          0.602              1.957              3.670
 Vibration     7          0.605              1.945              3.364
 Vibration     8          0.622              1.892              2.554
 Vibration     9          0.632              1.858              2.259
 Vibration    10          0.633              1.854              2.229
 Vibration    11          0.644              1.820              2.010
 Vibration    12          0.645              1.818              2.002
 Vibration    13          0.647              1.809              1.953
 Vibration    14          0.650              1.802              1.913
 Vibration    15          0.671              1.737              1.629
 Vibration    16          0.679              1.713              1.541
 Vibration    17          0.701              1.649              1.348
 Vibration    18          0.708              1.628              1.292
 Vibration    19          0.720              1.596              1.212
 Vibration    20          0.742              1.533              1.078
 Vibration    21          0.793              1.401              0.853
 Vibration    22          0.805              1.369              0.808
 Vibration    23          0.813              1.351              0.782
 Vibration    24          0.825              1.321              0.743
 Vibration    25          0.873              1.210              0.614
 Vibration    26          0.880              1.194              0.598
 Vibration    27          0.908              1.133              0.538
 Vibration    28          0.927              1.095              0.503
 Vibration    29          0.947              1.054              0.468

 Optimization completed.
    -- Stationary point found.
 Normal termination of Gaussian 16 at Mon Dec 14 13:55:39 2020.

 ----------------------------------------------------------------------
 # B3LYP/6-311++G(d,p) empiricaldispersion=gd3bj scf=xqc pop=npa geom=c
 heck
 ----------------------------------------------------------------------

 --------------------------------------
 CID_83008303_JID_9176_Energie_neutraal
 --------------------------------------
 Structure from the checkpoint file:  "JID_9176.chk"
 Charge =  0 Multiplicity = 1

 SCF Done:  E(RB3LYP) =  -862.530799087     A.U. after   15 cycles
 Normal termination of Gaussian 16 at Mon Dec 14 14:03:16 2020.

 ----------------------------------------------------------------------
 # B3LYP/6-311++G(d,p) empiricaldispersion=gd3bj scf=xqc pop=npa geom=c
 heck
 ----------------------------------------------------------------------

 ------------------------------------
 CID_83008303_JID_9176_Energie_kation
 ------------------------------------
 Structure from the checkpoint file:  "JID_9176.chk"
 Charge =  1 Multiplicity = 2

 SCF Done:  E(UB3LYP) =  -862.266156122     A.U. after   29 cycles
 Normal termination of Gaussian 16 at Mon Dec 14 14:24:10 2020.
 Gaussian 16:  ES64L-G16RevA.03 25-Dec-2016

 ----------------------------------------------------------------------
 # B3LYP/6-311++G(d,p) empiricaldispersion=gd3bj scf=xqc pop=npa geom=c
 heck
 ----------------------------------------------------------------------

 -----------------------------------
 CID_83008303_JID_9176_Energie_anion
 -----------------------------------
 Structure from the checkpoint file:  "JID_9176.chk"
 Charge = -1 Multiplicity = 2

                         Standard orientation:
 ---------------------------------------------------------------------
 Center     Atomic      Atomic             Coordinates (Angstroms)
 Number     Number       Type             X           Y           Z
 ---------------------------------------------------------------------
      1          6           0        5.930573   -0.383100   -0.543784
      2          6           0        4.542485   -0.225891    0.028572
      3          6           0        3.422706   -0.283149   -0.801784
      4          6           0        2.135432   -0.169515   -0.269022
      5          6           0        1.944122    0.008291    1.101644
      6          6           0        3.067188    0.069910    1.929317
      7          6           0        4.352545   -0.042990    1.406318
      8          8           0        1.103414   -0.231994   -1.185941
      9          6           0       -0.196192   -0.040122   -0.724897
     10          6           0       -0.982881   -1.134456   -0.378932
     11          6           0       -2.290268   -0.959821    0.057670
     12          6           0       -2.813838    0.347884    0.144876
     13          6           0       -2.025454    1.440051   -0.218968
     14          6           0       -0.701933    1.264268   -0.658153
     15          7           0        0.072861    2.349451   -1.070240
     16          8           0       -4.099905    0.445305    0.594345
     17          6           0       -4.667565    1.738164    0.706340
     18          8           0       -3.026461   -2.053711    0.450163
     19          6           0       -4.087125   -2.404812   -0.438567
     20          1           0        6.294201   -1.411394   -0.419100
     21          1           0        5.951188   -0.155615   -1.614149
     22          1           0        6.646425    0.276230   -0.041019
     23          1           0        3.527951   -0.419359   -1.874151
     24          1           0        0.943545    0.092005    1.508750
     25          1           0        2.928997    0.210058    2.998033
     26          1           0        5.215147    0.009613    2.065331
     27          1           0       -0.569790   -2.135604   -0.433930
     28          1           0       -2.424747    2.446875   -0.176447
     29          1           0        1.062300    2.144813   -1.130503
     30          1           0       -0.102400    3.208332   -0.564291
     31          1           0       -4.104217    2.364075    1.410944
     32          1           0       -4.713576    2.244769   -0.266902
     33          1           0       -5.679927    1.588857    1.085380
     34          1           0       -4.834702   -1.607286   -0.501294
     35          1           0       -3.698660   -2.622248   -1.442736
     36          1           0       -4.546917   -3.305345   -0.024558
 ---------------------------------------------------------------------

 SCF Done:  E(UB3LYP) =  -862.520123435     A.U. after   33 cycles
 SCF Done:  E(UB3LYP) =  -862.520123435     a.u. after    1 cycles

 The electronic state is 2-A.
 Alpha  occ. eigenvalues --  -19.07483 -19.06616 -19.05147 -14.22512 -10.15218
 Alpha  occ. eigenvalues --  -10.14658 -10.13297 -10.13137 -10.13106 -10.12941
 Alpha  occ. eigenvalues --  -10.12662 -10.10289 -10.09328 -10.08730 -10.08661
 Alpha  occ. eigenvalues --  -10.08550 -10.08545 -10.08302 -10.08111  -0.99277
 Alpha  occ. eigenvalues --   -0.98661  -0.96128  -0.82901  -0.77568  -0.75180
 Alpha  occ. eigenvalues --   -0.69169  -0.67948  -0.65827  -0.65003  -0.61692
 Alpha  occ. eigenvalues --   -0.60703  -0.59009  -0.53746  -0.52795  -0.52316
 Alpha  occ. eigenvalues --   -0.48745  -0.45431  -0.44783  -0.44214  -0.42039
 Alpha  occ. eigenvalues --   -0.40446  -0.39871  -0.38899  -0.38464  -0.37000
 Alpha  occ. eigenvalues --   -0.36784  -0.35799  -0.35590  -0.34781  -0.34078
 Alpha  occ. eigenvalues --   -0.33754  -0.33006  -0.32216  -0.31177  -0.30040
 Alpha  occ. eigenvalues --   -0.29502  -0.28703  -0.27751  -0.27052  -0.25986
 Alpha  occ. eigenvalues --   -0.25102  -0.24809  -0.24009  -0.20505  -0.19155
 Alpha  occ. eigenvalues --   -0.16673  -0.14677  -0.14417  -0.11114   0.03860
 Alpha virt. eigenvalues --    0.05178   0.06303   0.06534   0.06896   0.07136
 Alpha virt. eigenvalues --    0.07527   0.07970   0.08329   0.08882   0.09246
 Alpha virt. eigenvalues --    0.09364   0.09840   0.09946   0.10135   0.10797

  Beta  occ. eigenvalues --  -19.07481 -19.06609 -19.05146 -14.22470 -10.15218
  Beta  occ. eigenvalues --  -10.14658 -10.13298 -10.13130 -10.13102 -10.12889
  Beta  occ. eigenvalues --  -10.12652 -10.10287 -10.09321 -10.08722 -10.08633
  Beta  occ. eigenvalues --  -10.08543 -10.08536 -10.08291 -10.08088  -0.99275
  Beta  occ. eigenvalues --   -0.98646  -0.96120  -0.82852  -0.77555  -0.75157
  Beta  occ. eigenvalues --   -0.69149  -0.67930  -0.65797  -0.64970  -0.61653
  Beta  occ. eigenvalues --   -0.60665  -0.58974  -0.53716  -0.52750  -0.52290
  Beta  occ. eigenvalues --   -0.48723  -0.45399  -0.44751  -0.44177  -0.42013
  Beta  occ. eigenvalues --   -0.40419  -0.39857  -0.38859  -0.38436  -0.36976
  Beta  occ. eigenvalues --   -0.36753  -0.35767  -0.35567  -0.34758  -0.34051
  Beta  occ. eigenvalues --   -0.33726  -0.32979  -0.32184  -0.31157  -0.30015
  Beta  occ. eigenvalues --   -0.29476  -0.28679  -0.27730  -0.27028  -0.25962
  Beta  occ. eigenvalues --   -0.25069  -0.24780  -0.23989  -0.20474  -0.19143
  Beta  occ. eigenvalues --   -0.16651  -0.14641  -0.14401  -0.11077
  Beta virt. eigenvalues --    0.05704   0.06156   0.06517   0.07004   0.07213
  Beta virt. eigenvalues --    0.07564   0.07822   0.08031   0.08635   0.09167
  Beta virt. eigenvalues --    0.09531   0.09696   0.09891   0.10133   0.10319

 Mulliken charges and spin densities:
               1          2
     1  C    2.095754  -2.557997
     2  C   -0.211631   1.002768
     3  C   -0.325796   0.179898
     4  C   -0.822102   0.151300
     5  C    0.577018  -0.818716
     6  C    0.357385  -0.255482
     7  C   -1.535655   0.850532
     8  O   -0.062743  -0.006836
     9  C   -0.099971   0.065765
    10  C    0.333771   0.368432
    11  C   -0.884694  -0.128781
    12  C   -0.051577  -0.283334
    13  C    0.272458  -0.100235
    14  C    0.675722  -0.456046
    15  N   -0.312894  -0.019187
    16  O   -0.245415   0.063295
    17  C    0.996589  -1.312026
    18  O   -0.171403   0.005520
    19  C   -0.158059  -0.162165
    20  H    0.071952   0.093776
    21  H   -0.231294   0.378093
    22  H   -0.202841   0.347281
    23  H    0.043836   0.106687
    24  H    0.285437  -0.105264
    25  H   -0.127008   0.314000
    26  H   -0.253050   0.387078
    27  H    0.144931   0.049596
    28  H   -0.294699   0.531923
    29  H    0.199635   0.072187
    30  H   -0.249888   0.495299
    31  H   -0.417110   0.581988
    32  H   -0.261359   0.425530
    33  H   -0.418468   0.595194
    34  H    0.110315   0.056218
    35  H    0.078744   0.039002
    36  H    0.094109   0.044705
 Sum of Mulliken charges =  -1.00000   1.00000

 Dipole moment (field-independent basis, Debye):
    X=              0.8332    Y=             -6.3538    Z=             -1.5775  Tot=              6.5995
 Quadrupole moment (field-independent basis, Debye-Ang):
   XX=           -224.9477   YY=           -162.2447   ZZ=           -144.3972
   XY=             16.1002   XZ=              7.2872   YZ=              0.4969

 Summary of Natural Population Analysis:

                                       Natural Population
                Natural  -----------------------------------------------
    Atom  No    Charge         Core      Valence    Rydberg      Total
 -----------------------------------------------------------------------
      C    1   -0.29088      0.99964     2.28623    0.00502     3.29088
      C    2   -0.00882      0.99953     1.99935    0.00994     3.00882
      C    3   -0.12500      0.99947     2.11591    0.00962     3.12500
      C    4    0.15821      0.99936     1.82833    0.01410     2.84179
      C    5   -0.14328      0.99951     2.13485    0.00892     3.14328
      C    6   -0.08539      0.99957     2.07660    0.00922     3.08539
      C    7   -0.11800      0.99951     2.10860    0.00989     3.11800
      O    8   -0.27371      0.99984     3.26439    0.00948     4.27371
      C    9    0.11145      0.99931     1.87563    0.01361     2.88855
      C   10   -0.11874      0.99947     2.11128    0.00800     3.11874
      C   11    0.11807      0.99934     1.86748    0.01512     2.88193
      C   12    0.15006      0.99936     1.83743    0.01316     2.84994
      C   13   -0.15407      0.99950     2.14563    0.00895     3.15407
      C   14    0.07511      0.99945     1.91370    0.01174     2.92489
      N   15   -0.39294      0.99971     2.88339    0.00984     3.89294
      O   16   -0.27334      0.99986     3.26315    0.01034     4.27334
      C   17   -0.10085      0.99960     2.09204    0.00921     3.10085
      O   18   -0.28677      0.99986     3.27710    0.00981     4.28677
      C   19   -0.09675      0.99960     2.08920    0.00796     3.09675
      H   20    0.10402      0.00000     0.39486    0.00112     0.39598
      H   21    0.10284      0.00000     0.39608    0.00108     0.39716
      H   22    0.10469      0.00000     0.39399    0.00132     0.39531
      H   23    0.10484      0.00000     0.39368    0.00148     0.39516
      H   24    0.11329      0.00000     0.38506    0.00165     0.38671
      H   25    0.10095      0.00000     0.39823    0.00082     0.39905
      H   26    0.10020      0.00000     0.39884    0.00096     0.39980
      H   27    0.11008      0.00000     0.38886    0.00107     0.38992
      H   28    0.11095      0.00000     0.38719    0.00186     0.38905
      H   29    0.19041      0.00000     0.30747    0.00211     0.30959
      H   30    0.19067      0.00000     0.30560    0.00373     0.30933
      H   31    0.08904      0.00000     0.40863    0.00233     0.41096
      H   32    0.08576      0.00000     0.41241    0.00183     0.41424
      H   33    0.09425      0.00000     0.40447    0.00128     0.40575
      H   34    0.08953      0.00000     0.40856    0.00191     0.41047
      H   35    0.07833      0.00000     0.42024    0.00143     0.42167
      H   36    0.08581      0.00000     0.41312    0.00107     0.41419
 =======================================================================
   * Total *    0.00000     18.99148    49.78756    0.22096    69.00000

 Normal termination of Gaussian 16 at Mon Dec 14 14:48:00 2020.
