 Gaussian 16, Revision A.03,

 -----------------------------------------------------------
 # opt freq B3LYP/6-31G(d) empiricaldispersion=gd3bj scf=xqc
 -----------------------------------------------------------

 -----------------------------
 CID_89923775_JID_231_neutraal
 -----------------------------
 Symbolic Z-matrix:
 Charge =  0 Multiplicity = 1

 SCF Done:  E(RB3LYP) =  -478.586103394     A.U. after   14 cycles
 SCF Done:  E(RB3LYP) =  -478.589179766     A.U. after   12 cycles
 SCF Done:  E(RB3LYP) =  -478.589369072     A.U. after   10 cycles
 SCF Done:  E(RB3LYP) =  -478.589417917     A.U. after   10 cycles
 SCF Done:  E(RB3LYP) =  -478.589460587     A.U. after   10 cycles
 SCF Done:  E(RB3LYP) =  -478.589557272     A.U. after   11 cycles
 SCF Done:  E(RB3LYP) =  -478.589659009     A.U. after   12 cycles
 SCF Done:  E(RB3LYP) =  -478.589684684     A.U. after   11 cycles
 SCF Done:  E(RB3LYP) =  -478.589857748     A.U. after   11 cycles
 SCF Done:  E(RB3LYP) =  -478.590063315     A.U. after   12 cycles
 SCF Done:  E(RB3LYP) =  -478.591615797     A.U. after    8 cycles
 SCF Done:  E(RB3LYP) =  -478.591616171     A.U. after    8 cycles
 SCF Done:  E(RB3LYP) =  -478.591616265     A.U. after    7 cycles
 SCF Done:  E(RB3LYP) =  -478.591616308     A.U. after    7 cycles
 SCF Done:  E(RB3LYP) =  -478.591616403     A.U. after    7 cycles
 SCF Done:  E(RB3LYP) =  -478.591616525     A.U. after    8 cycles
 Optimization completed.
    -- Stationary point found.
 Normal termination of Gaussian 16 at Tue Dec  8 10:34:17 2020.

 --------------------------------------------------------------------
 #N Geom=AllCheck Guess=TCheck SCRF=Check GenChk RB3LYP/6-31G(d) Freq
 --------------------------------------------------------------------

 Structure from the checkpoint file:  "JID_231.chk"
 -----------------------------
 CID_89923775_JID_231_neutraal
 -----------------------------
 Charge =  0 Multiplicity = 1

 SCF Done:  E(RB3LYP) =  -478.591616525     A.U. after    1 cycles

  Exact polarizability:  97.495  -1.534  82.244   0.674  -0.039  61.536
 Approx polarizability: 129.096  -9.083 119.538   6.378  -0.945  95.851

                      1                      2                      3
                      A                      A                      A
 Frequencies --     43.8935                58.6156               191.5030
 Red. masses --      5.7725                 2.7991                 6.5383
 Frc consts  --      0.0066                 0.0057                 0.1413
 IR Inten    --      3.2369                 2.1006                 1.0674

                      4                      5                      6
                      A                      A                      A
 Frequencies --    225.1513               278.9326               326.4961
 Red. masses --      3.8125                 2.3923                 2.2406
 Frc consts  --      0.1139                 0.1097                 0.1407
 IR Inten    --     12.4750                 4.0453                14.7109

                      7                      8                      9
                      A                      A                      A
 Frequencies --    381.1596               400.2179               513.7176
 Red. masses --      2.3476                 1.8782                 4.2188
 Frc consts  --      0.2009                 0.1773                 0.6560
 IR Inten    --      7.2153                 0.9114                 2.9391

                     10                     11                     12
                      A                      A                      A
 Frequencies --    582.9823               682.6552               722.4790
 Red. masses --      4.5101                 4.6177                 2.8353
 Frc consts  --      0.9031                 1.2679                 0.8720
 IR Inten    --      1.5755                18.3126                 0.0644

                     13                     14                     15
                      A                      A                      A
 Frequencies --    749.2102               813.9155               876.2105
 Red. masses --      4.7535                 3.3060                 2.3726
 Frc consts  --      1.5721                 1.2904                 1.0732
 IR Inten    --      0.7394                 3.9784                 0.2357

                     16                     17                     18
                      A                      A                      A
 Frequencies --    911.6625               937.9106               963.5530
 Red. masses --      3.8079                 2.0379                 3.1690
 Frc consts  --      1.8647                 1.0562                 1.7335
 IR Inten    --      2.5266                12.7065                16.3041

                     19                     20                     21
                      A                      A                      A
 Frequencies --    988.1568               996.1949              1019.6520
 Red. masses --      1.7948                 1.7598                 1.9926
 Frc consts  --      1.0326                 1.0290                 1.2206
 IR Inten    --      6.7366                27.1443                13.6069

                     22                     23                     24
                      A                      A                      A
 Frequencies --   1021.0351              1045.5020              1116.4475
 Red. masses --      1.6454                 2.1084                 2.8195
 Frc consts  --      1.0106                 1.3579                 2.0706
 IR Inten    --      2.1684                 3.2755                23.6769

                     25                     26                     27
                      A                      A                      A
 Frequencies --   1132.4021              1155.2890              1182.5498
 Red. masses --      2.6410                 2.2180                 1.6395
 Frc consts  --      1.9954                 1.7441                 1.3509
 IR Inten    --     39.0530                12.8649                62.1892

                     28                     29                     30
                      A                      A                      A
 Frequencies --   1214.5995              1238.2123              1250.4910
 Red. masses --      1.2868                 1.6152                 1.2991
 Frc consts  --      1.1185                 1.4590                 1.1969
 IR Inten    --      3.4121                11.3257                 1.4413

                     31                     32                     33
                      A                      A                      A
 Frequencies --   1266.4010              1299.7559              1307.7200
 Red. masses --      1.9125                 1.2353                 1.4366
 Frc consts  --      1.8071                 1.2295                 1.4475
 IR Inten    --     40.1507                 2.5775                 7.3238

                     34                     35                     36
                      A                      A                      A
 Frequencies --   1333.8917              1346.4161              1366.2711
 Red. masses --      1.2875                 1.3506                 1.2677
 Frc consts  --      1.3497                 1.4425                 1.3943
 IR Inten    --      0.7891                 2.2578                 1.1408

                     37                     38                     39
                      A                      A                      A
 Frequencies --   1384.4382              1392.9970              1422.9765
 Red. masses --      1.3603                 1.4001                 1.3502
 Frc consts  --      1.5362                 1.6006                 1.6108
 IR Inten    --     26.9817                 7.0441                14.8806

                     40                     41                     42
                      A                      A                      A
 Frequencies --   1437.2229              1472.2029              1526.5818
 Red. masses --      1.2943                 3.3384                 1.0808
 Frc consts  --      1.5752                 4.2631                 1.4840
 IR Inten    --     40.8543               106.5505                 1.8209

                     43                     44                     45
                      A                      A                      A
 Frequencies --   1533.1165              1537.8524              1546.5524
 Red. masses --      1.0846                 1.1003                 1.1031
 Frc consts  --      1.5020                 1.5332                 1.5546
 IR Inten    --      0.3262                 9.1671                 1.5608

                     46                     47                     48
                      A                      A                      A
 Frequencies --   1798.2355              2958.9909              2995.3846
 Red. masses --      8.3796                 1.0847                 1.0713
 Frc consts  --     15.9649                 5.5956                 5.6631
 IR Inten    --    456.8931                95.9768                36.7771

                     49                     50                     51
                      A                      A                      A
 Frequencies --   3001.9597              3030.5015              3040.3476
 Red. masses --      1.0724                 1.0690                 1.0719
 Frc consts  --      5.6938                 5.7845                 5.8378
 IR Inten    --    111.8298                35.7462                31.6851

                     52                     53                     54
                      A                      A                      A
 Frequencies --   3094.8922              3106.4560              3113.7713
 Red. masses --      1.0871                 1.0888                 1.0931
 Frc consts  --      6.1351                 6.1906                 6.2442
 IR Inten    --      5.9364                29.9476                30.7199

                     55                     56                     57
                      A                      A                      A
 Frequencies --   3118.2160              3118.8700              3152.8790
 Red. masses --      1.0941                 1.0953                 1.0941
 Frc consts  --      6.2677                 6.2772                 6.4081
 IR Inten    --      2.7541                57.2730                 5.7004

 - Thermochemistry -
 -------------------
 Temperature   298.150 Kelvin.  Pressure   1.00000 Atm.
 Atom     1 has atomic number  6 and mass  12.00000

 Molecular mass:   141.07898 amu.
 Principal axes and moments of inertia in atomic units:
                           1         2         3
     Eigenvalues --   527.770632076.134242371.36027
           X            0.99993   0.00781  -0.00840
           Y           -0.00782   0.99997  -0.00001
           Z            0.00840   0.00008   0.99996
 This molecule is an asymmetric top.
 Rotational symmetry number  1.
 Warning -- assumption of classical behavior for rotation
           may cause significant error
 Rotational temperatures (Kelvin)      0.16411     0.04172     0.03652
 Rotational constants (GHZ):           3.41956     0.86928     0.76106
 Zero-point vibrational energy     476865.6 (Joules/Mol)
                                  113.97361 (Kcal/Mol)
 Warning -- explicit consideration of  10 degrees of freedom as
           vibrations may cause significant error
 Vibrational temperatures:     63.15    84.33   275.53   323.94   401.32
          (Kelvin)            469.76   548.40   575.82   739.13   838.78
                              982.19  1039.49  1077.95  1171.04  1260.67
                             1311.68  1349.44  1386.34  1421.74  1433.30
                             1467.05  1469.04  1504.24  1606.32  1629.27
                             1662.20  1701.43  1747.54  1781.51  1799.18
                             1822.07  1870.06  1881.52  1919.17  1937.19
                             1965.76  1991.90  2004.21  2047.35  2067.84
                             2118.17  2196.41  2205.81  2212.63  2225.14
                             2587.26  4257.33  4309.69  4319.15  4360.22
                             4374.38  4452.86  4469.50  4480.02  4486.42
                             4487.36  4536.29

 Zero-point correction=                           0.181629 (Hartree/Particle)
 Thermal correction to Energy=                    0.190088
 Thermal correction to Enthalpy=                  0.191032
 Thermal correction to Gibbs Free Energy=         0.147167
 Sum of electronic and zero-point Energies=           -478.409988
 Sum of electronic and thermal Energies=              -478.401528
 Sum of electronic and thermal Enthalpies=            -478.400584
 Sum of electronic and thermal Free Energies=         -478.444450

                     E (Thermal)             CV                S
                      KCal/Mol        Cal/Mol-Kelvin    Cal/Mol-Kelvin
 Total                  119.282             32.031             92.322
 Electronic               0.000              0.000              0.000
 Translational            0.889              2.981             40.744
 Rotational               0.889              2.981             29.342
 Vibrational            117.505             26.069             22.236
 Vibration     1          0.595              1.980              5.075
 Vibration     2          0.596              1.974              4.503
 Vibration     3          0.634              1.852              2.213
 Vibration     4          0.650              1.803              1.917
 Vibration     5          0.679              1.713              1.540
 Vibration     6          0.710              1.623              1.277
 Vibration     7          0.751              1.510              1.035
 Vibration     8          0.766              1.470              0.962
 Vibration     9          0.869              1.220              0.625
 Vibration    10          0.940              1.068              0.480

 Optimization completed.
    -- Stationary point found.
 Normal termination of Gaussian 16 at Tue Dec  8 10:39:22 2020.

 ----------------------------------------------------------------------
 # B3LYP/6-311++G(d,p) empiricaldispersion=gd3bj scf=xqc pop=npa geom=c
 heck
 ----------------------------------------------------------------------

 -------------------------------------
 CID_89923775_JID_231_Energie_neutraal
 -------------------------------------
 Structure from the checkpoint file:  "JID_231.chk"
 Charge =  0 Multiplicity = 1

 SCF Done:  E(RB3LYP) =  -478.729670596     A.U. after   13 cycles
 Normal termination of Gaussian 16 at Tue Dec  8 10:41:42 2020.

 ----------------------------------------------------------------------
 # B3LYP/6-311++G(d,p) empiricaldispersion=gd3bj scf=xqc pop=npa geom=c
 heck
 ----------------------------------------------------------------------

 -----------------------------------
 CID_89923775_JID_231_Energie_kation
 -----------------------------------
 Structure from the checkpoint file:  "JID_231.chk"
 Charge =  1 Multiplicity = 2

 SCF Done:  E(UB3LYP) =  -478.403056828     A.U. after   23 cycles
 Normal termination of Gaussian 16 at Tue Dec  8 10:46:09 2020.
 Gaussian 16:  ES64L-G16RevA.03 25-Dec-2016

 ----------------------------------------------------------------------
 # B3LYP/6-311++G(d,p) empiricaldispersion=gd3bj scf=xqc pop=npa geom=c
 heck
 ----------------------------------------------------------------------

 ----------------------------------
 CID_89923775_JID_231_Energie_anion
 ----------------------------------
 Structure from the checkpoint file:  "JID_231.chk"
 Charge = -1 Multiplicity = 2

                         Standard orientation:
 ---------------------------------------------------------------------
 Center     Atomic      Atomic             Coordinates (Angstroms)
 Number     Number       Type             X           Y           Z
 ---------------------------------------------------------------------
      1          6           0        0.332985    1.321331   -0.256251
      2          6           0       -0.783183    0.779723    0.667975
      3          6           0       -2.201739    0.980198    0.112055
      4          8           0       -2.439608   -0.155175   -0.712481
      5          6           0       -1.938452   -1.260765    0.033675
      6          6           0       -0.608027   -0.776823    0.636994
      7          6           0        0.629185   -1.033045   -0.257131
      8          7           0        1.314660    0.250715   -0.307768
      9          6           0        2.639841    0.388244   -0.033348
     10          8           0        3.432215   -0.531211    0.094230
     11          1           0       -0.072672    1.508573   -1.260216
     12          1           0        0.791595    2.246403    0.104817
     13          1           0       -0.675462    1.182972    1.678306
     14          1           0       -2.313680    1.873981   -0.508461
     15          1           0       -2.939002    1.024452    0.930122
     16          1           0       -2.649172   -1.538907    0.828524
     17          1           0       -1.831913   -2.105778   -0.652091
     18          1           0       -0.445772   -1.185084    1.637782
     19          1           0        0.316814   -1.330128   -1.267296
     20          1           0        1.316953   -1.786420    0.129735
     21          1           0        2.935174    1.452829    0.055349
 ---------------------------------------------------------------------

 SCF Done:  E(UB3LYP) =  -478.717612395     A.U. after   30 cycles

 The electronic state is 2-A.
 Alpha  occ. eigenvalues --  -19.02396 -18.99242 -14.24470 -10.16782 -10.11393
 Alpha  occ. eigenvalues --  -10.11011 -10.10662 -10.10482 -10.08007 -10.07756
 Alpha  occ. eigenvalues --   -0.94429  -0.93951  -0.85280  -0.69915  -0.66421
 Alpha  occ. eigenvalues --   -0.60811  -0.58422  -0.49653  -0.48037  -0.46451
 Alpha  occ. eigenvalues --   -0.42139  -0.40803  -0.38829  -0.36616  -0.34868
 Alpha  occ. eigenvalues --   -0.34512  -0.32743  -0.30347  -0.29597  -0.28417
 Alpha  occ. eigenvalues --   -0.27889  -0.24354  -0.24110  -0.23328  -0.22376
 Alpha  occ. eigenvalues --   -0.16893  -0.16239  -0.14719   0.04639
 Alpha virt. eigenvalues --    0.07241   0.08074   0.08474   0.09978   0.09998
 Alpha virt. eigenvalues --    0.10520   0.11138   0.11453   0.12504   0.13517
 Alpha virt. eigenvalues --    0.13846   0.14398   0.15926   0.16357   0.17182

  Beta  occ. eigenvalues --  -19.02387 -18.99235 -14.24468 -10.16771 -10.11364
  Beta  occ. eigenvalues --  -10.10976 -10.10630 -10.10471 -10.07990 -10.07732
  Beta  occ. eigenvalues --   -0.94409  -0.93940  -0.85264  -0.69870  -0.66372
  Beta  occ. eigenvalues --   -0.60757  -0.58380  -0.49568  -0.47982  -0.46407
  Beta  occ. eigenvalues --   -0.42071  -0.40740  -0.38792  -0.36581  -0.34825
  Beta  occ. eigenvalues --   -0.34457  -0.32711  -0.30304  -0.29563  -0.28382
  Beta  occ. eigenvalues --   -0.27869  -0.24313  -0.24064  -0.23262  -0.22336
  Beta  occ. eigenvalues --   -0.16849  -0.16204  -0.14692
  Beta virt. eigenvalues --    0.07409   0.08406   0.08707   0.09276   0.10546
  Beta virt. eigenvalues --    0.10593   0.11295   0.11526   0.11907   0.12905
  Beta virt. eigenvalues --    0.14168   0.14238   0.14626   0.16059   0.16586

 Mulliken charges and spin densities:
               1          2
     1  C    1.515213  -2.199590
     2  C   -1.622985   2.007212
     3  C    1.494868  -2.049614
     4  O   -0.169020   0.045301
     5  C    1.210516  -1.791270
     6  C   -0.257806   0.609593
     7  C    0.040938  -0.682094
     8  N    0.031850   0.102095
     9  C    0.387371  -0.230457
    10  O   -0.393063  -0.008248
    11  H    0.067103   0.127560
    12  H   -0.604531   0.784800
    13  H   -0.908436   1.157428
    14  H   -0.628071   0.793973
    15  H   -0.233742   0.391429
    16  H   -0.399064   0.550588
    17  H   -0.168402   0.321096
    18  H   -0.489787   0.733145
    19  H    0.073850   0.110306
    20  H    0.194143  -0.008529
    21  H   -0.140945   0.235276
 Sum of Mulliken charges =  -1.00000   1.00000

 Dipole moment (field-independent basis, Debye):
    X=              1.6897    Y=             -2.6714    Z=             -4.5038  Tot=              5.5023
 Quadrupole moment (field-independent basis, Debye-Ang):
   XX=           -120.2641   YY=           -101.9973   ZZ=            -94.5923
   XY=              3.3897   XZ=              2.7382   YZ=             -2.3215

 Summary of Natural Population Analysis:

                                       Natural Population
                Natural  -----------------------------------------------
    Atom  No    Charge         Core      Valence    Rydberg      Total
 -----------------------------------------------------------------------
      C    1   -0.08128      0.99960     2.06910    0.01258     3.08128
      C    2   -0.12579      0.99959     2.11298    0.01322     3.12579
      C    3   -0.01021      0.99957     1.99635    0.01429     3.01021
      O    4   -0.30025      0.99990     3.29131    0.00905     4.30025
      C    5   -0.00950      0.99957     1.99639    0.01354     3.00950
      C    6   -0.12590      0.99959     2.11555    0.01075     3.12590
      C    7   -0.08622      0.99960     2.07520    0.01142     3.08622
      N    8   -0.24956      0.99967     2.73984    0.01005     3.74956
      C    9    0.27458      0.99969     1.70330    0.02243     2.72542
      O   10   -0.32217      0.99989     3.31615    0.00614     4.32217
      H   11    0.09262      0.00000     0.40571    0.00168     0.40738
      H   12    0.10765      0.00000     0.38893    0.00342     0.39235
      H   13    0.11340      0.00000     0.37904    0.00756     0.38660
      H   14    0.09306      0.00000     0.40504    0.00190     0.40694
      H   15    0.08534      0.00000     0.41179    0.00287     0.41466
      H   16    0.08470      0.00000     0.41303    0.00227     0.41530
      H   17    0.08947      0.00000     0.40925    0.00128     0.41053
      H   18    0.10986      0.00000     0.38788    0.00227     0.39014
      H   19    0.09303      0.00000     0.40572    0.00125     0.40697
      H   20    0.11299      0.00000     0.38592    0.00109     0.38701
      H   21    0.05419      0.00000     0.44390    0.00191     0.44581
 =======================================================================
   * Total *    0.00000      9.99667    27.85237    0.15096    38.00000

 Normal termination of Gaussian 16 at Tue Dec  8 10:55:40 2020.
