 Gaussian 16, Revision A.03,

 -----------------------------------------------------------
 # opt freq B3LYP/6-31G(d) empiricaldispersion=gd3bj scf=xqc
 -----------------------------------------------------------

 -------------------------------
 CID_149959533_JID_6408_neutraal
 -------------------------------
 Symbolic Z-matrix:
 Charge =  0 Multiplicity = 1

 SCF Done:  E(RB3LYP) =  -725.464292918     A.U. after   16 cycles
 SCF Done:  E(RB3LYP) =  -725.468521344     A.U. after   13 cycles
 SCF Done:  E(RB3LYP) =  -725.470190748     A.U. after   13 cycles
 SCF Done:  E(RB3LYP) =  -725.470726748     A.U. after   13 cycles
 SCF Done:  E(RB3LYP) =  -725.470864504     A.U. after   12 cycles
 SCF Done:  E(RB3LYP) =  -725.470999470     A.U. after   11 cycles
 SCF Done:  E(RB3LYP) =  -725.470995995     A.U. after   12 cycles
 SCF Done:  E(RB3LYP) =  -725.471041285     A.U. after   10 cycles
 SCF Done:  E(RB3LYP) =  -725.471050244     A.U. after    9 cycles
 SCF Done:  E(RB3LYP) =  -725.471051723     A.U. after    9 cycles
 SCF Done:  E(RB3LYP) =  -725.471052434     A.U. after    8 cycles
 SCF Done:  E(RB3LYP) =  -725.471052526     A.U. after    7 cycles
 Optimization completed.
    -- Stationary point found.
 Normal termination of Gaussian 16 at Thu Dec 10 22:39:27 2020.

 --------------------------------------------------------------------
 #N Geom=AllCheck Guess=TCheck SCRF=Check GenChk RB3LYP/6-31G(d) Freq
 --------------------------------------------------------------------

 Structure from the checkpoint file:  "JID_6408.chk"
 -------------------------------
 CID_149959533_JID_6408_neutraal
 -------------------------------
 Charge =  0 Multiplicity = 1

 SCF Done:  E(RB3LYP) =  -725.471052526     A.U. after    1 cycles

  Exact polarizability: 172.503   1.863 122.942 -15.091   0.948 124.195
 Approx polarizability: 232.882  10.136 193.596 -44.044   2.346 202.380

                      1                      2                      3
                      A                      A                      A
 Frequencies --     25.7183                38.1127                41.2702
 Red. masses --      4.9591                 4.6096                 5.7602
 Frc consts  --      0.0019                 0.0039                 0.0058
 IR Inten    --      0.3563                 0.3956                 0.0208

                      4                      5                      6
                      A                      A                      A
 Frequencies --     64.9796                71.1042                84.2023
 Red. masses --      3.2764                 4.4674                 4.8305
 Frc consts  --      0.0082                 0.0133                 0.0202
 IR Inten    --      0.4024                 0.5821                 3.0150

                      7                      8                      9
                      A                      A                      A
 Frequencies --    105.8248               138.6399               160.2600
 Red. masses --      2.6011                 3.7109                 2.5759
 Frc consts  --      0.0172                 0.0420                 0.0390
 IR Inten    --      2.0732                 1.3145                 0.6186

                     10                     11                     12
                      A                      A                      A
 Frequencies --    172.0936               208.6914               240.7755
 Red. masses --      2.3261                 4.5143                 1.5127
 Frc consts  --      0.0406                 0.1158                 0.0517
 IR Inten    --      2.6246                 2.2353                 0.4062

                     13                     14                     15
                      A                      A                      A
 Frequencies --    255.7495               278.2451               308.1735
 Red. masses --      1.3594                 1.6257                 2.3837
 Frc consts  --      0.0524                 0.0742                 0.1334
 IR Inten    --      0.8148                 1.1394                 3.0816

                     16                     17                     18
                      A                      A                      A
 Frequencies --    325.2597               356.6169               385.1862
 Red. masses --      2.8191                 2.8574                 1.8564
 Frc consts  --      0.1757                 0.2141                 0.1623
 IR Inten    --      3.2304                 4.0808                 1.0499

                     19                     20                     21
                      A                      A                      A
 Frequencies --    387.2896               448.9320               472.7787
 Red. masses --      2.5684                 2.7560                 2.6331
 Frc consts  --      0.2270                 0.3273                 0.3468
 IR Inten    --      1.3909                 3.7520                 1.0840

                     22                     23                     24
                      A                      A                      A
 Frequencies --    484.1872               526.4193               580.5698
 Red. masses --      3.1651                 3.0592                 3.7261
 Frc consts  --      0.4372                 0.4995                 0.7400
 IR Inten    --      4.9396                 2.6848                 7.6103

                     25                     26                     27
                      A                      A                      A
 Frequencies --    581.6836               664.9613               696.8335
 Red. masses --      7.8795                 3.7355                 4.3928
 Frc consts  --      1.5708                 0.9732                 1.2568
 IR Inten    --     13.0463                 7.6643                 4.1918

                     28                     29                     30
                      A                      A                      A
 Frequencies --    709.8300               744.6004               774.1529
 Red. masses --      4.0659                 1.8991                 2.5355
 Frc consts  --      1.2070                 0.6204                 0.8953
 IR Inten    --     12.5008                 3.9987                10.8628

                     31                     32                     33
                      A                      A                      A
 Frequencies --    793.5709               832.2254               878.3653
 Red. masses --      2.2774                 2.4595                 2.1149
 Frc consts  --      0.8450                 1.0036                 0.9614
 IR Inten    --      1.7942                 4.2577                 2.7640

                     34                     35                     36
                      A                      A                      A
 Frequencies --    886.4180               903.9279               919.0298
 Red. masses --      2.3326                 1.7070                 1.5801
 Frc consts  --      1.0799                 0.8218                 0.7863
 IR Inten    --      4.5715                 4.1724                 2.1350

                     37                     38                     39
                      A                      A                      A
 Frequencies --    934.6379               949.8435               993.7134
 Red. masses --      2.0195                 2.1084                 1.8774
 Frc consts  --      1.0394                 1.1208                 1.0923
 IR Inten    --      1.1639                13.4154                 1.5380

                     40                     41                     42
                      A                      A                      A
 Frequencies --   1008.1079              1037.3283              1048.3311
 Red. masses --      1.9005                 1.7377                 2.2701
 Frc consts  --      1.1380                 1.1017                 1.4699
 IR Inten    --      1.4808                 1.3771                 1.2920

                     43                     44                     45
                      A                      A                      A
 Frequencies --   1051.3614              1090.1805              1118.9723
 Red. masses --      2.8593                 1.9686                 1.4808
 Frc consts  --      1.8622                 1.3785                 1.0924
 IR Inten    --      3.5625                29.0782                 0.6160

                     46                     47                     48
                      A                      A                      A
 Frequencies --   1127.2037              1145.2889              1150.8527
 Red. masses --      1.8134                 1.7361                 2.1295
 Frc consts  --      1.3575                 1.3417                 1.6617
 IR Inten    --      2.7741                 5.4153                12.2480

                     49                     50                     51
                      A                      A                      A
 Frequencies --   1159.8860              1205.2344              1221.9427
 Red. masses --      1.9984                 1.2511                 1.7882
 Frc consts  --      1.5840                 1.0708                 1.5732
 IR Inten    --      6.7506                 2.0704                17.6152

                     52                     53                     54
                      A                      A                      A
 Frequencies --   1242.0542              1260.6928              1277.4107
 Red. masses --      1.4314                 1.1915                 1.4888
 Frc consts  --      1.3010                 1.1158                 1.4314
 IR Inten    --      7.7092                 1.6482                 2.9921

                     55                     56                     57
                      A                      A                      A
 Frequencies --   1296.4450              1300.7964              1316.2980
 Red. masses --      1.4323                 2.9982                 1.4264
 Frc consts  --      1.4183                 2.9890                 1.4561
 IR Inten    --     38.8476               133.5575                14.9876

                     58                     59                     60
                      A                      A                      A
 Frequencies --   1324.1889              1346.6043              1361.2557
 Red. masses --      1.8563                 1.5973                 1.6592
 Frc consts  --      1.9178                 1.7065                 1.8115
 IR Inten    --     51.7472                22.5218                 8.1477

                     61                     62                     63
                      A                      A                      A
 Frequencies --   1380.3292              1386.0441              1397.8270
 Red. masses --      1.3307                 1.4362                 1.4759
 Frc consts  --      1.4938                 1.6256                 1.6991
 IR Inten    --     13.6813                14.4256                57.0848

                     64                     65                     66
                      A                      A                      A
 Frequencies --   1401.9299              1414.5500              1421.1416
 Red. masses --      1.3245                 1.4592                 1.4406
 Frc consts  --      1.5338                 1.7203                 1.7142
 IR Inten    --      2.2181                15.9562                13.5989

                     67                     68                     69
                      A                      A                      A
 Frequencies --   1422.6638              1440.2314              1441.2343
 Red. masses --      1.3428                 1.2611                 1.2605
 Frc consts  --      1.6013                 1.5412                 1.5426
 IR Inten    --      5.7075                12.4582                12.0862

                     70                     71                     72
                      A                      A                      A
 Frequencies --   1467.0655              1501.7563              1504.4647
 Red. masses --      2.0147                 1.0915                 1.1127
 Frc consts  --      2.5549                 1.4504                 1.4839
 IR Inten    --     59.5838                 9.7889                11.0850

                     73                     74                     75
                      A                      A                      A
 Frequencies --   1513.8106              1516.8736              1521.6919
 Red. masses --      1.0936                 1.0898                 1.0546
 Frc consts  --      1.4766                 1.4773                 1.4388
 IR Inten    --      4.7496                 9.5207                 2.5380

                     76                     77                     78
                      A                      A                      A
 Frequencies --   1526.1459              1530.6545              1532.0313
 Red. masses --      1.0592                 1.0649                 1.0527
 Frc consts  --      1.4535                 1.4700                 1.4557
 IR Inten    --      1.1237                 4.5722                 5.7122

                     79                     80                     81
                      A                      A                      A
 Frequencies --   1542.9209              1565.4956              1804.7501
 Red. masses --      1.0664                 1.0987                11.1467
 Frc consts  --      1.4957                 1.5865                21.3910
 IR Inten    --      4.5280                10.4526               297.8964

                     82                     83                     84
                      A                      A                      A
 Frequencies --   2250.6041              3012.9218              3023.1086
 Red. masses --     13.8465                 1.0699                 1.0622
 Frc consts  --     41.3227                 5.7220                 5.7196
 IR Inten    --    512.2342                60.8781                23.1647

                     85                     86                     87
                      A                      A                      A
 Frequencies --   3041.2332              3043.2602              3050.1228
 Red. masses --      1.0667                 1.0675                 1.0439
 Frc consts  --      5.8130                 5.8248                 5.7218
 IR Inten    --     15.8471                15.3611                21.1290

                     88                     89                     90
                      A                      A                      A
 Frequencies --   3055.0885              3061.1262              3062.5813
 Red. masses --      1.0379                 1.0736                 1.0947
 Frc consts  --      5.7075                 5.9275                 6.0497
 IR Inten    --      8.3382                22.9858                33.1985

                     91                     92                     93
                      A                      A                      A
 Frequencies --   3071.0457              3075.4299              3078.2549
 Red. masses --      1.0616                 1.0921                 1.0923
 Frc consts  --      5.8992                 6.0856                 6.0983
 IR Inten    --     21.5161                 1.8059                65.8611

                     94                     95                     96
                      A                      A                      A
 Frequencies --   3080.1797              3102.1785              3110.2043
 Red. masses --      1.0877                 1.0865                 1.1005
 Frc consts  --      6.0801                 6.1602                 6.2720
 IR Inten    --     56.7800                 6.7430                29.3175

                     97                     98                     99
                      A                      A                      A
 Frequencies --   3111.2417              3125.8482              3127.5333
 Red. masses --      1.1016                 1.1010                 1.0982
 Frc consts  --      6.2826                 6.3381                 6.3290
 IR Inten    --      9.1924                17.6791                51.2523

                    100                    101                    102
                      A                      A                      A
 Frequencies --   3129.7487              3139.2486              3151.0374
 Red. masses --      1.0963                 1.1026                 1.0967
 Frc consts  --      6.3270                 6.4020                 6.4156
 IR Inten    --     11.0871                20.6177                34.9093

 - Thermochemistry -
 -------------------
 Temperature   298.150 Kelvin.  Pressure   1.00000 Atm.
 Atom     1 has atomic number  6 and mass  12.00000

 Molecular mass:   224.16371 amu.
 Principal axes and moments of inertia in atomic units:
                           1         2         3
     Eigenvalues --  1587.492347429.936737631.01187
           X            1.00000  -0.00077   0.00135
           Y            0.00089   0.99559  -0.09380
           Z           -0.00127   0.09381   0.99559
 This molecule is an asymmetric top.
 Rotational symmetry number  1.
 Warning -- assumption of classical behavior for rotation
           may cause significant error
 Rotational temperatures (Kelvin)      0.05456     0.01166     0.01135
 Rotational constants (GHZ):           1.13685     0.24290     0.23650
 Zero-point vibrational energy     829316.7 (Joules/Mol)
                                  198.21144 (Kcal/Mol)
 Warning -- explicit consideration of  25 degrees of freedom as
           vibrations may cause significant error
 Vibrational temperatures:     37.00    54.84    59.38    93.49   102.30
          (Kelvin)            121.15   152.26   199.47   230.58   247.60
                              300.26   346.42   367.97   400.33   443.39
                              467.98   513.09   554.20   557.22   645.91
                              680.22   696.64   757.40   835.31   836.91
                              956.73  1002.59  1021.29  1071.31  1113.83
                             1141.77  1197.39  1263.77  1275.36  1300.55
                             1322.28  1344.74  1366.61  1429.73  1450.44
                             1492.48  1508.31  1512.67  1568.53  1609.95
                             1621.79  1647.82  1655.82  1668.82  1734.06
                             1758.10  1787.04  1813.86  1837.91  1865.30
                             1871.56  1893.86  1905.21  1937.46  1958.54
                             1985.99  1994.21  2011.16  2017.06  2035.22
                             2044.71  2046.90  2072.17  2073.61  2110.78
                             2160.69  2164.59  2178.04  2182.44  2189.38
                             2195.78  2202.27  2204.25  2219.92  2252.40
                             2596.63  3238.12  4334.92  4349.58  4375.66
                             4378.57  4388.45  4395.59  4404.28  4406.37
                             4418.55  4424.86  4428.92  4431.69  4463.34
                             4474.89  4476.38  4497.40  4499.82  4503.01
                             4516.68  4533.64

 Zero-point correction=                           0.315870 (Hartree/Particle)
 Thermal correction to Energy=                    0.332886
 Thermal correction to Enthalpy=                  0.333831
 Thermal correction to Gibbs Free Energy=         0.269353
 Sum of electronic and zero-point Energies=           -725.155182
 Sum of electronic and thermal Energies=              -725.138166
 Sum of electronic and thermal Enthalpies=            -725.137222
 Sum of electronic and thermal Free Energies=         -725.201699

                     E (Thermal)             CV                S
                      KCal/Mol        Cal/Mol-Kelvin    Cal/Mol-Kelvin
 Total                  208.889             62.506            135.704
 Electronic               0.000              0.000              0.000
 Translational            0.889              2.981             42.124
 Rotational               0.889              2.981             32.865
 Vibrational            207.112             56.545             60.715
 Vibration     1          0.593              1.985              6.135
 Vibration     2          0.594              1.982              5.355
 Vibration     3          0.594              1.981              5.197
 Vibration     4          0.597              1.971              4.300
 Vibration     5          0.598              1.968              4.123
 Vibration     6          0.601              1.960              3.790
 Vibration     7          0.605              1.945              3.344
 Vibration     8          0.614              1.915              2.823
 Vibration     9          0.622              1.891              2.547
 Vibration    10          0.626              1.877              2.412
 Vibration    11          0.642              1.827              2.055
 Vibration    12          0.658              1.778              1.797
 Vibration    13          0.666              1.753              1.691
 Vibration    14          0.679              1.714              1.544
 Vibration    15          0.698              1.658              1.372
 Vibration    16          0.709              1.625              1.284
 Vibration    17          0.732              1.562              1.137
 Vibration    18          0.754              1.502              1.019
 Vibration    19          0.756              1.497              1.011
 Vibration    20          0.808              1.363              0.799
 Vibration    21          0.830              1.310              0.730
 Vibration    22          0.840              1.285              0.699
 Vibration    23          0.881              1.192              0.595
 Vibration    24          0.937              1.073              0.484
 Vibration    25          0.938              1.071              0.482

 Optimization completed.
    -- Stationary point found.
 Normal termination of Gaussian 16 at Thu Dec 10 22:52:25 2020.

 ----------------------------------------------------------------------
 # B3LYP/6-311++G(d,p) empiricaldispersion=gd3bj scf=xqc pop=npa geom=c
 heck
 ----------------------------------------------------------------------

 ---------------------------------------
 CID_149959533_JID_6408_Energie_neutraal
 ---------------------------------------
 Structure from the checkpoint file:  "JID_6408.chk"
 Charge =  0 Multiplicity = 1

 SCF Done:  E(RB3LYP) =  -725.673170900     A.U. after   15 cycles
 Normal termination of Gaussian 16 at Thu Dec 10 22:59:23 2020.

 ----------------------------------------------------------------------
 # B3LYP/6-311++G(d,p) empiricaldispersion=gd3bj scf=xqc pop=npa geom=c
 heck
 ----------------------------------------------------------------------

 -------------------------------------
 CID_149959533_JID_6408_Energie_kation
 -------------------------------------
 Structure from the checkpoint file:  "JID_6408.chk"
 Charge =  1 Multiplicity = 2

 SCF Done:  E(UB3LYP) =  -725.359119850     A.U. after   27 cycles
 Normal termination of Gaussian 16 at Thu Dec 10 23:15:23 2020.
 Gaussian 16:  ES64L-G16RevA.03 25-Dec-2016

 ----------------------------------------------------------------------
 # B3LYP/6-311++G(d,p) empiricaldispersion=gd3bj scf=xqc pop=npa geom=c
 heck
 ----------------------------------------------------------------------

 ------------------------------------
 CID_149959533_JID_6408_Energie_anion
 ------------------------------------
 Structure from the checkpoint file:  "JID_6408.chk"
 Charge = -1 Multiplicity = 2

                         Standard orientation:
 ---------------------------------------------------------------------
 Center     Atomic      Atomic             Coordinates (Angstroms)
 Number     Number       Type             X           Y           Z
 ---------------------------------------------------------------------
      1          6           0        3.306838   -1.352381    1.550911
      2          6           0        3.979116   -0.328195    0.629877
      3          6           0        3.705448   -0.497885   -0.876744
      4          6           0        2.355495   -0.005758   -1.435654
      5          6           0        2.057779    1.463259   -1.075875
      6          6           0        1.119801    1.389628    0.124669
      7          8           0        0.829404    2.283994    0.905181
      8          7           0        0.619067    0.113763    0.172455
      9          6           0        1.115263   -0.756281   -0.884109
     10          6           0       -0.376085   -0.266264    1.161404
     11          6           0       -1.789596    0.235127    0.835147
     12          6           0       -2.345985   -0.251222   -0.509216
     13          6           0       -2.505403   -1.770159   -0.602967
     14          7           0       -3.634288    0.436919   -0.820173
     15          7           0       -4.561601    0.202184   -0.039533
     16          7           0       -5.493907    0.061740    0.607677
     17          1           0        2.221755   -1.228597    1.579316
     18          1           0        3.673063   -1.243960    2.577737
     19          1           0        3.526694   -2.377358    1.227041
     20          1           0        3.708897    0.685539    0.951827
     21          1           0        5.064761   -0.403597    0.772397
     22          1           0        4.484957    0.047344   -1.425534
     23          1           0        3.832168   -1.556556   -1.145420
     24          1           0        2.393902   -0.137960   -2.521757
     25          1           0        1.528635    1.981621   -1.885248
     26          1           0        2.944806    2.055237   -0.836819
     27          1           0        0.359510   -0.901223   -1.669923
     28          1           0        1.368796   -1.744972   -0.485270
     29          1           0       -0.351098   -1.355595    1.266218
     30          1           0       -0.071069    0.169761    2.117851
     31          1           0       -2.464340   -0.079203    1.643560
     32          1           0       -1.769823    1.329114    0.833686
     33          1           0       -1.687235    0.095063   -1.309503
     34          1           0       -3.162112   -2.143021    0.192200
     35          1           0       -2.939436   -2.050537   -1.567144
     36          1           0       -1.538994   -2.274523   -0.504315
 ---------------------------------------------------------------------

 SCF Done:  E(UB3LYP) =  -725.668886660     A.U. after   33 cycles
 SCF Done:  E(UB3LYP) =  -725.668886660     a.u. after    1 cycles

 The electronic state is 2-A.
 Alpha  occ. eigenvalues --  -18.99409 -14.35861 -14.25979 -14.24784 -14.24558
 Alpha  occ. eigenvalues --  -10.17261 -10.12361 -10.12100 -10.11412 -10.08916
 Alpha  occ. eigenvalues --  -10.08241 -10.08222 -10.07755 -10.07607 -10.07394
 Alpha  occ. eigenvalues --  -10.06838  -1.02471  -0.94540  -0.86831  -0.85693
 Alpha  occ. eigenvalues --   -0.73671  -0.70899  -0.68021  -0.64058  -0.62724
 Alpha  occ. eigenvalues --   -0.59483  -0.57729  -0.53224  -0.52154  -0.47068
 Alpha  occ. eigenvalues --   -0.44676  -0.43111  -0.41738  -0.40520  -0.39966
 Alpha  occ. eigenvalues --   -0.39456  -0.36802  -0.36308  -0.35930  -0.34572
 Alpha  occ. eigenvalues --   -0.33940  -0.33058  -0.32778  -0.32502  -0.31909
 Alpha  occ. eigenvalues --   -0.31313  -0.30130  -0.29571  -0.28894  -0.28429
 Alpha  occ. eigenvalues --   -0.27020  -0.26389  -0.25851  -0.25355  -0.23752
 Alpha  occ. eigenvalues --   -0.23219  -0.22164  -0.19338  -0.16192  -0.15419
 Alpha  occ. eigenvalues --   -0.14556   0.03850
 Alpha virt. eigenvalues --    0.05546   0.06731   0.06780   0.07994   0.08528
 Alpha virt. eigenvalues --    0.08892   0.09595   0.09881   0.10294   0.10983
 Alpha virt. eigenvalues --    0.11229   0.11314   0.11510   0.12488   0.12655

  Beta  occ. eigenvalues --  -18.99408 -14.35663 -14.25719 -14.24782 -14.24595
  Beta  occ. eigenvalues --  -10.17260 -10.12298 -10.12096 -10.11381 -10.08899
  Beta  occ. eigenvalues --  -10.08240 -10.08207 -10.07737 -10.07595 -10.07369
  Beta  occ. eigenvalues --  -10.06818  -1.02090  -0.94536  -0.86651  -0.85678
  Beta  occ. eigenvalues --   -0.73631  -0.70831  -0.67979  -0.64020  -0.62682
  Beta  occ. eigenvalues --   -0.59435  -0.57647  -0.53127  -0.52105  -0.47014
  Beta  occ. eigenvalues --   -0.44616  -0.42865  -0.41640  -0.40214  -0.39823
  Beta  occ. eigenvalues --   -0.39347  -0.36556  -0.36235  -0.35775  -0.34389
  Beta  occ. eigenvalues --   -0.33741  -0.32832  -0.32694  -0.32447  -0.31863
  Beta  occ. eigenvalues --   -0.31281  -0.30105  -0.29545  -0.28852  -0.28394
  Beta  occ. eigenvalues --   -0.26984  -0.26319  -0.25810  -0.25327  -0.23710
  Beta  occ. eigenvalues --   -0.23174  -0.22125  -0.18850  -0.16181  -0.15391
  Beta  occ. eigenvalues --   -0.14492
  Beta virt. eigenvalues --    0.06155   0.07083   0.07250   0.07811   0.08326
  Beta virt. eigenvalues --    0.08754   0.09381   0.09882   0.10309   0.10501
  Beta virt. eigenvalues --    0.11222   0.11335   0.11527   0.11758   0.12669

 Mulliken charges and spin densities:
               1          2
     1  C    0.183312  -0.792270
     2  C   -0.972886   0.888853
     3  C    1.666597  -2.305867
     4  C   -0.616202   1.220699
     5  C   -0.022348  -0.617472
     6  C    0.012790  -0.138919
     7  O   -0.323611   0.012175
     8  N    0.220196   0.016962
     9  C    0.473331  -1.101030
    10  C   -0.127130  -0.012467
    11  C   -0.184405  -0.320457
    12  C   -0.659816   0.335317
    13  C    0.033336  -0.608360
    14  N   -0.213020   0.224361
    15  N    0.501607  -0.091343
    16  N   -0.247698   0.034455
    17  H    0.253068  -0.067548
    18  H   -0.064063   0.181767
    19  H   -0.131093   0.273100
    20  H    0.133306   0.020044
    21  H   -0.096143   0.272238
    22  H   -0.200850   0.363963
    23  H   -0.280440   0.423227
    24  H   -0.860334   1.118847
    25  H    0.054620   0.129328
    26  H    0.051330   0.155194
    27  H   -0.156202   0.312340
    28  H   -0.124988   0.270500
    29  H    0.072668   0.048971
    30  H    0.204556   0.018029
    31  H    0.149726  -0.003062
    32  H    0.178596   0.034065
    33  H    0.005581   0.326818
    34  H    0.134209   0.026319
    35  H   -0.110782   0.270441
    36  H    0.063182   0.080781
 Sum of Mulliken charges =  -1.00000   1.00000

 Dipole moment (field-independent basis, Debye):
    X=             -0.5404    Y=             -0.7347    Z=              4.1000  Tot=              4.2002
 Quadrupole moment (field-independent basis, Debye-Ang):
   XX=           -196.7891   YY=           -134.8461   ZZ=           -139.8524
   XY=             10.1622   XZ=              6.4362   YZ=             -6.4439

 Summary of Natural Population Analysis:

                                       Natural Population
                Natural  -----------------------------------------------
    Atom  No    Charge         Core      Valence    Rydberg      Total
 -----------------------------------------------------------------------
      C    1   -0.28521      0.99966     2.28062    0.00493     3.28521
      C    2   -0.19580      0.99963     2.18777    0.00840     3.19580
      C    3   -0.18476      0.99961     2.17527    0.00988     3.18476
      C    4   -0.11469      0.99960     2.10161    0.01347     3.11469
      C    5   -0.23082      0.99958     2.22213    0.00910     3.23082
      C    6    0.34929      0.99963     1.62704    0.02404     2.65071
      O    7   -0.32635      0.99987     3.32137    0.00511     4.32635
      N    8   -0.26333      0.99963     2.75304    0.01065     3.76333
      C    9   -0.07640      0.99960     2.06554    0.01126     3.07640
      C   10   -0.08486      0.99961     2.07530    0.00995     3.08486
      C   11   -0.20271      0.99960     2.19422    0.00889     3.20271
      C   12   -0.01615      0.99956     2.00392    0.01267     3.01615
      C   13   -0.29575      0.99964     2.28982    0.00629     3.29575
      N   14   -0.19257      0.99971     2.67897    0.01389     3.69257
      N   15    0.12676      0.99970     2.35743    0.01611     3.37324
      N   16   -0.03477      0.99982     2.52124    0.01371     3.53477
      H   17    0.09642      0.00000     0.40214    0.00144     0.40358
      H   18    0.09695      0.00000     0.40233    0.00072     0.40305
      H   19    0.09591      0.00000     0.40310    0.00099     0.40409
      H   20    0.09606      0.00000     0.40265    0.00129     0.40394
      H   21    0.09622      0.00000     0.40276    0.00102     0.40378
      H   22    0.10074      0.00000     0.39774    0.00152     0.39926
      H   23    0.09877      0.00000     0.39947    0.00176     0.40123
      H   24    0.10747      0.00000     0.38918    0.00335     0.39253
      H   25    0.11492      0.00000     0.38396    0.00112     0.38508
      H   26    0.10956      0.00000     0.38942    0.00102     0.39044
      H   27    0.09598      0.00000     0.40188    0.00214     0.40402
      H   28    0.09657      0.00000     0.40187    0.00156     0.40343
      H   29    0.09590      0.00000     0.40295    0.00115     0.40410
      H   30    0.10823      0.00000     0.39081    0.00096     0.39177
      H   31    0.09752      0.00000     0.40157    0.00091     0.40248
      H   32    0.11354      0.00000     0.38540    0.00106     0.38646
      H   33    0.10141      0.00000     0.39636    0.00224     0.39859
      H   34    0.09731      0.00000     0.40185    0.00083     0.40269
      H   35    0.10724      0.00000     0.39181    0.00095     0.39276
      H   36    0.10140      0.00000     0.39774    0.00086     0.39860
 =======================================================================
   * Total *   -0.00000     15.99445    44.80029    0.20526    61.00000

 Normal termination of Gaussian 16 at Thu Dec 10 23:33:04 2020.
