 Gaussian 16, Revision A.03,

 -----------------------------------------------------------
 # opt freq B3LYP/6-31G(d) empiricaldispersion=gd3bj scf=xqc
 -----------------------------------------------------------

 ------------------------------
 CID_61123616_JID_5161_neutraal
 ------------------------------
 Symbolic Z-matrix:
 Charge =  0 Multiplicity = 1

 SCF Done:  E(RB3LYP) =  -1050.13592044     A.U. after   15 cycles
 SCF Done:  E(RB3LYP) =  -1050.13911744     A.U. after   14 cycles
 SCF Done:  E(RB3LYP) =  -1050.14067924     A.U. after   14 cycles
 SCF Done:  E(RB3LYP) =  -1050.14208746     A.U. after   13 cycles
 SCF Done:  E(RB3LYP) =  -1050.14224677     A.U. after   12 cycles
 SCF Done:  E(RB3LYP) =  -1050.14258233     A.U. after   12 cycles
 SCF Done:  E(RB3LYP) =  -1050.14246014     A.U. after   12 cycles
 SCF Done:  E(RB3LYP) =  -1050.14263040     A.U. after   12 cycles
 SCF Done:  E(RB3LYP) =  -1050.14263919     A.U. after   10 cycles
 SCF Done:  E(RB3LYP) =  -1050.14264108     A.U. after    8 cycles
 SCF Done:  E(RB3LYP) =  -1050.14264179     A.U. after    8 cycles
 SCF Done:  E(RB3LYP) =  -1050.14264254     A.U. after    7 cycles
 SCF Done:  E(RB3LYP) =  -1050.14264332     A.U. after    8 cycles
 SCF Done:  E(RB3LYP) =  -1050.14264357     A.U. after    8 cycles
 Optimization completed.
    -- Stationary point found.
 Normal termination of Gaussian 16 at Thu Dec 10 14:58:43 2020.

 --------------------------------------------------------------------
 #N Geom=AllCheck Guess=TCheck SCRF=Check GenChk RB3LYP/6-31G(d) Freq
 --------------------------------------------------------------------

 Structure from the checkpoint file:  "JID_5161.chk"
 ------------------------------
 CID_61123616_JID_5161_neutraal
 ------------------------------
 Charge =  0 Multiplicity = 1

 SCF Done:  E(RB3LYP) =  -1050.14264357     A.U. after    1 cycles

  Exact polarizability: 158.893 -11.356 135.889  -5.874   5.448 120.539
 Approx polarizability: 207.444 -31.507 212.611  -9.589  16.600 191.387

                      1                      2                      3
                      A                      A                      A
 Frequencies --     32.3323                62.9026                70.2800
 Red. masses --      6.0836                 5.5399                 4.2624
 Frc consts  --      0.0037                 0.0129                 0.0124
 IR Inten    --      2.3968                 0.5845                 1.6805

                      4                      5                      6
                      A                      A                      A
 Frequencies --     88.7518               122.9273               133.4347
 Red. masses --      3.4527                 1.9561                 1.6413
 Frc consts  --      0.0160                 0.0174                 0.0172
 IR Inten    --      0.4549                 0.4497                 1.0511

                      7                      8                      9
                      A                      A                      A
 Frequencies --    168.6990               187.3989               206.1814
 Red. masses --      2.5489                 4.0373                 3.5012
 Frc consts  --      0.0427                 0.0835                 0.0877
 IR Inten    --      0.3424                 4.9628                 1.3213

                     10                     11                     12
                      A                      A                      A
 Frequencies --    225.6068               241.8984               275.9989
 Red. masses --      3.7344                 1.1141                 5.6792
 Frc consts  --      0.1120                 0.0384                 0.2549
 IR Inten    --      3.6813                 0.2095                 1.4934

                     13                     14                     15
                      A                      A                      A
 Frequencies --    293.4659               303.9570               315.8294
 Red. masses --      3.5381                 3.6095                 2.3621
 Frc consts  --      0.1795                 0.1965                 0.1388
 IR Inten    --      2.7929                 4.1754                 4.0029

                     16                     17                     18
                      A                      A                      A
 Frequencies --    350.2593               379.2382               429.7474
 Red. masses --      4.6416                 2.5033                 1.7347
 Frc consts  --      0.3355                 0.2121                 0.1888
 IR Inten    --     13.5192                 3.3297                 0.5875

                     19                     20                     21
                      A                      A                      A
 Frequencies --    437.0499               470.0898               491.2772
 Red. masses --      3.2443                 3.1865                 3.4165
 Frc consts  --      0.3651                 0.4149                 0.4858
 IR Inten    --      6.4492                 4.6137                 0.7427

                     22                     23                     24
                      A                      A                      A
 Frequencies --    523.8374               550.4069               556.8890
 Red. masses --      2.7593                 1.1891                 1.3408
 Frc consts  --      0.4461                 0.2122                 0.2450
 IR Inten    --     18.4190               103.9234               150.4056

                     25                     26                     27
                      A                      A                      A
 Frequencies --    617.2963               640.0847               660.1140
 Red. masses --      2.1680                 1.9755                 1.9928
 Frc consts  --      0.4867                 0.4769                 0.5116
 IR Inten    --     22.6798                 4.1344                17.9151

                     28                     29                     30
                      A                      A                      A
 Frequencies --    701.8522               738.0387               756.8550
 Red. masses --      4.9280                 4.6432                10.7335
 Frc consts  --      1.4302                 1.4901                 3.6226
 IR Inten    --      2.0330                17.4626                38.2028

                     31                     32                     33
                      A                      A                      A
 Frequencies --    789.7016               803.3312               860.6308
 Red. masses --      2.3269                 1.5925                 3.0961
 Frc consts  --      0.8550                 0.6055                 1.3511
 IR Inten    --      0.4763                 1.7563                12.6825

                     34                     35                     36
                      A                      A                      A
 Frequencies --    897.8451               925.3724               958.7299
 Red. masses --      3.2711                 1.8569                 1.6160
 Frc consts  --      1.5536                 0.9369                 0.8752
 IR Inten    --      4.4592                 0.5625                14.1572

                     37                     38                     39
                      A                      A                      A
 Frequencies --    963.8987               976.4772              1015.1664
 Red. masses --      1.4733                 2.2360                 1.5331
 Frc consts  --      0.8065                 1.2562                 0.9309
 IR Inten    --      2.9272                 7.4399                 5.4464

                     40                     41                     42
                      A                      A                      A
 Frequencies --   1029.0279              1055.7899              1084.6703
 Red. masses --      2.2934                 2.2847                 2.6803
 Frc consts  --      1.4308                 1.5005                 1.8579
 IR Inten    --     11.5338                 2.8992                60.6332

                     43                     44                     45
                      A                      A                      A
 Frequencies --   1108.5183              1121.1898              1143.1678
 Red. masses --      3.4757                 2.4699                 2.1960
 Frc consts  --      2.5164                 1.8293                 1.6909
 IR Inten    --     72.1435                11.5367                21.7649

                     46                     47                     48
                      A                      A                      A
 Frequencies --   1176.9652              1189.0560              1196.3399
 Red. masses --      1.5860                 1.2642                 2.1740
 Frc consts  --      1.2944                 1.0531                 1.8333
 IR Inten    --     15.1805                 1.0147                 5.1190

                     49                     50                     51
                      A                      A                      A
 Frequencies --   1212.8970              1222.2241              1284.7687
 Red. masses --      2.0234                 1.7103                 1.4179
 Frc consts  --      1.7538                 1.5053                 1.3789
 IR Inten    --     19.0858                24.4504                 9.7279

                     52                     53                     54
                      A                      A                      A
 Frequencies --   1291.5406              1309.3398              1336.1940
 Red. masses --      1.6502                 1.2383                 1.7504
 Frc consts  --      1.6218                 1.2507                 1.8413
 IR Inten    --     20.6660                 9.1467                37.1749

                     55                     56                     57
                      A                      A                      A
 Frequencies --   1358.6711              1367.6143              1369.4883
 Red. masses --      1.3508                 1.5301                 1.5762
 Frc consts  --      1.4692                 1.6861                 1.7418
 IR Inten    --      1.0904                61.4326                29.4990

                     58                     59                     60
                      A                      A                      A
 Frequencies --   1383.9784              1400.2891              1408.3396
 Red. masses --      2.5133                 1.7208                 1.4849
 Frc consts  --      2.8363                 1.9880                 1.7353
 IR Inten    --    151.1808                96.8731                10.8370

                     61                     62                     63
                      A                      A                      A
 Frequencies --   1420.0520              1427.9920              1441.2391
 Red. masses --      2.6346                 1.6229                 1.2424
 Frc consts  --      3.1302                 1.9499                 1.5205
 IR Inten    --    242.9696                 3.3558                 1.6374

                     64                     65                     66
                      A                      A                      A
 Frequencies --   1487.5256              1500.0890              1506.7407
 Red. masses --      1.3662                 1.2801                 1.0951
 Frc consts  --      1.7811                 1.6972                 1.4648
 IR Inten    --      0.9140                67.4660                 6.5341

                     67                     68                     69
                      A                      A                      A
 Frequencies --   1510.3609              1516.8666              1526.8227
 Red. masses --      1.0491                 1.0976                 1.0611
 Frc consts  --      1.4100                 1.4880                 1.4574
 IR Inten    --      5.1520                 4.6040                 5.4656

                     70                     71                     72
                      A                      A                      A
 Frequencies --   1530.0185              1531.0853              1531.6651
 Red. masses --      1.0548                 1.0623                 1.0722
 Frc consts  --      1.4549                 1.4673                 1.4820
 IR Inten    --      4.6991                 3.6609                 8.6810

                     73                     74                     75
                      A                      A                      A
 Frequencies --   1536.9484              1679.5263              1829.9975
 Red. masses --      1.0974                 1.2270                 8.7867
 Frc consts  --      1.5273                 2.0393                17.3372
 IR Inten    --      2.0188               106.0779               572.9957

                     76                     77                     78
                      A                      A                      A
 Frequencies --   2994.9094              3033.6810              3040.3802
 Red. masses --      1.0826                 1.0592                 1.0387
 Frc consts  --      5.7210                 5.7433                 5.6569
 IR Inten    --     20.5992                15.9553                35.7267

                     79                     80                     81
                      A                      A                      A
 Frequencies --   3045.7055              3053.8593              3058.8411
 Red. masses --      1.0659                 1.0637                 1.0751
 Frc consts  --      5.8255                 5.8449                 5.9265
 IR Inten    --     12.9796                40.8631                21.4303

                     82                     83                     84
                      A                      A                      A
 Frequencies --   3077.8287              3082.7512              3099.4658
 Red. masses --      1.0984                 1.0284                 1.0980
 Frc consts  --      6.1305                 5.7583                 6.2148
 IR Inten    --     43.1849                39.8209                11.3847

                     85                     86                     87
                      A                      A                      A
 Frequencies --   3105.8381              3108.8787              3110.1547
 Red. masses --      1.1006                 1.1010                 1.1020
 Frc consts  --      6.2550                 6.2696                 6.2806
 IR Inten    --     10.0008                53.4156                42.5893

                     88                     89                     90
                      A                      A                      A
 Frequencies --   3156.1799              3163.8005              3181.4379
 Red. masses --      1.0902                 1.1081                 1.1083
 Frc consts  --      6.3988                 6.5353                 6.6095
 IR Inten    --     19.8581                16.2586                13.9389

                     91                     92                     93
                      A                      A                      A
 Frequencies --   3531.1404              3611.1213              3660.4357
 Red. masses --      1.0467                 1.0761                 1.1028
 Frc consts  --      7.6894                 8.2677                 8.7061
 IR Inten    --    125.9228                32.7628                81.5068

 - Thermochemistry -
 -------------------
 Temperature   298.150 Kelvin.  Pressure   1.00000 Atm.
 Atom     1 has atomic number  6 and mass  12.00000

 Molecular mass:   230.10890 amu.
 Principal axes and moments of inertia in atomic units:
                           1         2         3
     Eigenvalues --  2252.274125026.566785783.19011
           X            0.99975   0.01625  -0.01503
           Y           -0.01574   0.99932   0.03330
           Z            0.01556  -0.03305   0.99933
 This molecule is an asymmetric top.
 Rotational symmetry number  1.
 Warning -- assumption of classical behavior for rotation
           may cause significant error
 Rotational temperatures (Kelvin)      0.03846     0.01723     0.01498
 Rotational constants (GHZ):           0.80130     0.35904     0.31207
 Zero-point vibrational energy     749862.8 (Joules/Mol)
                                  179.22150 (Kcal/Mol)
 Warning -- explicit consideration of  25 degrees of freedom as
           vibrations may cause significant error
 Vibrational temperatures:     46.52    90.50   101.12   127.69   176.86
          (Kelvin)            191.98   242.72   269.63   296.65   324.60
                              348.04   397.10   422.23   437.33   454.41
                              503.94   545.64   618.31   628.82   676.35
                              706.84   753.69   791.91   801.24   888.15
                              920.94   949.76  1009.81  1061.87  1088.95
                             1136.20  1155.81  1238.26  1291.80  1331.40
                             1379.40  1386.84  1404.93  1460.60  1480.54
                             1519.05  1560.60  1594.91  1613.14  1644.76
                             1693.39  1710.79  1721.27  1745.09  1758.51
                             1848.50  1858.24  1883.85  1922.49  1954.82
                             1967.69  1970.39  1991.24  2014.70  2026.29
                             2043.14  2054.56  2073.62  2140.22  2158.29
                             2167.86  2173.07  2182.43  2196.76  2201.36
                             2202.89  2203.72  2211.33  2416.46  2632.96
                             4309.01  4364.79  4374.43  4382.09  4393.82
                             4400.99  4428.31  4435.39  4459.44  4468.61
                             4472.98  4474.82  4541.04  4552.00  4577.38
                             5080.52  5195.60  5266.55

 Zero-point correction=                           0.285608 (Hartree/Particle)
 Thermal correction to Energy=                    0.301410
 Thermal correction to Enthalpy=                  0.302354
 Thermal correction to Gibbs Free Energy=         0.242476
 Sum of electronic and zero-point Energies=          -1049.857036
 Sum of electronic and thermal Energies=             -1049.841234
 Sum of electronic and thermal Enthalpies=           -1049.840290
 Sum of electronic and thermal Free Energies=        -1049.900167

                     E (Thermal)             CV                S
                      KCal/Mol        Cal/Mol-Kelvin    Cal/Mol-Kelvin
 Total                  189.137             60.172            126.023
 Electronic               0.000              0.000              0.000
 Translational            0.889              2.981             42.202
 Rotational               0.889              2.981             32.548
 Vibrational            187.360             54.210             51.272
 Vibration     1          0.594              1.983              5.681
 Vibration     2          0.597              1.972              4.364
 Vibration     3          0.598              1.968              4.145
 Vibration     4          0.602              1.957              3.687
 Vibration     5          0.610              1.930              3.054
 Vibration     6          0.613              1.920              2.896
 Vibration     7          0.625              1.881              2.450
 Vibration     8          0.632              1.857              2.253
 Vibration     9          0.641              1.831              2.077
 Vibration    10          0.650              1.802              1.914
 Vibration    11          0.658              1.776              1.789
 Vibration    12          0.678              1.718              1.558
 Vibration    13          0.688              1.686              1.454
 Vibration    14          0.695              1.666              1.395
 Vibration    15          0.703              1.643              1.332
 Vibration    16          0.727              1.575              1.165
 Vibration    17          0.749              1.514              1.042
 Vibration    18          0.791              1.405              0.859
 Vibration    19          0.797              1.389              0.836
 Vibration    20          0.827              1.316              0.737
 Vibration    21          0.847              1.269              0.680
 Vibration    22          0.879              1.197              0.601
 Vibration    23          0.906              1.139              0.543
 Vibration    24          0.912              1.125              0.530
 Vibration    25          0.977              0.995              0.421

                           ! Non-Optimized Parameters !
 Normal termination of Gaussian 16 at Thu Dec 10 15:10:53 2020.

 ----------------------------------------------------------------------
 # B3LYP/6-311++G(d,p) empiricaldispersion=gd3bj scf=xqc pop=npa geom=c
 heck
 ----------------------------------------------------------------------

 --------------------------------------
 CID_61123616_JID_5161_Energie_neutraal
 --------------------------------------
 Structure from the checkpoint file:  "JID_5161.chk"
 Charge =  0 Multiplicity = 1

 SCF Done:  E(RB3LYP) =  -1050.36302678     A.U. after   15 cycles
 Normal termination of Gaussian 16 at Thu Dec 10 15:17:21 2020.

 ----------------------------------------------------------------------
 # B3LYP/6-311++G(d,p) empiricaldispersion=gd3bj scf=xqc pop=npa geom=c
 heck
 ----------------------------------------------------------------------

 ------------------------------------
 CID_61123616_JID_5161_Energie_kation
 ------------------------------------
 Structure from the checkpoint file:  "JID_5161.chk"
 Charge =  1 Multiplicity = 2

 SCF Done:  E(UB3LYP) =  -1050.06768114     A.U. after   24 cycles
 Normal termination of Gaussian 16 at Thu Dec 10 15:32:20 2020.
 Gaussian 16:  ES64L-G16RevA.03 25-Dec-2016

 ----------------------------------------------------------------------
 # B3LYP/6-311++G(d,p) empiricaldispersion=gd3bj scf=xqc pop=npa geom=c
 heck
 ----------------------------------------------------------------------

 -----------------------------------
 CID_61123616_JID_5161_Energie_anion
 -----------------------------------
 Structure from the checkpoint file:  "JID_5161.chk"
 Charge = -1 Multiplicity = 2

                         Standard orientation:
 ---------------------------------------------------------------------
 Center     Atomic      Atomic             Coordinates (Angstroms)
 Number     Number       Type             X           Y           Z
 ---------------------------------------------------------------------
      1          6           0       -4.209718   -1.318459   -0.384872
      2          6           0       -2.792842   -1.249612    0.187953
      3          6           0       -1.728748   -1.369290   -0.910160
      4          6           0       -0.307342   -1.294513   -0.343314
      5          6           0       -0.052088    0.040259    0.395587
      6          6           0       -1.131207    0.182712    1.490489
      7          6           0       -2.567936    0.045921    0.977640
      8          6           0       -0.018111    1.259784   -0.570607
      9         16           0       -0.747198    2.725300   -0.271985
     10          7           0        0.712224    1.054188   -1.683053
     11          7           0        1.234583    0.029325    1.126419
     12          6           0        2.506892   -0.281364    0.741689
     13          8           0        3.486965   -0.121910    1.442992
     14          8           0        2.573567   -0.821624   -0.515723
     15          6           0        3.894329   -1.231927   -0.908069
     16          1           0       -4.386064   -0.490758   -1.083113
     17          1           0       -4.375674   -2.256450   -0.927772
     18          1           0       -4.962493   -1.250349    0.409031
     19          1           0       -2.654497   -2.099218    0.875880
     20          1           0       -1.848306   -2.316625   -1.450532
     21          1           0       -1.874555   -0.568031   -1.648448
     22          1           0        0.422600   -1.466122   -1.133452
     23          1           0       -0.157294   -2.094619    0.392360
     24          1           0       -1.008348    1.147279    1.992942
     25          1           0       -0.927152   -0.608667    2.223279
     26          1           0       -2.806946    0.905684    0.342558
     27          1           0       -3.252139    0.088040    1.834360
     28          1           0        1.362319    0.276840   -1.725694
     29          1           0        0.884734    1.854718   -2.277663
     30          1           0        1.233296    0.549619    1.994311
     31          1           0        4.575238   -0.377902   -0.917825
     32          1           0        4.278454   -1.986703   -0.218821
     33          1           0        3.780716   -1.648917   -1.909366
 ---------------------------------------------------------------------

 SCF Done:  E(UB3LYP) =  -1050.36019228     A.U. after   31 cycles

 The electronic state is 2-A.
 Alpha  occ. eigenvalues --  -88.65689 -19.06640 -18.99326 -14.23204 -14.20624
 Alpha  occ. eigenvalues --  -10.21683 -10.12391 -10.12114 -10.10243 -10.07254
 Alpha  occ. eigenvalues --  -10.06765 -10.06334 -10.06174 -10.06142 -10.05798
 Alpha  occ. eigenvalues --   -7.74469  -5.70805  -5.70374  -5.70026  -1.00808
 Alpha  occ. eigenvalues --   -0.91585  -0.83780  -0.80362  -0.73340  -0.67168
 Alpha  occ. eigenvalues --   -0.64422  -0.62378  -0.60558  -0.57927  -0.52207
 Alpha  occ. eigenvalues --   -0.51025  -0.48459  -0.46855  -0.44244  -0.43051
 Alpha  occ. eigenvalues --   -0.40983  -0.40059  -0.38276  -0.36498  -0.35619
 Alpha  occ. eigenvalues --   -0.34566  -0.33990  -0.33258  -0.32073  -0.31372
 Alpha  occ. eigenvalues --   -0.29862  -0.29538  -0.28121  -0.26802  -0.26701
 Alpha  occ. eigenvalues --   -0.25338  -0.24240  -0.23984  -0.22714  -0.22086
 Alpha  occ. eigenvalues --   -0.21350  -0.20824  -0.19681  -0.18262  -0.15743
 Alpha  occ. eigenvalues --   -0.10583  -0.08110   0.04348
 Alpha virt. eigenvalues --    0.06367   0.06674   0.08286   0.08415   0.09155
 Alpha virt. eigenvalues --    0.09851   0.10081   0.10903   0.11190   0.11975
 Alpha virt. eigenvalues --    0.12139   0.12344   0.13096   0.13695   0.14091

  Beta  occ. eigenvalues --  -88.65669 -19.06625 -18.99304 -14.23138 -14.20503
  Beta  occ. eigenvalues --  -10.21669 -10.12349 -10.12144 -10.09687 -10.07248
  Beta  occ. eigenvalues --  -10.06761 -10.06329 -10.06153 -10.06129 -10.05798
  Beta  occ. eigenvalues --   -7.74451  -5.70813  -5.70290  -5.70016  -1.00775
  Beta  occ. eigenvalues --   -0.91549  -0.83553  -0.80015  -0.73306  -0.67076
  Beta  occ. eigenvalues --   -0.64391  -0.62317  -0.60116  -0.57818  -0.52148
  Beta  occ. eigenvalues --   -0.50890  -0.48352  -0.46717  -0.44086  -0.42881
  Beta  occ. eigenvalues --   -0.40897  -0.39945  -0.38204  -0.36393  -0.35519
  Beta  occ. eigenvalues --   -0.34540  -0.33963  -0.33197  -0.31927  -0.31319
  Beta  occ. eigenvalues --   -0.29700  -0.29481  -0.28079  -0.26734  -0.26442
  Beta  occ. eigenvalues --   -0.25292  -0.24066  -0.23292  -0.22461  -0.21588
  Beta  occ. eigenvalues --   -0.21268  -0.20706  -0.19639  -0.18193  -0.15571
  Beta  occ. eigenvalues --   -0.09713  -0.08046
  Beta virt. eigenvalues --    0.06614   0.07214   0.08190   0.08691   0.09232
  Beta virt. eigenvalues --    0.09898   0.10112   0.10469   0.11074   0.11455
  Beta virt. eigenvalues --    0.11983   0.12216   0.12391   0.13117   0.13800

 Mulliken charges and spin densities:
               1          2
     1  C   -0.624233  -0.178838
     2  C    0.555007  -0.067805
     3  C   -0.588578  -0.102615
     4  C   -0.210585  -0.138306
     5  C    0.527146  -0.466521
     6  C   -0.093101   0.061201
     7  C   -0.536259  -0.037494
     8  C    0.143978   0.053378
     9  S   -0.825935   0.079653
    10  N   -0.390371   0.172281
    11  N   -0.172788   0.085263
    12  C    0.050773   0.230881
    13  O   -0.327966   0.015945
    14  O   -0.235989   0.074063
    15  C    0.783335  -1.036006
    16  H    0.145159  -0.010852
    17  H    0.069342   0.056691
    18  H    0.072987   0.050182
    19  H    0.039852   0.110165
    20  H   -0.173723   0.345248
    21  H    0.242022  -0.039406
    22  H    0.126524   0.022885
    23  H   -0.032475   0.218224
    24  H    0.083619   0.050355
    25  H    0.115608   0.041210
    26  H    0.151553  -0.000148
    27  H    0.133375   0.004796
    28  H    0.292321   0.001908
    29  H    0.176062   0.078926
    30  H    0.291985   0.027158
    31  H   -0.117840   0.304105
    32  H   -0.138414   0.313347
    33  H   -0.532394   0.680127
 Sum of Mulliken charges =  -1.00000   1.00000

 Dipole moment (field-independent basis, Debye):
    X=             -4.0085    Y=             -1.9520    Z=              1.4456  Tot=              4.6870
 Quadrupole moment (field-independent basis, Debye-Ang):
   XX=           -154.5332   YY=           -147.1779   ZZ=           -122.7193
   XY=              7.4629   XZ=              0.3864   YZ=             -3.0544

 Summary of Natural Population Analysis:

                                       Natural Population
                Natural  -----------------------------------------------
    Atom  No    Charge         Core      Valence    Rydberg      Total
 -----------------------------------------------------------------------
      C    1   -0.28176      0.99965     2.27610    0.00600     3.28176
      C    2   -0.11124      0.99960     2.10315    0.00849     3.11124
      C    3   -0.18971      0.99961     2.18078    0.00932     3.18971
      C    4   -0.19246      0.99959     2.18101    0.01187     3.19246
      C    5    0.04311      0.99948     1.94299    0.01442     2.95689
      C    6   -0.19383      0.99959     2.18296    0.01127     3.19383
      C    7   -0.19293      0.99961     2.18421    0.00911     3.19293
      C    8    0.14686      0.99958     1.83330    0.02026     2.85314
      S    9   -0.13625      4.99954     3.12290    0.01382     8.13625
      N   10   -0.37658      0.99965     2.86541    0.01151     3.87658
      N   11   -0.31830      0.99964     2.80815    0.01051     3.81830
      C   12    0.46793      0.99968     1.50776    0.02462     2.53207
      O   13   -0.33149      0.99987     3.32650    0.00512     4.33149
      O   14   -0.29807      0.99987     3.28869    0.00951     4.29807
      C   15   -0.09928      0.99959     2.09080    0.00889     3.09928
      H   16    0.09713      0.00000     0.40202    0.00085     0.40287
      H   17    0.09640      0.00000     0.40288    0.00072     0.40360
      H   18    0.09545      0.00000     0.40383    0.00072     0.40455
      H   19    0.08853      0.00000     0.40963    0.00184     0.41147
      H   20    0.09817      0.00000     0.40088    0.00094     0.40183
      H   21    0.10150      0.00000     0.39737    0.00113     0.39850
      H   22    0.10883      0.00000     0.38955    0.00161     0.39117
      H   23    0.09911      0.00000     0.39935    0.00154     0.40089
      H   24    0.11337      0.00000     0.38563    0.00100     0.38663
      H   25    0.09547      0.00000     0.40337    0.00116     0.40453
      H   26    0.11093      0.00000     0.38774    0.00133     0.38907
      H   27    0.09486      0.00000     0.40428    0.00085     0.40514
      H   28    0.19840      0.00000     0.29883    0.00277     0.30160
      H   29    0.19242      0.00000     0.30585    0.00173     0.30758
      H   30    0.19752      0.00000     0.30069    0.00179     0.30248
      H   31    0.09250      0.00000     0.40622    0.00128     0.40750
      H   32    0.09094      0.00000     0.40802    0.00104     0.40906
      H   33    0.09247      0.00000     0.40545    0.00208     0.40753
 =======================================================================
   * Total *   -0.00000     18.99455    42.80632    0.19913    62.00000

 Normal termination of Gaussian 16 at Thu Dec 10 15:55:16 2020.
