 Gaussian 16, Revision A.03,

 -----------------------------------------------------------
 # opt freq B3LYP/6-31G(d) empiricaldispersion=gd3bj scf=xqc
 -----------------------------------------------------------

 ------------------------------
 CID_84656222_JID_1219_neutraal
 ------------------------------
 Symbolic Z-matrix:
 Charge =  0 Multiplicity = 1

 SCF Done:  E(RB3LYP) =  -879.109958904     A.U. after   14 cycles
 SCF Done:  E(RB3LYP) =  -879.108156407     A.U. after   14 cycles
 SCF Done:  E(RB3LYP) =  -879.115053897     A.U. after   13 cycles
 SCF Done:  E(RB3LYP) =  -879.118358454     A.U. after   12 cycles
 SCF Done:  E(RB3LYP) =  -879.119105813     A.U. after   12 cycles
 SCF Done:  E(RB3LYP) =  -879.120325496     A.U. after   12 cycles
 SCF Done:  E(RB3LYP) =  -879.120701962     A.U. after   12 cycles
 SCF Done:  E(RB3LYP) =  -879.120845711     A.U. after   12 cycles
 SCF Done:  E(RB3LYP) =  -879.120871316     A.U. after   10 cycles
 SCF Done:  E(RB3LYP) =  -879.120881643     A.U. after    9 cycles
 SCF Done:  E(RB3LYP) =  -879.120885996     A.U. after    8 cycles
 SCF Done:  E(RB3LYP) =  -879.120886520     A.U. after    7 cycles
 SCF Done:  E(RB3LYP) =  -879.120886818     A.U. after    8 cycles
 Optimization completed.
    -- Stationary point found.
 Normal termination of Gaussian 16 at Tue Dec  8 19:28:53 2020.

 --------------------------------------------------------------------
 #N Geom=AllCheck Guess=TCheck SCRF=Check GenChk RB3LYP/6-31G(d) Freq
 --------------------------------------------------------------------

 Structure from the checkpoint file:  "JID_1219.chk"
 ------------------------------
 CID_84656222_JID_1219_neutraal
 ------------------------------
 Charge =  0 Multiplicity = 1

 SCF Done:  E(RB3LYP) =  -879.120886818     A.U. after    1 cycles

  Exact polarizability: 119.122  -1.198  92.224   2.870   0.821  89.778
 Approx polarizability: 144.370  -2.751 146.304   3.807  -3.394 143.360

                      1                      2                      3
                      A                      A                      A
 Frequencies --     44.5983                62.7412                76.8078
 Red. masses --      3.7896                 3.4278                 3.7419
 Frc consts  --      0.0044                 0.0080                 0.0130
 IR Inten    --      0.0902                 1.0739                 1.2576

                      4                      5                      6
                      A                      A                      A
 Frequencies --    122.5987               151.5229               190.7944
 Red. masses --      3.1456                 3.1202                 3.3905
 Frc consts  --      0.0279                 0.0422                 0.0727
 IR Inten    --      1.2797                 1.1298                 1.6401

                      7                      8                      9
                      A                      A                      A
 Frequencies --    237.2484               264.6458               270.7415
 Red. masses --      4.1403                 3.2156                 1.4601
 Frc consts  --      0.1373                 0.1327                 0.0631
 IR Inten    --      2.7797                16.8812                 0.8495

                     10                     11                     12
                      A                      A                      A
 Frequencies --    311.2839               355.4910               359.8680
 Red. masses --      2.9018                 2.6931                 1.2824
 Frc consts  --      0.1657                 0.2005                 0.0979
 IR Inten    --      1.1813                 0.4199                27.2212

                     13                     14                     15
                      A                      A                      A
 Frequencies --    388.7213               393.7905               423.1194
 Red. masses --      1.6542                 3.6707                 2.5343
 Frc consts  --      0.1473                 0.3354                 0.2673
 IR Inten    --     12.7628                 8.0055                 7.4361

                     16                     17                     18
                      A                      A                      A
 Frequencies --    473.9780               531.6443               600.7753
 Red. masses --      6.4539                 3.9609                 2.1336
 Frc consts  --      0.8543                 0.6596                 0.4537
 IR Inten    --     19.7307                37.3605                 4.3412

                     19                     20                     21
                      A                      A                      A
 Frequencies --    662.2915               707.3074               779.7618
 Red. masses --      3.3802                 4.5353                 2.8744
 Frc consts  --      0.8735                 1.3368                 1.0297
 IR Inten    --     20.8645               100.4916                14.6581

                     22                     23                     24
                      A                      A                      A
 Frequencies --    795.3298               842.2039               886.0045
 Red. masses --      1.0815                 1.2474                 1.9015
 Frc consts  --      0.4031                 0.5213                 0.8795
 IR Inten    --      6.1019                20.6623                13.3676

                     25                     26                     27
                      A                      A                      A
 Frequencies --    908.9189               919.7023               944.2715
 Red. masses --      1.7817                 3.5829                 3.7186
 Frc consts  --      0.8673                 1.7856                 1.9536
 IR Inten    --     67.5516                50.8439                13.9986

                     28                     29                     30
                      A                      A                      A
 Frequencies --    951.5353               978.3969              1022.6219
 Red. masses --      1.7462                 1.4919                 1.9351
 Frc consts  --      0.9315                 0.8415                 1.1923
 IR Inten    --    121.6058                13.1073                38.3345

                     31                     32                     33
                      A                      A                      A
 Frequencies --   1055.2922              1074.0242              1088.8371
 Red. masses --      1.4995                 1.6929                 1.2429
 Frc consts  --      0.9839                 1.1506                 0.8682
 IR Inten    --      7.6389                21.0700                 7.3709

                     34                     35                     36
                      A                      A                      A
 Frequencies --   1104.2607              1107.4145              1111.6545
 Red. masses --      1.9033                 1.4096                 2.2231
 Frc consts  --      1.3674                 1.0185                 1.6187
 IR Inten    --     16.0836                16.7175                91.9857

                     37                     38                     39
                      A                      A                      A
 Frequencies --   1128.4855              1143.0060              1203.9415
 Red. masses --      1.1398                 1.4742                 1.5233
 Frc consts  --      0.8552                 1.1348                 1.3009
 IR Inten    --      3.6313                13.9124                21.1960

                     40                     41                     42
                      A                      A                      A
 Frequencies --   1213.3723              1232.0082              1258.8286
 Red. masses --      1.3391                 1.9782                 1.2396
 Frc consts  --      1.1616                 1.7691                 1.1574
 IR Inten    --      1.6329                20.1367                 2.2085

                     43                     44                     45
                      A                      A                      A
 Frequencies --   1285.4210              1310.9478              1343.0407
 Red. masses --      7.3916                 1.5853                 1.4862
 Frc consts  --      7.1958                 1.6052                 1.5794
 IR Inten    --    112.5525                 3.6378                 5.7878

                     46                     47                     48
                      A                      A                      A
 Frequencies --   1347.8298              1374.4154              1415.1291
 Red. masses --      1.4877                 1.4590                 1.2819
 Frc consts  --      1.5923                 1.6238                 1.5125
 IR Inten    --     11.9188                 7.8470                 6.9757

                     49                     50                     51
                      A                      A                      A
 Frequencies --   1428.8146              1450.4548              1480.2191
 Red. masses --      1.2126                 1.4414                 1.0869
 Frc consts  --      1.4585                 1.7867                 1.4031
 IR Inten    --      7.6424                13.1413                 9.1915

                     52                     53                     54
                      A                      A                      A
 Frequencies --   1482.6344              1505.6178              1519.7680
 Red. masses --      1.0871                 1.0885                 1.1320
 Frc consts  --      1.4080                 1.4538                 1.5404
 IR Inten    --      5.6444                 3.1824                 1.2117

                     55                     56                     57
                      A                      A                      A
 Frequencies --   1521.0136              1544.5737              1720.2850
 Red. masses --      1.1928                 1.0492                 1.0873
 Frc consts  --      1.6259                 1.4748                 1.8958
 IR Inten    --      1.8467                 4.0831                32.5408

                     58                     59                     60
                      A                      A                      A
 Frequencies --   3014.8274              3038.5726              3050.2387
 Red. masses --      1.0824                 1.0681                 1.0376
 Frc consts  --      5.7966                 5.8104                 5.6879
 IR Inten    --     31.0901                48.0223                17.1446

                     61                     62                     63
                      A                      A                      A
 Frequencies --   3080.6148              3090.6681              3113.4044
 Red. masses --      1.0622                 1.0964                 1.1022
 Frc consts  --      5.9393                 6.1707                 6.2951
 IR Inten    --      7.3085                13.1662                37.9517

                     64                     65                     66
                      A                      A                      A
 Frequencies --   3138.0134              3146.1932              3160.8477
 Red. masses --      1.1007                 1.1026                 1.0537
 Frc consts  --      6.3861                 6.4306                 6.2024
 IR Inten    --     24.6465                 4.1226                 7.7020

                     67                     68                     69
                      A                      A                      A
 Frequencies --   3169.1331              3200.3240              3244.3897
 Red. masses --      1.0545                 1.0909                 1.1198
 Frc consts  --      6.2397                 6.5830                 6.9450
 IR Inten    --      8.0536                 0.6981                 1.9543

                     70                     71                     72
                      A                      A                      A
 Frequencies --   3259.5448              3475.8963              3558.8019
 Red. masses --      1.1174                 1.0498                 1.0923
 Frc consts  --      6.9948                 7.4728                 8.1510
 IR Inten    --      1.7335                10.6383                16.0844

 - Thermochemistry -
 -------------------
 Temperature   298.150 Kelvin.  Pressure   1.00000 Atm.
 Atom     1 has atomic number  6 and mass  12.00000

 Molecular mass:   177.08235 amu.
 Principal axes and moments of inertia in atomic units:
                           1         2         3
     Eigenvalues --   957.495273046.888953173.75764
           X            1.00000   0.00247   0.00167
           Y           -0.00250   0.99983   0.01834
           Z           -0.00162  -0.01835   0.99983
 This molecule is an asymmetric top.
 Rotational symmetry number  1.
 Warning -- assumption of classical behavior for rotation
           may cause significant error
 Rotational temperatures (Kelvin)      0.09046     0.02843     0.02729
 Rotational constants (GHZ):           1.88486     0.59232     0.56864
 Zero-point vibrational energy     591263.1 (Joules/Mol)
                                  141.31528 (Kcal/Mol)
 Warning -- explicit consideration of  18 degrees of freedom as
           vibrations may cause significant error
 Vibrational temperatures:     64.17    90.27   110.51   176.39   218.01
          (Kelvin)            274.51   341.35   380.77   389.54   447.87
                              511.47   517.77   559.28   566.58   608.77
                              681.95   764.92   864.38   952.89  1017.66
                             1121.90  1144.30  1211.74  1274.76  1307.73
                             1323.25  1358.60  1369.05  1407.69  1471.32
                             1518.33  1545.28  1566.59  1588.78  1593.32
                             1599.42  1623.64  1644.53  1732.20  1745.77
                             1772.58  1811.17  1849.43  1886.16  1932.34
                             1939.23  1977.48  2036.06  2055.75  2086.88
                             2129.71  2133.18  2166.25  2186.61  2188.40
                             2222.30  2475.11  4337.66  4371.83  4388.61
                             4432.32  4446.78  4479.49  4514.90  4526.67
                             4547.75  4559.68  4604.55  4667.95  4689.76
                             5001.04  5120.32

 Zero-point correction=                           0.225200 (Hartree/Particle)
 Thermal correction to Energy=                    0.237597
 Thermal correction to Enthalpy=                  0.238542
 Thermal correction to Gibbs Free Energy=         0.186459
 Sum of electronic and zero-point Energies=           -878.895687
 Sum of electronic and thermal Energies=              -878.883289
 Sum of electronic and thermal Enthalpies=            -878.882345
 Sum of electronic and thermal Free Energies=         -878.934428

                     E (Thermal)             CV                S
                      KCal/Mol        Cal/Mol-Kelvin    Cal/Mol-Kelvin
 Total                  149.095             46.667            109.618
 Electronic               0.000              0.000              0.000
 Translational            0.889              2.981             41.421
 Rotational               0.889              2.981             30.605
 Vibrational            147.317             40.706             37.592
 Vibration     1          0.595              1.980              5.044
 Vibration     2          0.597              1.972              4.369
 Vibration     3          0.599              1.965              3.971
 Vibration     4          0.610              1.930              3.059
 Vibration     5          0.619              1.901              2.653
 Vibration     6          0.634              1.853              2.220
 Vibration     7          0.656              1.784              1.823
 Vibration     8          0.671              1.738              1.631
 Vibration     9          0.674              1.727              1.591
 Vibration    10          0.700              1.652              1.355
 Vibration    11          0.731              1.564              1.142
 Vibration    12          0.734              1.555              1.123
 Vibration    13          0.757              1.494              1.005
 Vibration    14          0.761              1.483              0.986
 Vibration    15          0.785              1.420              0.881
 Vibration    16          0.831              1.308              0.726
 Vibration    17          0.887              1.180              0.584
 Vibration    18          0.959              1.030              0.448

 Optimization completed.
    -- Stationary point found.
 Normal termination of Gaussian 16 at Tue Dec  8 19:34:03 2020.

 ----------------------------------------------------------------------
 # B3LYP/6-311++G(d,p) empiricaldispersion=gd3bj scf=xqc pop=npa geom=c
 heck
 ----------------------------------------------------------------------

 --------------------------------------
 CID_84656222_JID_1219_Energie_neutraal
 --------------------------------------
 Structure from the checkpoint file:  "JID_1219.chk"
 Charge =  0 Multiplicity = 1

 SCF Done:  E(RB3LYP) =  -879.293925802     A.U. after   14 cycles
 Normal termination of Gaussian 16 at Tue Dec  8 19:35:59 2020.

 ----------------------------------------------------------------------
 # B3LYP/6-311++G(d,p) empiricaldispersion=gd3bj scf=xqc pop=npa geom=c
 heck
 ----------------------------------------------------------------------

 ------------------------------------
 CID_84656222_JID_1219_Energie_kation
 ------------------------------------
 Structure from the checkpoint file:  "JID_1219.chk"
 Charge =  1 Multiplicity = 2

 SCF Done:  E(UB3LYP) =  -878.977069802     A.U. after   21 cycles
 Normal termination of Gaussian 16 at Tue Dec  8 19:39:56 2020.
 Gaussian 16:  ES64L-G16RevA.03 25-Dec-2016

 ----------------------------------------------------------------------
 # B3LYP/6-311++G(d,p) empiricaldispersion=gd3bj scf=xqc pop=npa geom=c
 heck
 ----------------------------------------------------------------------

 -----------------------------------
 CID_84656222_JID_1219_Energie_anion
 -----------------------------------
 Structure from the checkpoint file:  "JID_1219.chk"
 Charge = -1 Multiplicity = 2

                         Standard orientation:
 ---------------------------------------------------------------------
 Center     Atomic      Atomic             Coordinates (Angstroms)
 Number     Number       Type             X           Y           Z
 ---------------------------------------------------------------------
      1          6           0        2.811141    1.483998   -0.506875
      2          6           0        2.751815    0.067689    0.069099
      3          6           0        1.819866   -0.030982    1.303338
      4          6           0        0.392192    0.505524    1.162852
      5         16           0       -0.652500   -0.461190    0.028856
      6          8           0       -0.456703    0.033017   -1.353140
      7          8           0       -0.470735   -1.890369    0.338271
      8          6           0       -2.305325    0.020803    0.510222
      9          6           0       -2.840960    1.351911    0.041908
     10          6           0       -3.348447    0.080368   -0.575473
     11          7           0        2.476739   -0.872032   -1.017988
     12          1           0        3.040800    2.223521    0.269015
     13          1           0        1.856465    1.756007   -0.972660
     14          1           0        3.581637    1.537262   -1.280961
     15          1           0        3.752008   -0.178842    0.454010
     16          1           0        1.766543   -1.076086    1.629932
     17          1           0        2.274648    0.532362    2.130063
     18          1           0       -0.122826    0.456210    2.128043
     19          1           0        0.356361    1.536786    0.803378
     20          1           0       -2.573888   -0.363184    1.489603
     21          1           0       -3.472859    1.898071    0.735598
     22          1           0       -2.184663    1.963799   -0.569168
     23          1           0       -3.018347   -0.143444   -1.584533
     24          1           0       -4.339102   -0.279039   -0.316577
     25          1           0        2.291580   -1.802516   -0.646979
     26          1           0        1.632290   -0.594710   -1.516026
 ---------------------------------------------------------------------

 SCF Done:  E(UB3LYP) =  -879.286001656     A.U. after   26 cycles

 The electronic state is 2-A.
 Alpha  occ. eigenvalues --  -88.94258 -19.01411 -19.01262 -14.18385 -10.11507
 Alpha  occ. eigenvalues --  -10.10756 -10.10365 -10.09379 -10.09277 -10.07959
 Alpha  occ. eigenvalues --  -10.06170  -8.00758  -5.97035  -5.96916  -5.96836
 Alpha  occ. eigenvalues --   -1.00442  -0.90179  -0.78818  -0.78538  -0.70306
 Alpha  occ. eigenvalues --   -0.64116  -0.60463  -0.55276  -0.52016  -0.48810
 Alpha  occ. eigenvalues --   -0.46155  -0.43395  -0.40682  -0.39347  -0.38732
 Alpha  occ. eigenvalues --   -0.37961  -0.35367  -0.34658  -0.32580  -0.31172
 Alpha  occ. eigenvalues --   -0.30455  -0.29229  -0.28402  -0.27321  -0.24974
 Alpha  occ. eigenvalues --   -0.24693  -0.24052  -0.22719  -0.22483  -0.21552
 Alpha  occ. eigenvalues --   -0.20278  -0.19106  -0.13835   0.04204
 Alpha virt. eigenvalues --    0.06515   0.08051   0.08188   0.09314   0.09496
 Alpha virt. eigenvalues --    0.09691   0.11338   0.11721   0.11938   0.12385
 Alpha virt. eigenvalues --    0.12950   0.13966   0.14392   0.14962   0.15392

  Beta  occ. eigenvalues --  -88.94256 -19.01398 -19.01253 -14.18380 -10.11484
  Beta  occ. eigenvalues --  -10.10723 -10.10360 -10.09362 -10.09243 -10.07935
  Beta  occ. eigenvalues --  -10.06150  -8.00755  -5.97034  -5.96910  -5.96833
  Beta  occ. eigenvalues --   -1.00408  -0.90148  -0.78800  -0.78492  -0.70251
  Beta  occ. eigenvalues --   -0.64082  -0.60420  -0.55220  -0.51939  -0.48758
  Beta  occ. eigenvalues --   -0.46097  -0.43326  -0.40591  -0.39313  -0.38704
  Beta  occ. eigenvalues --   -0.37927  -0.35349  -0.34627  -0.32533  -0.31130
  Beta  occ. eigenvalues --   -0.30408  -0.29194  -0.28361  -0.27290  -0.24949
  Beta  occ. eigenvalues --   -0.24656  -0.24021  -0.22696  -0.22445  -0.21529
  Beta  occ. eigenvalues --   -0.20258  -0.19077  -0.13817
  Beta virt. eigenvalues --    0.06873   0.07639   0.08464   0.09041   0.09831
  Beta virt. eigenvalues --    0.09909   0.10108   0.11663   0.11892   0.12324
  Beta virt. eigenvalues --    0.12971   0.13276   0.14267   0.14624   0.15102

 Mulliken charges and spin densities:
               1          2
     1  C    0.206415  -0.946562
     2  C   -0.572647   0.726970
     3  C    1.093470  -1.748454
     4  C   -0.803009   0.517418
     5  S    1.695193  -1.743720
     6  O   -0.231495   0.020988
     7  O   -0.144972   0.001923
     8  C   -1.546878   1.478011
     9  C    1.233492  -1.563954
    10  C    0.441407  -0.816705
    11  N   -0.226473  -0.051073
    12  H   -0.190429   0.329809
    13  H    0.023127   0.134488
    14  H    0.131730   0.023158
    15  H   -0.024984   0.209276
    16  H    0.118499   0.090682
    17  H   -0.460743   0.640779
    18  H   -0.526624   0.778434
    19  H   -0.147570   0.361676
    20  H   -0.824707   1.161271
    21  H   -0.743151   0.936310
    22  H    0.150084   0.018315
    23  H    0.047208   0.121613
    24  H   -0.137329   0.307917
    25  H    0.216282  -0.000315
    26  H    0.224102   0.011744
 Sum of Mulliken charges =  -1.00000   1.00000

 Dipole moment (field-independent basis, Debye):
    X=              2.8824    Y=             -1.6582    Z=             -5.0702  Tot=              6.0634
 Quadrupole moment (field-independent basis, Debye-Ang):
   XX=           -140.6398   YY=           -109.7360   ZZ=           -121.6678
   XY=              3.0731   XZ=             11.7298   YZ=             -8.0194

 Summary of Natural Population Analysis:

                                       Natural Population
                Natural  -----------------------------------------------
    Atom  No    Charge         Core      Valence    Rydberg      Total
 -----------------------------------------------------------------------
      C    1   -0.29296      0.99964     2.28721    0.00610     3.29296
      C    2   -0.01540      0.99962     2.00320    0.01258     3.01540
      C    3   -0.20518      0.99960     2.19388    0.01170     3.20518
      C    4   -0.28800      0.99957     2.27615    0.01228     3.28800
      S    5    1.02657      4.99920     1.88176    0.09246     6.97343
      O    6   -0.48445      0.99991     3.47909    0.00545     4.48445
      O    7   -0.47056      0.99991     3.46524    0.00542     4.47056
      C    8   -0.23065      0.99952     2.21298    0.01814     3.23065
      C    9   -0.19320      0.99961     2.18253    0.01105     3.19320
      C   10   -0.19191      0.99961     2.18193    0.01036     3.19191
      N   11   -0.43142      0.99977     2.92238    0.00927     3.93142
      H   12    0.10019      0.00000     0.39885    0.00096     0.39981
      H   13    0.10061      0.00000     0.39839    0.00101     0.39939
      H   14    0.10247      0.00000     0.39667    0.00085     0.39753
      H   15    0.08607      0.00000     0.41211    0.00182     0.41393
      H   16    0.10620      0.00000     0.39253    0.00127     0.39380
      H   17    0.10907      0.00000     0.38836    0.00257     0.39093
      H   18    0.12359      0.00000     0.37222    0.00419     0.37641
      H   19    0.11496      0.00000     0.38318    0.00187     0.38504
      H   20    0.12702      0.00000     0.36892    0.00406     0.37298
      H   21    0.11368      0.00000     0.38190    0.00441     0.38632
      H   22    0.11011      0.00000     0.38865    0.00125     0.38989
      H   23    0.11330      0.00000     0.38569    0.00101     0.38670
      H   24    0.10938      0.00000     0.38941    0.00121     0.39062
      H   25    0.17516      0.00000     0.32288    0.00196     0.32484
      H   26    0.18536      0.00000     0.31231    0.00233     0.31464
 =======================================================================
   * Total *    0.00000     14.99598    32.77843    0.22560    48.00000

 Normal termination of Gaussian 16 at Tue Dec  8 19:44:40 2020.
