 Gaussian 16, Revision A.03,

 -----------------------------------------------------------
 # opt freq B3LYP/6-31G(d) empiricaldispersion=gd3bj scf=xqc
 -----------------------------------------------------------

 ------------------------------
 CID_87785072_JID_3812_neutraal
 ------------------------------
 Symbolic Z-matrix:
 Charge =  0 Multiplicity = 1

 SCF Done:  E(RB3LYP) =  -542.159315340     A.U. after   14 cycles
 SCF Done:  E(RB3LYP) =  -542.161771074     A.U. after   12 cycles
 SCF Done:  E(RB3LYP) =  -542.162216947     A.U. after   11 cycles
 SCF Done:  E(RB3LYP) =  -542.162541569     A.U. after   11 cycles
 SCF Done:  E(RB3LYP) =  -542.162736293     A.U. after   11 cycles
 SCF Done:  E(RB3LYP) =  -542.162825357     A.U. after   12 cycles
 SCF Done:  E(RB3LYP) =  -542.162868648     A.U. after   11 cycles
 SCF Done:  E(RB3LYP) =  -542.162896050     A.U. after   10 cycles
 SCF Done:  E(RB3LYP) =  -542.162897793     A.U. after    9 cycles
 SCF Done:  E(RB3LYP) =  -542.162898343     A.U. after    8 cycles
 SCF Done:  E(RB3LYP) =  -542.162898567     A.U. after    7 cycles
 SCF Done:  E(RB3LYP) =  -542.162898698     A.U. after    7 cycles
 SCF Done:  E(RB3LYP) =  -542.162898772     A.U. after    7 cycles
 SCF Done:  E(RB3LYP) =  -542.162898794     A.U. after    6 cycles
 Optimization completed.
    -- Stationary point found.
 Normal termination of Gaussian 16 at Sun Dec 13 12:22:16 2020.

 --------------------------------------------------------------------
 #N Geom=AllCheck Guess=TCheck SCRF=Check GenChk RB3LYP/6-31G(d) Freq
 --------------------------------------------------------------------

 Structure from the checkpoint file:  "JID_3812.chk"
 ------------------------------
 CID_87785072_JID_3812_neutraal
 ------------------------------
 Charge =  0 Multiplicity = 1

 SCF Done:  E(RB3LYP) =  -542.162898794     A.U. after    1 cycles

  Exact polarizability: 132.283  -1.486 133.704  19.535 -10.771 103.320
 Approx polarizability: 178.393  -2.515 209.662  42.656 -22.447 169.224

                      1                      2                      3
                      A                      A                      A
 Frequencies --     20.5182                40.6033                46.5697
 Red. masses --      3.7297                 3.4723                 2.5204
 Frc consts  --      0.0009                 0.0034                 0.0032
 IR Inten    --      0.1266                 0.0727                 0.0424

                      4                      5                      6
                      A                      A                      A
 Frequencies --     71.0171               121.9591               177.6212
 Red. masses --      3.0849                 3.4039                 2.0941
 Frc consts  --      0.0092                 0.0298                 0.0389
 IR Inten    --      1.1487                 0.9240                 1.6601

                      7                      8                      9
                      A                      A                      A
 Frequencies --    201.3583               220.0620               234.1262
 Red. masses --      4.1422                 1.0635                 1.5575
 Frc consts  --      0.0990                 0.0303                 0.0503
 IR Inten    --      1.1354                 0.0939                 0.9060

                     10                     11                     12
                      A                      A                      A
 Frequencies --    302.8924               352.1443               354.0410
 Red. masses --      2.2006                 2.2137                 3.5243
 Frc consts  --      0.1190                 0.1617                 0.2603
 IR Inten    --      1.0995                 3.8942                 2.4543

                     13                     14                     15
                      A                      A                      A
 Frequencies --    417.3206               435.9595               465.3195
 Red. masses --      2.9971                 3.3079                 2.9573
 Frc consts  --      0.3075                 0.3704                 0.3773
 IR Inten    --      0.4246                 0.3855                 4.0571

                     16                     17                     18
                      A                      A                      A
 Frequencies --    480.1115               514.0084               540.8394
 Red. masses --      3.3961                 3.0073                 2.9317
 Frc consts  --      0.4612                 0.4681                 0.5053
 IR Inten    --      1.5149                 7.0215                 3.7529

                     19                     20                     21
                      A                      A                      A
 Frequencies --    634.9522               636.9734               713.3786
 Red. masses --      4.5110                 5.7252                 2.2230
 Frc consts  --      1.0715                 1.3686                 0.6665
 IR Inten    --      7.9706                 2.4116                20.1753

                     22                     23                     24
                      A                      A                      A
 Frequencies --    750.6882               766.0290               825.2626
 Red. masses --      1.6246                 1.7326                 3.1617
 Frc consts  --      0.5394                 0.5990                 1.2687
 IR Inten    --     23.8832                17.1904                 1.5838

                     25                     26                     27
                      A                      A                      A
 Frequencies --    831.1624               861.9732               886.0412
 Red. masses --      1.8256                 1.2498                 1.3854
 Frc consts  --      0.7431                 0.5471                 0.6408
 IR Inten    --      3.8481                 0.6568                23.7559

                     28                     29                     30
                      A                      A                      A
 Frequencies --    916.5018               924.4705               969.2198
 Red. masses --      1.6512                 1.6207                 1.3448
 Frc consts  --      0.8172                 0.8161                 0.7443
 IR Inten    --      3.0671                 7.9248                 0.1366

                     31                     32                     33
                      A                      A                      A
 Frequencies --    994.7403               999.8806              1021.6842
 Red. masses --      1.3388                 1.8225                 5.6283
 Frc consts  --      0.7805                 1.0735                 3.4615
 IR Inten    --      1.4961                 5.2614                 2.5377

                     34                     35                     36
                      A                      A                      A
 Frequencies --   1035.4024              1048.9121              1060.0855
 Red. masses --      2.0551                 1.9507                 2.1231
 Frc consts  --      1.2981                 1.2645                 1.4057
 IR Inten    --      3.1346                26.2187                 2.5960

                     37                     38                     39
                      A                      A                      A
 Frequencies --   1074.5318              1084.1997              1101.7301
 Red. masses --      2.2505                 1.5673                 1.7068
 Frc consts  --      1.5310                 1.0855                 1.2206
 IR Inten    --     28.9373                 0.7127                29.2281

                     40                     41                     42
                      A                      A                      A
 Frequencies --   1119.0466              1170.0560              1193.7991
 Red. masses --      1.5641                 2.6073                 1.0996
 Frc consts  --      1.1540                 2.1030                 0.9233
 IR Inten    --      2.5979                68.2605                 0.1247

                     43                     44                     45
                      A                      A                      A
 Frequencies --   1211.1095              1223.8703              1237.3958
 Red. masses --      1.1512                 2.3638                 3.0601
 Frc consts  --      0.9949                 2.0861                 2.7606
 IR Inten    --      7.8430               105.5949                49.6780

                     46                     47                     48
                      A                      A                      A
 Frequencies --   1295.2141              1305.5182              1344.3240
 Red. masses --      1.2342                 1.2612                 1.4208
 Frc consts  --      1.2199                 1.2665                 1.5129
 IR Inten    --     16.0054                27.0130                 8.8570

                     49                     50                     51
                      A                      A                      A
 Frequencies --   1357.0240              1367.5288              1391.7373
 Red. masses --      1.9240                 2.0378                 1.4711
 Frc consts  --      2.0875                 2.2453                 1.6788
 IR Inten    --      6.5844                 0.7134                 2.3196

                     52                     53                     54
                      A                      A                      A
 Frequencies --   1423.6526              1434.6450              1445.0098
 Red. masses --      1.3811                 1.2228                 1.3793
 Frc consts  --      1.6492                 1.4829                 1.6969
 IR Inten    --     15.2372                 0.7446                23.3643

                     55                     56                     57
                      A                      A                      A
 Frequencies --   1503.6274              1509.3560              1515.4571
 Red. masses --      2.0507                 1.0875                 1.0571
 Frc consts  --      2.7317                 1.4597                 1.4304
 IR Inten    --      9.4705                 4.3488                 3.4035

                     58                     59                     60
                      A                      A                      A
 Frequencies --   1521.3206              1526.1509              1534.0841
 Red. masses --      1.0698                 1.0424                 1.1044
 Frc consts  --      1.4588                 1.4304                 1.5314
 IR Inten    --      2.7503                 5.1369                 3.6332

                     61                     62                     63
                      A                      A                      A
 Frequencies --   1539.9345              1548.8054              1648.8387
 Red. masses --      1.0948                 2.0496                 5.5900
 Frc consts  --      1.5297                 2.8968                 8.9541
 IR Inten    --      6.7739                 5.1076                 1.0944

                     64                     65                     66
                      A                      A                      A
 Frequencies --   1669.0974              1766.4320              3026.6848
 Red. masses --      5.5669                 7.1478                 1.0691
 Frc consts  --      9.1375                13.1406                 5.7706
 IR Inten    --      0.5467                51.4772                50.1067

                     67                     68                     69
                      A                      A                      A
 Frequencies --   3034.5141              3044.8502              3048.2286
 Red. masses --      1.0638                 1.0350                 1.0427
 Frc consts  --      5.7715                 5.6535                 5.7080
 IR Inten    --     34.5146                43.1344                27.9236

                     70                     71                     72
                      A                      A                      A
 Frequencies --   3083.6580              3090.9915              3096.4877
 Red. masses --      1.0928                 1.0980                 1.1006
 Frc consts  --      6.1223                 6.1808                 6.2177
 IR Inten    --     11.4997                25.2296                17.4834

                     73                     74                     75
                      A                      A                      A
 Frequencies --   3112.5254              3121.4949              3160.4096
 Red. masses --      1.1018                 1.1032                 1.0941
 Frc consts  --      6.2888                 6.3334                 6.4386
 IR Inten    --     47.0218                45.5042                 9.8689

                     76                     77                     78
                      A                      A                      A
 Frequencies --   3163.7716              3171.7667              3184.9500
 Red. masses --      1.0894                 1.0871                 1.0866
 Frc consts  --      6.4246                 6.4436                 6.4942
 IR Inten    --     26.9267                 9.8746                 0.9483

                     79                     80                     81
                      A                      A                      A
 Frequencies --   3195.5078              3207.8935              3219.4648
 Red. masses --      1.0914                 1.0957                 1.0940
 Frc consts  --      6.5660                 6.6434                 6.6809
 IR Inten    --     26.3299                30.0514                 6.6396

 - Thermochemistry -
 -------------------
 Temperature   298.150 Kelvin.  Pressure   1.00000 Atm.
 Atom     1 has atomic number  6 and mass  12.00000

 Molecular mass:   176.12012 amu.
 Principal axes and moments of inertia in atomic units:
                           1         2         3
     Eigenvalues --  1607.562133421.906694195.62643
           X            0.99962  -0.02747  -0.00317
           Y            0.02737   0.99919  -0.02935
           Z            0.00397   0.02926   0.99956
 This molecule is an asymmetric top.
 Rotational symmetry number  1.
 Warning -- assumption of classical behavior for rotation
           may cause significant error
 Rotational temperatures (Kelvin)      0.05388     0.02531     0.02064
 Rotational constants (GHZ):           1.12266     0.52741     0.43015
 Zero-point vibrational energy     663332.5 (Joules/Mol)
                                  158.54026 (Kcal/Mol)
 Warning -- explicit consideration of  18 degrees of freedom as
           vibrations may cause significant error
 Vibrational temperatures:     29.52    58.42    67.00   102.18   175.47
          (Kelvin)            255.56   289.71   316.62   336.86   435.79
                              506.66   509.39   600.43   627.25   669.49
                              690.77   739.54   778.15   913.55   916.46
                             1026.39  1080.07  1102.14  1187.37  1195.86
                             1240.19  1274.82  1318.64  1330.11  1394.49
                             1431.21  1438.61  1469.98  1489.71  1509.15
                             1525.23  1546.01  1559.92  1585.14  1610.06
                             1683.45  1717.61  1742.52  1760.88  1780.34
                             1863.52  1878.35  1934.18  1952.45  1967.57
                             2002.40  2048.32  2064.13  2079.05  2163.38
                             2171.63  2180.40  2188.84  2195.79  2207.20
                             2215.62  2228.39  2372.31  2401.46  2541.50
                             4354.72  4365.99  4380.86  4385.72  4436.70
                             4447.25  4455.16  4478.23  4491.13  4547.12
                             4551.96  4563.46  4582.43  4597.62  4615.44
                             4632.09

 Zero-point correction=                           0.252650 (Hartree/Particle)
 Thermal correction to Energy=                    0.265835
 Thermal correction to Enthalpy=                  0.266779
 Thermal correction to Gibbs Free Energy=         0.211135
 Sum of electronic and zero-point Energies=           -541.910249
 Sum of electronic and thermal Energies=              -541.897064
 Sum of electronic and thermal Enthalpies=            -541.896120
 Sum of electronic and thermal Free Energies=         -541.951763

                     E (Thermal)             CV                S
                      KCal/Mol        Cal/Mol-Kelvin    Cal/Mol-Kelvin
 Total                  166.814             49.506            117.111
 Electronic               0.000              0.000              0.000
 Translational            0.889              2.981             41.405
 Rotational               0.889              2.981             31.512
 Vibrational            165.036             43.544             44.193
 Vibration     1          0.593              1.986              6.583
 Vibration     2          0.594              1.981              5.229
 Vibration     3          0.595              1.979              4.958
 Vibration     4          0.598              1.968              4.125
 Vibration     5          0.609              1.931              3.069
 Vibration     6          0.628              1.870              2.353
 Vibration     7          0.638              1.838              2.121
 Vibration     8          0.647              1.811              1.959
 Vibration     9          0.654              1.789              1.847
 Vibration    10          0.694              1.668              1.401
 Vibration    11          0.729              1.571              1.157
 Vibration    12          0.730              1.567              1.148
 Vibration    13          0.780              1.433              0.901
 Vibration    14          0.796              1.392              0.839
 Vibration    15          0.823              1.327              0.751
 Vibration    16          0.836              1.294              0.710
 Vibration    17          0.869              1.219              0.624
 Vibration    18          0.896              1.160              0.563

 Optimization completed.
    -- Stationary point found.
 Normal termination of Gaussian 16 at Sun Dec 13 12:29:30 2020.

 ----------------------------------------------------------------------
 # B3LYP/6-311++G(d,p) empiricaldispersion=gd3bj scf=xqc pop=npa geom=c
 heck
 ----------------------------------------------------------------------

 --------------------------------------
 CID_87785072_JID_3812_Energie_neutraal
 --------------------------------------
 Structure from the checkpoint file:  "JID_3812.chk"
 Charge =  0 Multiplicity = 1

 SCF Done:  E(RB3LYP) =  -542.310287649     A.U. after   14 cycles
 Normal termination of Gaussian 16 at Sun Dec 13 12:32:12 2020.

 ----------------------------------------------------------------------
 # B3LYP/6-311++G(d,p) empiricaldispersion=gd3bj scf=xqc pop=npa geom=c
 heck
 ----------------------------------------------------------------------

 ------------------------------------
 CID_87785072_JID_3812_Energie_kation
 ------------------------------------
 Structure from the checkpoint file:  "JID_3812.chk"
 Charge =  1 Multiplicity = 2

 SCF Done:  E(UB3LYP) =  -542.019767447     A.U. after   24 cycles
 Normal termination of Gaussian 16 at Sun Dec 13 12:38:16 2020.
 Gaussian 16:  ES64L-G16RevA.03 25-Dec-2016

 ----------------------------------------------------------------------
 # B3LYP/6-311++G(d,p) empiricaldispersion=gd3bj scf=xqc pop=npa geom=c
 heck
 ----------------------------------------------------------------------

 -----------------------------------
 CID_87785072_JID_3812_Energie_anion
 -----------------------------------
 Structure from the checkpoint file:  "JID_3812.chk"
 Charge = -1 Multiplicity = 2

                         Standard orientation:
 ---------------------------------------------------------------------
 Center     Atomic      Atomic             Coordinates (Angstroms)
 Number     Number       Type             X           Y           Z
 ---------------------------------------------------------------------
      1          6           0       -2.868668    2.267126    0.305771
      2          6           0       -3.305956    0.793578    0.242041
      3          6           0       -2.326234   -0.045871   -0.526445
      4          6           0       -1.499528   -0.981976   -0.046213
      5          6           0       -1.367055   -1.422796    1.383263
      6          8           0       -0.722521   -1.663672   -0.973681
      7          6           0        0.634064   -1.926799   -0.614493
      8          6           0        1.432705   -0.678647   -0.311575
      9          6           0        2.377154   -0.670991    0.718761
     10          6           0        3.128386    0.474551    0.986541
     11          6           0        2.928394    1.630441    0.232039
     12          6           0        1.978648    1.633083   -0.792297
     13          6           0        1.237103    0.485222   -1.064165
     14          1           0       -1.904327    2.360219    0.816933
     15          1           0       -3.605702    2.878801    0.839148
     16          1           0       -2.749837    2.683919   -0.701292
     17          1           0       -3.441518    0.412563    1.260009
     18          1           0       -4.293141    0.735949   -0.238691
     19          1           0       -2.261522    0.148110   -1.596156
     20          1           0       -1.460925   -2.513126    1.460577
     21          1           0       -0.391740   -1.142648    1.799611
     22          1           0       -2.135768   -0.968605    2.010154
     23          1           0        0.690923   -2.624085    0.232412
     24          1           0        1.041127   -2.445199   -1.489136
     25          1           0        2.525148   -1.567965    1.316476
     26          1           0        3.860835    0.466008    1.789007
     27          1           0        3.505472    2.526362    0.443194
     28          1           0        1.815201    2.532629   -1.379416
     29          1           0        0.491860    0.484917   -1.852741
 ---------------------------------------------------------------------

 SCF Done:  E(UB3LYP) =  -542.294750675     A.U. after   33 cycles
 SCF Done:  E(UB3LYP) =  -542.294750675     a.u. after    1 cycles

 The electronic state is 2-A.
 Alpha  occ. eigenvalues --  -19.04162 -10.12966 -10.12384 -10.08436 -10.07689
 Alpha  occ. eigenvalues --  -10.07614 -10.07589 -10.07532 -10.07488 -10.07432
 Alpha  occ. eigenvalues --  -10.06973 -10.06088 -10.05756  -0.95591  -0.76124
 Alpha  occ. eigenvalues --   -0.70884  -0.67405  -0.65140  -0.64841  -0.60478
 Alpha  occ. eigenvalues --   -0.57583  -0.51907  -0.51042  -0.48874  -0.43945
 Alpha  occ. eigenvalues --   -0.41779  -0.40347  -0.38082  -0.37023  -0.35462
 Alpha  occ. eigenvalues --   -0.34684  -0.33697  -0.32722  -0.32280  -0.31497
 Alpha  occ. eigenvalues --   -0.30225  -0.28400  -0.28144  -0.27158  -0.26605
 Alpha  occ. eigenvalues --   -0.25261  -0.24817  -0.24275  -0.23161  -0.20323
 Alpha  occ. eigenvalues --   -0.15874  -0.15266  -0.12427   0.04468
 Alpha virt. eigenvalues --    0.06480   0.06771   0.07348   0.08067   0.08127
 Alpha virt. eigenvalues --    0.08427   0.08909   0.09452   0.10023   0.10333
 Alpha virt. eigenvalues --    0.11341   0.11938   0.12273   0.12471   0.12877

  Beta  occ. eigenvalues --  -19.04160 -10.12951 -10.12374 -10.08438 -10.07673
  Beta  occ. eigenvalues --  -10.07596 -10.07569 -10.07511 -10.07477 -10.07417
  Beta  occ. eigenvalues --  -10.06940 -10.06060 -10.05753  -0.95583  -0.76093
  Beta  occ. eigenvalues --   -0.70858  -0.67376  -0.65100  -0.64797  -0.60434
  Beta  occ. eigenvalues --   -0.57544  -0.51857  -0.50984  -0.48833  -0.43909
  Beta  occ. eigenvalues --   -0.41722  -0.40317  -0.38057  -0.36978  -0.35427
  Beta  occ. eigenvalues --   -0.34642  -0.33670  -0.32686  -0.32239  -0.31459
  Beta  occ. eigenvalues --   -0.30193  -0.28370  -0.28105  -0.27118  -0.26571
  Beta  occ. eigenvalues --   -0.25231  -0.24779  -0.24247  -0.23133  -0.20307
  Beta  occ. eigenvalues --   -0.15824  -0.15244  -0.12404
  Beta virt. eigenvalues --    0.06578   0.07245   0.07506   0.07707   0.08206
  Beta virt. eigenvalues --    0.08545   0.09100   0.09218   0.09859   0.10371
  Beta virt. eigenvalues --    0.10718   0.11811   0.12147   0.12583   0.12820

 Mulliken charges and spin densities:
               1          2
     1  C    0.660164  -1.224753
     2  C   -1.311872   1.013183
     3  C    0.349604   0.013187
     4  C   -0.517329   0.270410
     5  C    1.245076  -1.900374
     6  O   -0.065320   0.011061
     7  C    1.168723  -1.559908
     8  C    0.004290   0.701483
     9  C   -0.677305   0.154414
    10  C    0.681185  -1.016495
    11  C    1.719361  -2.055318
    12  C   -0.678633   0.316765
    13  C   -0.780301   0.949131
    14  H    0.169512  -0.030738
    15  H   -0.291209   0.417575
    16  H   -0.171911   0.301314
    17  H   -0.140269   0.288245
    18  H   -0.044547   0.162950
    19  H    0.006618   0.189080
    20  H   -0.127994   0.297395
    21  H   -0.043376   0.232309
    22  H   -0.000789   0.114656
    23  H   -0.138931   0.319853
    24  H    0.016866   0.167896
    25  H   -0.733601   0.903408
    26  H   -0.799981   0.986044
    27  H   -0.264714   0.419188
    28  H   -0.425790   0.602499
    29  H    0.192473  -0.044458
 Sum of Mulliken charges =  -1.00000   1.00000

 Dipole moment (field-independent basis, Debye):
    X=             -2.3615    Y=             -1.6007    Z=             -3.5575  Tot=              4.5602
 Quadrupole moment (field-independent basis, Debye-Ang):
   XX=           -150.7624   YY=           -127.8461   ZZ=           -117.1907
   XY=              3.0665   XZ=             -8.4453   YZ=              4.3482

 Summary of Natural Population Analysis:

                                       Natural Population
                Natural  -----------------------------------------------
    Atom  No    Charge         Core      Valence    Rydberg      Total
 -----------------------------------------------------------------------
      C    1   -0.27931      0.99966     2.27539    0.00426     3.27931
      C    2   -0.20186      0.99963     2.19409    0.00813     3.20186
      C    3   -0.12521      0.99945     2.11652    0.00924     3.12521
      C    4    0.16057      0.99937     1.82545    0.01460     2.83943
      C    5   -0.31886      0.99961     2.31372    0.00553     3.31886
      O    6   -0.29199      0.99987     3.28273    0.00939     4.29199
      C    7   -0.01602      0.99951     2.00330    0.01320     3.01602
      C    8   -0.03925      0.99950     2.02927    0.01048     3.03925
      C    9   -0.09870      0.99951     2.08809    0.01111     3.09870
      C   10   -0.09667      0.99956     2.08634    0.01077     3.09667
      C   11   -0.10166      0.99956     2.09204    0.01007     3.10166
      C   12   -0.09774      0.99956     2.08746    0.01071     3.09774
      C   13   -0.09599      0.99951     2.08660    0.00988     3.09599
      H   14    0.10020      0.00000     0.39835    0.00145     0.39980
      H   15    0.09521      0.00000     0.40335    0.00144     0.40479
      H   16    0.09492      0.00000     0.40350    0.00158     0.40508
      H   17    0.09646      0.00000     0.40222    0.00132     0.40354
      H   18    0.09540      0.00000     0.40341    0.00118     0.40460
      H   19    0.09768      0.00000     0.40102    0.00131     0.40232
      H   20    0.10450      0.00000     0.39437    0.00113     0.39550
      H   21    0.11139      0.00000     0.38684    0.00176     0.38861
      H   22    0.10787      0.00000     0.39113    0.00100     0.39213
      H   23    0.08843      0.00000     0.40985    0.00173     0.41157
      H   24    0.09606      0.00000     0.40277    0.00117     0.40394
      H   25    0.10343      0.00000     0.39396    0.00261     0.39657
      H   26    0.10350      0.00000     0.39420    0.00229     0.39650
      H   27    0.10174      0.00000     0.39686    0.00140     0.39826
      H   28    0.10084      0.00000     0.39817    0.00099     0.39916
      H   29    0.10507      0.00000     0.39303    0.00190     0.39493
 =======================================================================
   * Total *    0.00000     12.99430    34.85405    0.15165    48.00000

 Normal termination of Gaussian 16 at Sun Dec 13 12:46:39 2020.
