 Gaussian 16, Revision A.03,

 -----------------------------------------------------------
 # opt freq B3LYP/6-31G(d) empiricaldispersion=gd3bj scf=xqc
 -----------------------------------------------------------

 -----------------------------
 CID_18412079_JID_459_neutraal
 -----------------------------
 Symbolic Z-matrix:
 Charge =  0 Multiplicity = 1

 SCF Done:  E(RB3LYP) =  -494.601210911     A.U. after   15 cycles
 SCF Done:  E(RB3LYP) =  -494.608392465     A.U. after   12 cycles
 SCF Done:  E(RB3LYP) =  -494.609163163     A.U. after   13 cycles
 SCF Done:  E(RB3LYP) =  -494.609131723     A.U. after   12 cycles
 SCF Done:  E(RB3LYP) =  -494.609916283     A.U. after   11 cycles
 SCF Done:  E(RB3LYP) =  -494.609950529     A.U. after   10 cycles
 SCF Done:  E(RB3LYP) =  -494.609956970     A.U. after   10 cycles
 SCF Done:  E(RB3LYP) =  -494.609958835     A.U. after    8 cycles
 SCF Done:  E(RB3LYP) =  -494.609959259     A.U. after    8 cycles
 SCF Done:  E(RB3LYP) =  -494.609959435     A.U. after    8 cycles
 SCF Done:  E(RB3LYP) =  -494.609959493     A.U. after    7 cycles
 Optimization completed.
    -- Stationary point found.
 Normal termination of Gaussian 16 at Tue Dec  8 10:37:34 2020.

 --------------------------------------------------------------------
 #N Geom=AllCheck Guess=TCheck SCRF=Check GenChk RB3LYP/6-31G(d) Freq
 --------------------------------------------------------------------

 Structure from the checkpoint file:  "JID_459.chk"
 -----------------------------
 CID_18412079_JID_459_neutraal
 -----------------------------
 Charge =  0 Multiplicity = 1

 SCF Done:  E(RB3LYP) =  -494.609959493     A.U. after    1 cycles

  Exact polarizability:  98.176   0.700  85.658  -0.435  -0.307  49.569
 Approx polarizability: 117.480  10.886 144.508  -2.387  -6.153  74.732

                      1                      2                      3
                      A                      A                      A
 Frequencies --     42.5007                99.4191               135.1151
 Red. masses --      4.7837                 3.1056                 1.1456
 Frc consts  --      0.0051                 0.0181                 0.0123
 IR Inten    --      1.0635                 0.6591                 0.0386

                      4                      5                      6
                      A                      A                      A
 Frequencies --    148.4094               172.9783               223.1842
 Red. masses --      3.9430                 3.2659                 2.4200
 Frc consts  --      0.0512                 0.0576                 0.0710
 IR Inten    --      2.4196                 1.1780                 6.1786

                      7                      8                      9
                      A                      A                      A
 Frequencies --    315.1659               326.7158               427.1523
 Red. masses --      3.9794                 6.5467                 3.0336
 Frc consts  --      0.2329                 0.4117                 0.3261
 IR Inten    --     19.0065                 2.0436                15.7335

                     10                     11                     12
                      A                      A                      A
 Frequencies --    450.3589               456.2749               547.8015
 Red. masses --      2.4449                 4.0684                 3.8280
 Frc consts  --      0.2922                 0.4990                 0.6768
 IR Inten    --      6.4280                23.5645                 2.4432

                     13                     14                     15
                      A                      A                      A
 Frequencies --    577.4595               642.7061               672.1760
 Red. masses --      1.6895                 3.6622                 1.6404
 Frc consts  --      0.3319                 0.8913                 0.4367
 IR Inten    --    297.4415                 5.5724                27.0407

                     16                     17                     18
                      A                      A                      A
 Frequencies --    708.6830               780.4535               838.5947
 Red. masses --      1.4587                 5.2991                 3.1357
 Frc consts  --      0.4316                 1.9017                 1.2993
 IR Inten    --     28.3078                19.6834                 2.6627

                     19                     20                     21
                      A                      A                      A
 Frequencies --    857.4151               939.3444               968.3331
 Red. masses --      1.1670                 3.9686                 3.1352
 Frc consts  --      0.5055                 2.0632                 1.7321
 IR Inten    --      0.5643                11.0648                22.1904

                     22                     23                     24
                      A                      A                      A
 Frequencies --   1015.8600              1042.5974              1062.6970
 Red. masses --      3.2308                 3.0995                 2.9424
 Frc consts  --      1.9644                 1.9851                 1.9578
 IR Inten    --      8.9095                25.6948                15.9769

                     25                     26                     27
                      A                      A                      A
 Frequencies --   1107.3348              1142.5547              1179.8697
 Red. masses --      2.4121                 2.0602                 2.2231
 Frc consts  --      1.7426                 1.5846                 1.8234
 IR Inten    --     14.3911                23.6372                37.9105

                     28                     29                     30
                      A                      A                      A
 Frequencies --   1186.4627              1220.2508              1244.3459
 Red. masses --      1.2759                 1.4820                 1.1570
 Frc consts  --      1.0582                 1.3002                 1.0556
 IR Inten    --      1.0951                 2.5931                15.8444

                     31                     32                     33
                      A                      A                      A
 Frequencies --   1266.1702              1284.7707              1309.9585
 Red. masses --      2.4464                 1.3486                 1.4007
 Frc consts  --      2.3108                 1.3116                 1.4161
 IR Inten    --    378.1295                 2.5767                15.9453

                     34                     35                     36
                      A                      A                      A
 Frequencies --   1380.0220              1385.3773              1438.8149
 Red. masses --      1.5717                 1.6020                 1.4583
 Frc consts  --      1.7636                 1.8115                 1.7787
 IR Inten    --      4.2100               113.1151                13.7247

                     37                     38                     39
                      A                      A                      A
 Frequencies --   1484.4712              1491.6562              1495.9363
 Red. masses --      1.5497                 1.3392                 1.3679
 Frc consts  --      2.0120                 1.7557                 1.8036
 IR Inten    --     31.2530                 6.8389                23.7732

                     40                     41                     42
                      A                      A                      A
 Frequencies --   1512.7468              1524.5081              1534.9809
 Red. masses --      1.0478                 1.0475                 1.0992
 Frc consts  --      1.4128                 1.4344                 1.5259
 IR Inten    --      6.4508                 8.5983                 3.3147

                     43                     44                     45
                      A                      A                      A
 Frequencies --   1755.6765              1827.9605              2940.9210
 Red. masses --      5.5824                11.5244                 1.0796
 Frc consts  --     10.1381                22.6884                 5.5013
 IR Inten    --     31.5370               204.0824                38.2921

                     46                     47                     48
                      A                      A                      A
 Frequencies --   3003.5985              3078.3951              3125.0085
 Red. masses --      1.0722                 1.0294                 1.0924
 Frc consts  --      5.6990                 5.7477                 6.2853
 IR Inten    --     61.2515                31.5724                23.3772

                     49                     50                     51
                      A                      A                      A
 Frequencies --   3154.1734              3186.3247              3224.2245
 Red. masses --      1.1076                 1.1074                 1.0867
 Frc consts  --      6.4925                 6.6242                 6.6560
 IR Inten    --     19.6394                15.7040                 0.2916

                     52                     53                     54
                      A                      A                      A
 Frequencies --   3243.5493              3548.1666              3589.1186
 Red. masses --      1.0993                 1.0755                 1.0760
 Frc consts  --      6.8138                 7.9776                 8.1668
 IR Inten    --     23.4300                 1.5945                16.5194

 - Thermochemistry -
 -------------------
 Temperature   298.150 Kelvin.  Pressure   1.00000 Atm.
 Atom     1 has atomic number  6 and mass  12.00000

 Molecular mass:   142.07423 amu.
 Principal axes and moments of inertia in atomic units:
                           1         2         3
     Eigenvalues --   561.330022179.549262674.67640
           X            0.99993  -0.01181  -0.00001
           Y            0.01181   0.99980   0.01624
           Z           -0.00018  -0.01624   0.99987
 This molecule is an asymmetric top.
 Rotational symmetry number  1.
 Warning -- assumption of classical behavior for rotation
           may cause significant error
 Rotational temperatures (Kelvin)      0.15430     0.03974     0.03238
 Rotational constants (GHZ):           3.21512     0.82803     0.67475
 Zero-point vibrational energy     438543.5 (Joules/Mol)
                                  104.81441 (Kcal/Mol)
 Warning -- explicit consideration of  13 degrees of freedom as
           vibrations may cause significant error
 Vibrational temperatures:     61.15   143.04   194.40   213.53   248.88
          (Kelvin)            321.11   453.45   470.07   614.58   647.97
                              656.48   788.16   830.84   924.71   967.11
                             1019.64  1122.90  1206.55  1233.63  1351.51
                             1393.22  1461.60  1500.07  1528.98  1593.21
                             1643.88  1697.57  1707.06  1755.67  1790.34
                             1821.74  1848.50  1884.74  1985.54  1993.25
                             2070.13  2135.82  2146.16  2152.32  2176.51
                             2193.43  2208.50  2526.03  2630.03  4231.33
                             4321.51  4429.12  4496.19  4538.15  4584.41
                             4638.94  4666.74  5105.02  5163.94

 Zero-point correction=                           0.167032 (Hartree/Particle)
 Thermal correction to Energy=                    0.176826
 Thermal correction to Enthalpy=                  0.177770
 Thermal correction to Gibbs Free Energy=         0.131458
 Sum of electronic and zero-point Energies=           -494.442927
 Sum of electronic and thermal Energies=              -494.433134
 Sum of electronic and thermal Enthalpies=            -494.432190
 Sum of electronic and thermal Free Energies=         -494.478502

                     E (Thermal)             CV                S
                      KCal/Mol        Cal/Mol-Kelvin    Cal/Mol-Kelvin
 Total                  110.960             35.941             97.472
 Electronic               0.000              0.000              0.000
 Translational            0.889              2.981             40.765
 Rotational               0.889              2.981             29.571
 Vibrational            109.182             29.979             27.136
 Vibration     1          0.595              1.980              5.139
 Vibration     2          0.604              1.950              3.466
 Vibration     3          0.613              1.918              2.872
 Vibration     4          0.618              1.904              2.693
 Vibration     5          0.626              1.876              2.403
 Vibration     6          0.649              1.806              1.933
 Vibration     7          0.703              1.645              1.335
 Vibration     8          0.710              1.622              1.276
 Vibration     9          0.789              1.411              0.868
 Vibration    10          0.809              1.360              0.795
 Vibration    11          0.815              1.347              0.777
 Vibration    12          0.903              1.144              0.549
 Vibration    13          0.934              1.080              0.490

 Optimization completed.
    -- Stationary point found.
 Normal termination of Gaussian 16 at Tue Dec  8 10:41:29 2020.

 ----------------------------------------------------------------------
 # B3LYP/6-311++G(d,p) empiricaldispersion=gd3bj scf=xqc pop=npa geom=c
 heck
 ----------------------------------------------------------------------

 -------------------------------------
 CID_18412079_JID_459_Energie_neutraal
 -------------------------------------
 Structure from the checkpoint file:  "JID_459.chk"
 Charge =  0 Multiplicity = 1

 SCF Done:  E(RB3LYP) =  -494.763864316     A.U. after   14 cycles
 Normal termination of Gaussian 16 at Tue Dec  8 10:44:31 2020.

 ----------------------------------------------------------------------
 # B3LYP/6-311++G(d,p) empiricaldispersion=gd3bj scf=xqc pop=npa geom=c
 heck
 ----------------------------------------------------------------------

 -----------------------------------
 CID_18412079_JID_459_Energie_kation
 -----------------------------------
 Structure from the checkpoint file:  "JID_459.chk"
 Charge =  1 Multiplicity = 2

 SCF Done:  E(UB3LYP) =  -494.508815354     A.U. after   19 cycles
 Normal termination of Gaussian 16 at Tue Dec  8 10:47:57 2020.
 Gaussian 16:  ES64L-G16RevA.03 25-Dec-2016

 ----------------------------------------------------------------------
 # B3LYP/6-311++G(d,p) empiricaldispersion=gd3bj scf=xqc pop=npa geom=c
 heck
 ----------------------------------------------------------------------

 ----------------------------------
 CID_18412079_JID_459_Energie_anion
 ----------------------------------
 Structure from the checkpoint file:  "JID_459.chk"
 Charge = -1 Multiplicity = 2

                         Standard orientation:
 ---------------------------------------------------------------------
 Center     Atomic      Atomic             Coordinates (Angstroms)
 Number     Number       Type             X           Y           Z
 ---------------------------------------------------------------------
      1          6           0        3.431755   -0.554284   -0.067873
      2          8           0        2.017212   -0.740525    0.108536
      3          6           0        1.282392    0.389126    0.078564
      4          8           0        1.750942    1.494028   -0.087550
      5          6           0       -0.188063    0.119495    0.350026
      6          6           0       -0.724309   -1.178693   -0.279072
      7          7           0       -2.111762   -1.346572    0.148725
      8          6           0       -2.903938   -0.178486    0.027423
      9          6           0       -2.361405    1.045311   -0.070770
     10          7           0       -0.967496    1.234619   -0.154002
     11          1           0        3.866028   -1.552690   -0.017486
     12          1           0        3.834028    0.083183    0.723602
     13          1           0        3.637046   -0.091095   -1.036101
     14          1           0       -0.281874    0.000510    1.446269
     15          1           0       -0.616470   -1.098080   -1.372157
     16          1           0       -0.132955   -2.029766    0.066250
     17          1           0       -2.542566   -2.156292   -0.284172
     18          1           0       -3.976631   -0.322919    0.069584
     19          1           0       -2.972569    1.937879   -0.125204
     20          1           0       -0.623049    2.130104    0.168681
 ---------------------------------------------------------------------

 SCF Done:  E(UB3LYP) =  -494.748844283     A.U. after   29 cycles

 The electronic state is 2-A.
 Alpha  occ. eigenvalues --  -19.07284 -19.01666 -14.21065 -14.20688 -10.20340
 Alpha  occ. eigenvalues --  -10.12143 -10.11799 -10.09657 -10.07976 -10.07713
 Alpha  occ. eigenvalues --   -1.01326  -0.92645  -0.84691  -0.79025  -0.68246
 Alpha  occ. eigenvalues --   -0.62856  -0.58206  -0.55156  -0.47799  -0.44793
 Alpha  occ. eigenvalues --   -0.43465  -0.40536  -0.38707  -0.38105  -0.37699
 Alpha  occ. eigenvalues --   -0.35881  -0.33768  -0.31865  -0.30844  -0.28681
 Alpha  occ. eigenvalues --   -0.27277  -0.26726  -0.25562  -0.22527  -0.21339
 Alpha  occ. eigenvalues --   -0.18664  -0.16977  -0.07009   0.04585
 Alpha virt. eigenvalues --    0.06366   0.07749   0.08582   0.09280   0.09590
 Alpha virt. eigenvalues --    0.09843   0.11008   0.11478   0.12145   0.12809
 Alpha virt. eigenvalues --    0.14298   0.14825   0.15732   0.16685   0.17459

  Beta  occ. eigenvalues --  -19.07273 -19.01651 -14.21055 -14.20659 -10.20324
  Beta  occ. eigenvalues --  -10.12086 -10.11791 -10.09636 -10.07967 -10.07696
  Beta  occ. eigenvalues --   -1.01300  -0.92618  -0.84660  -0.78982  -0.68204
  Beta  occ. eigenvalues --   -0.62787  -0.58141  -0.55103  -0.47732  -0.44746
  Beta  occ. eigenvalues --   -0.43415  -0.40485  -0.38659  -0.38053  -0.37650
  Beta  occ. eigenvalues --   -0.35846  -0.33724  -0.31814  -0.30796  -0.28633
  Beta  occ. eigenvalues --   -0.27235  -0.26679  -0.25521  -0.22492  -0.21297
  Beta  occ. eigenvalues --   -0.18645  -0.16949  -0.06983
  Beta virt. eigenvalues --    0.06965   0.07674   0.08622   0.09022   0.09800
  Beta virt. eigenvalues --    0.10180   0.10719   0.11500   0.11967   0.12683
  Beta virt. eigenvalues --    0.13185   0.14408   0.15140   0.15699   0.16716

 Mulliken charges and spin densities:
               1          2
     1  C    1.326141  -1.539670
     2  O   -0.189980   0.120330
     3  C    0.248775  -0.187632
     4  O   -0.309347   0.029745
     5  C   -0.313110  -0.238167
     6  C    0.966589  -1.367228
     7  N   -0.196121   0.112800
     8  C    0.153805  -0.416374
     9  C    0.187463  -0.306528
    10  N   -0.126409   0.098478
    11  H   -0.679053   0.841701
    12  H   -0.401921   0.574888
    13  H   -0.317647   0.499592
    14  H   -0.112886   0.362764
    15  H   -0.199713   0.388842
    16  H    0.052511   0.140631
    17  H   -0.308129   0.568158
    18  H   -0.686754   0.838498
    19  H   -0.223211   0.355038
    20  H    0.128998   0.124136
 Sum of Mulliken charges =  -1.00000   1.00000

 Dipole moment (field-independent basis, Debye):
    X=             -0.8114    Y=              3.1105    Z=              0.6513  Tot=              3.2799
 Quadrupole moment (field-independent basis, Debye-Ang):
   XX=           -136.0157   YY=            -96.9641   ZZ=            -85.4552
   XY=             -0.8598   XZ=             -0.8494   YZ=              0.8115

 Summary of Natural Population Analysis:

                                       Natural Population
                Natural  -----------------------------------------------
    Atom  No    Charge         Core      Valence    Rydberg      Total
 -----------------------------------------------------------------------
      C    1   -0.10342      0.99959     2.09465    0.00917     3.10342
      O    2   -0.27613      0.99986     3.26666    0.00960     4.27613
      C    3    0.41645      0.99966     1.55966    0.02423     2.58355
      O    4   -0.30674      0.99987     3.30087    0.00600     4.30674
      C    5   -0.05567      0.99955     2.04346    0.01266     3.05567
      C    6   -0.08648      0.99960     2.07519    0.01169     3.08648
      N    7   -0.33049      0.99972     2.81704    0.01372     3.83049
      C    8   -0.03840      0.99953     2.02406    0.01481     3.03840
      C    9   -0.04022      0.99953     2.02875    0.01193     3.04022
      N   10   -0.32934      0.99970     2.81769    0.01195     3.82934
      H   11    0.09590      0.00000     0.40132    0.00278     0.40410
      H   12    0.09160      0.00000     0.40670    0.00170     0.40840
      H   13    0.09257      0.00000     0.40572    0.00171     0.40743
      H   14    0.10204      0.00000     0.39641    0.00156     0.39796
      H   15    0.08850      0.00000     0.40974    0.00176     0.41150
      H   16    0.10627      0.00000     0.39171    0.00202     0.39373
      H   17    0.18641      0.00000     0.30728    0.00631     0.31359
      H   18    0.09926      0.00000     0.39911    0.00163     0.40074
      H   19    0.09734      0.00000     0.40172    0.00094     0.40266
      H   20    0.19053      0.00000     0.30680    0.00266     0.30947
 =======================================================================
   * Total *    0.00000      9.99662    27.85454    0.14884    38.00000

 Normal termination of Gaussian 16 at Tue Dec  8 10:51:15 2020.
