 Gaussian 16, Revision A.03,

 -----------------------------------------------------------
 # opt freq B3LYP/6-31G(d) empiricaldispersion=gd3bj scf=xqc
 -----------------------------------------------------------

 -------------------------------
 CID_150337940_JID_2197_neutraal
 -------------------------------
 Symbolic Z-matrix:
 Charge =  0 Multiplicity = 1

 SCF Done:  E(RB3LYP) =  -533.456420160     A.U. after   15 cycles
 SCF Done:  E(RB3LYP) =  -533.458488403     A.U. after   13 cycles
 SCF Done:  E(RB3LYP) =  -533.460240116     A.U. after   13 cycles
 SCF Done:  E(RB3LYP) =  -533.460281713     A.U. after   12 cycles
 SCF Done:  E(RB3LYP) =  -533.460646678     A.U. after   12 cycles
 SCF Done:  E(RB3LYP) =  -533.460649422     A.U. after   12 cycles
 SCF Done:  E(RB3LYP) =  -533.460701760     A.U. after   11 cycles
 SCF Done:  E(RB3LYP) =  -533.460712205     A.U. after    9 cycles
 SCF Done:  E(RB3LYP) =  -533.460713788     A.U. after    8 cycles
 SCF Done:  E(RB3LYP) =  -533.460714235     A.U. after    8 cycles
 SCF Done:  E(RB3LYP) =  -533.460714685     A.U. after    8 cycles
 SCF Done:  E(RB3LYP) =  -533.460714856     A.U. after    8 cycles
 SCF Done:  E(RB3LYP) =  -533.460714969     A.U. after    8 cycles
 SCF Done:  E(RB3LYP) =  -533.460715132     A.U. after    8 cycles
 SCF Done:  E(RB3LYP) =  -533.460715213     A.U. after    7 cycles
 Optimization completed.
    -- Stationary point found.

 1\1\GINC-NODE201\FOpt\RB3LYP\6-31G(d)\C8H16N4\VSC10255\09-Dec-2020\0\\
 # opt freq B3LYP/6-31G(d) empiricaldispersion=gd3bj scf=xqc\\CID_15033
 7940_JID_2197_neutraal\\0,1\C,0.8939188195,-0.1053397058,-0.0669161952
 \C,0.9361039329,0.7359335944,-1.3497914557\C,1.137338584,0.0512718132,
 -2.7196437614\C,2.5791946743,-0.4526316033,-2.9854777251\N,3.221884891
 4,-1.3921606118,-2.0811562076\C,2.623071201,-2.697401656,-1.7833818827
 \C,1.4905167958,-3.1341612526,-2.7149456535\C,0.1589435384,-2.39666196
 16,-2.5088674674\C,0.0921539837,-1.0037139337,-3.1483513284\N,-1.28558

 Normal termination of Gaussian 16 at Wed Dec  9 16:55:59 2020.

 --------------------------------------------------------------------
 #N Geom=AllCheck Guess=TCheck SCRF=Check GenChk RB3LYP/6-31G(d) Freq
 --------------------------------------------------------------------

 Structure from the checkpoint file:  "JID_2197.chk"
 -------------------------------
 CID_150337940_JID_2197_neutraal
 -------------------------------
 Charge =  0 Multiplicity = 1

 SCF Done:  E(RB3LYP) =  -533.460715213     A.U. after    1 cycles

  Exact polarizability: 117.002  -4.238  97.898 -10.690   0.507 101.430
 Approx polarizability: 170.746  -8.200 135.495 -39.181   9.219 185.450

                      1                      2                      3
                      A                      A                      A
 Frequencies --     47.9644                65.4955               100.5488
 Red. masses --      4.7056                 2.2550                 4.7727
 Frc consts  --      0.0064                 0.0057                 0.0284
 IR Inten    --      0.1471                 0.8126                 2.1490

                      4                      5                      6
                      A                      A                      A
 Frequencies --    139.9643               173.8246               207.0580
 Red. masses --      2.4065                 4.2724                 3.4164
 Frc consts  --      0.0278                 0.0761                 0.0863
 IR Inten    --      0.2314                 1.3667                 1.8858

                      7                      8                      9
                      A                      A                      A
 Frequencies --    224.7651               252.4264               293.4878
 Red. masses --      1.9796                 1.5742                 2.9039
 Frc consts  --      0.0589                 0.0591                 0.1474
 IR Inten    --      0.8011                 4.8172                 5.0875

                     10                     11                     12
                      A                      A                      A
 Frequencies --    315.8456               319.5980               349.8906
 Red. masses --      2.1128                 3.8036                 2.8624
 Frc consts  --      0.1242                 0.2289                 0.2065
 IR Inten    --      1.3651                 1.3623                 2.3534

                     13                     14                     15
                      A                      A                      A
 Frequencies --    371.4918               425.4350               496.3268
 Red. masses --      3.4329                 2.1873                 2.3076
 Frc consts  --      0.2791                 0.2333                 0.3349
 IR Inten    --      1.0242                10.1159                11.1197

                     16                     17                     18
                      A                      A                      A
 Frequencies --    540.7447               572.9347               640.1356
 Red. masses --      2.7755                13.3682                 1.5141
 Frc consts  --      0.4782                 2.5854                 0.3656
 IR Inten    --     14.7399                10.9299               105.0000

                     19                     20                     21
                      A                      A                      A
 Frequencies --    683.1723               737.3105               743.7970
 Red. masses --      3.0105                 3.0831                 2.4797
 Frc consts  --      0.8278                 0.9875                 0.8083
 IR Inten    --     12.0463                 5.2707                12.0512

                     22                     23                     24
                      A                      A                      A
 Frequencies --    792.1436               811.7511               871.0469
 Red. masses --      1.7659                 1.8847                 2.8300
 Frc consts  --      0.6529                 0.7317                 1.2651
 IR Inten    --      0.5304                 4.9904                 0.8776

                     25                     26                     27
                      A                      A                      A
 Frequencies --    890.3640               911.7381               937.6491
 Red. masses --      2.1006                 2.4084                 1.8988
 Frc consts  --      0.9811                 1.1796                 0.9836
 IR Inten    --      2.7192                17.2921                 3.4653

                     28                     29                     30
                      A                      A                      A
 Frequencies --    983.1921               985.4256              1027.8579
 Red. masses --      2.4442                 2.5769                 2.0397
 Frc consts  --      1.3921                 1.4744                 1.2696
 IR Inten    --      8.8072                21.5769                 0.6474

                     31                     32                     33
                      A                      A                      A
 Frequencies --   1056.0523              1085.4993              1095.1992
 Red. masses --      1.7300                 1.6621                 1.9537
 Frc consts  --      1.1368                 1.1539                 1.3807
 IR Inten    --      5.0857                 4.3391                 1.3686

                     34                     35                     36
                      A                      A                      A
 Frequencies --   1114.5507              1156.9592              1211.3424
 Red. masses --      1.8225                 2.1678                 1.9972
 Frc consts  --      1.3339                 1.7097                 1.7266
 IR Inten    --      1.4856                 2.1971                 0.7859

                     37                     38                     39
                      A                      A                      A
 Frequencies --   1212.6400              1226.0088              1283.6943
 Red. masses --      2.3245                 1.6340                 1.3473
 Frc consts  --      2.0140                 1.4470                 1.3081
 IR Inten    --     38.9425                22.0655                12.0421

                     40                     41                     42
                      A                      A                      A
 Frequencies --   1302.2454              1309.0124              1322.0438
 Red. masses --      1.7395                 1.2465                 1.3284
 Frc consts  --      1.7380                 1.2585                 1.3679
 IR Inten    --     40.9921                22.3441                26.8942

                     43                     44                     45
                      A                      A                      A
 Frequencies --   1331.5021              1346.1668              1381.0703
 Red. masses --      1.1292                 1.4460                 1.4023
 Frc consts  --      1.1795                 1.5439                 1.5759
 IR Inten    --      2.7398                16.1521                10.9139

                     46                     47                     48
                      A                      A                      A
 Frequencies --   1387.2253              1398.1961              1406.5683
 Red. masses --      1.3884                 1.3540                 1.4399
 Frc consts  --      1.5742                 1.5596                 1.6784
 IR Inten    --      2.0165                 9.2659                 1.9213

                     49                     50                     51
                      A                      A                      A
 Frequencies --   1414.4130              1431.4249              1432.9328
 Red. masses --      1.3874                 1.3838                 1.3325
 Frc consts  --      1.6354                 1.6706                 1.6120
 IR Inten    --      5.9057                 4.5538                11.8502

                     52                     53                     54
                      A                      A                      A
 Frequencies --   1442.3459              1450.1782              1503.7918
 Red. masses --      1.3256                 1.2775                 1.0923
 Frc consts  --      1.6248                 1.5829                 1.4553
 IR Inten    --      4.0262                 8.2736                 4.3696

                     55                     56                     57
                      A                      A                      A
 Frequencies --   1518.7196              1520.9226              1527.1802
 Red. masses --      1.0736                 1.0892                 1.0780
 Frc consts  --      1.4590                 1.4844                 1.4814
 IR Inten    --      0.9513                10.4847                 5.3838

                     58                     59                     60
                      A                      A                      A
 Frequencies --   1532.8509              1535.8506              1541.5976
 Red. masses --      1.0964                 1.2012                 1.0627
 Frc consts  --      1.5178                 1.6695                 1.4880
 IR Inten    --      6.7792                 8.1434                 5.1591

                     61                     62                     63
                      A                      A                      A
 Frequencies --   1560.6438              2249.1251              2984.4550
 Red. masses --      1.0788                13.8705                 1.0692
 Frc consts  --      1.5481                41.3398                 5.6110
 IR Inten    --      3.1649               464.3100                56.5894

                     64                     65                     66
                      A                      A                      A
 Frequencies --   3005.6308              3016.9578              3027.5008
 Red. masses --      1.0807                 1.0913                 1.0653
 Frc consts  --      5.7519                 5.8525                 5.7531
 IR Inten    --     11.9257                59.6091                18.7995

                     67                     68                     69
                      A                      A                      A
 Frequencies --   3032.4855              3048.9955              3055.4774
 Red. masses --      1.0708                 1.0648                 1.0647
 Frc consts  --      5.8017                 5.8321                 5.8562
 IR Inten    --     50.2233                42.2394                19.2233

                     70                     71                     72
                      A                      A                      A
 Frequencies --   3061.9999              3069.2051              3071.7274
 Red. masses --      1.0839                 1.0438                 1.0949
 Frc consts  --      5.9874                 5.7932                 6.0866
 IR Inten    --     36.8015                13.0459                20.1004

                     73                     74                     75
                      A                      A                      A
 Frequencies --   3073.8939              3083.6628              3103.5410
 Red. masses --      1.0990                 1.1013                 1.0993
 Frc consts  --      6.1184                 6.1701                 6.2387
 IR Inten    --     55.5940                24.3404                59.5796

                     76                     77                     78
                      A                      A                      A
 Frequencies --   3130.8103              3156.0615              3562.5690
 Red. masses --      1.0940                 1.1011                 1.0748
 Frc consts  --      6.3180                 6.4623                 8.0375
 IR Inten    --     30.7229                30.8510                 0.0918

 - Thermochemistry -
 -------------------
 Temperature   298.150 Kelvin.  Pressure   1.00000 Atm.
 Atom     1 has atomic number  6 and mass  12.00000

 Molecular mass:   168.13750 amu.
 Principal axes and moments of inertia in atomic units:
                           1         2         3
     Eigenvalues --  1286.018682473.657782807.91122
           X            0.99971  -0.02379   0.00390
           Y            0.02378   0.99971   0.00384
           Z           -0.00399  -0.00375   0.99998
 This molecule is an asymmetric top.
 Rotational symmetry number  1.
 Warning -- assumption of classical behavior for rotation
           may cause significant error
 Rotational temperatures (Kelvin)      0.06735     0.03501     0.03085
 Rotational constants (GHZ):           1.40336     0.72958     0.64273
 Zero-point vibrational energy     656069.8 (Joules/Mol)
                                  156.80446 (Kcal/Mol)
 Warning -- explicit consideration of  17 degrees of freedom as
           vibrations may cause significant error
 Vibrational temperatures:     69.01    94.23   144.67   201.38   250.09
          (Kelvin)            297.91   323.39   363.19   422.26   454.43
                              459.83   503.41   534.49   612.11   714.10
                              778.01   824.33   921.01   982.93  1060.83
                             1070.16  1139.72  1167.93  1253.24  1281.04
                             1311.79  1349.07  1414.59  1417.81  1478.86
                             1519.42  1561.79  1575.75  1603.59  1664.61
                             1742.85  1744.72  1763.95  1846.95  1873.64
                             1883.38  1902.13  1915.73  1936.83  1987.05
                             1995.91  2011.69  2023.74  2035.02  2059.50
                             2061.67  2075.21  2086.48  2163.62  2185.10
                             2188.27  2197.27  2205.43  2209.75  2218.02
                             2245.42  3235.99  4293.97  4324.43  4340.73
                             4355.90  4363.07  4386.82  4396.15  4405.53
                             4415.90  4419.53  4422.65  4436.70  4465.30
                             4504.54  4540.87  5125.74

 Zero-point correction=                           0.249884 (Hartree/Particle)
 Thermal correction to Energy=                    0.261988
 Thermal correction to Enthalpy=                  0.262932
 Thermal correction to Gibbs Free Energy=         0.211804
 Sum of electronic and zero-point Energies=           -533.210831
 Sum of electronic and thermal Energies=              -533.198727
 Sum of electronic and thermal Enthalpies=            -533.197783
 Sum of electronic and thermal Free Energies=         -533.248911

                     E (Thermal)             CV                S
                      KCal/Mol        Cal/Mol-Kelvin    Cal/Mol-Kelvin
 Total                  164.400             46.050            107.609
 Electronic               0.000              0.000              0.000
 Translational            0.889              2.981             41.267
 Rotational               0.889              2.981             30.569
 Vibrational            162.623             40.088             35.773
 Vibration     1          0.595              1.978              4.900
 Vibration     2          0.597              1.971              4.284
 Vibration     3          0.604              1.949              3.444
 Vibration     4          0.615              1.913              2.804
 Vibration     5          0.627              1.875              2.394
 Vibration     6          0.641              1.830              2.069
 Vibration     7          0.649              1.803              1.920
 Vibration     8          0.664              1.759              1.714
 Vibration     9          0.688              1.686              1.454
 Vibration    10          0.703              1.643              1.332
 Vibration    11          0.706              1.636              1.312
 Vibration    12          0.727              1.575              1.167
 Vibration    13          0.743              1.531              1.074
 Vibration    14          0.787              1.415              0.874
 Vibration    15          0.852              1.258              0.667
 Vibration    16          0.896              1.160              0.564
 Vibration    17          0.929              1.090              0.499

                           ! Non-Optimized Parameters !

 1\1\GINC-NODE201\Freq\RB3LYP\6-31G(d)\C8H16N4\VSC10255\09-Dec-2020\0\\
 #N Geom=AllCheck Guess=TCheck SCRF=Check GenChk RB3LYP/6-31G(d) Freq\\
 CID_150337940_JID_2197_neutraal\\0,1\C,0.8939188195,-0.1053397058,-0.0
 669161952\C,0.9361039329,0.7359335944,-1.3497914557\C,1.137338584,0.05
 12718132,-2.7196437614\C,2.5791946743,-0.4526316033,-2.9854777251\N,3.
 2218848914,-1.3921606118,-2.0811562076\C,2.623071201,-2.697401656,-1.7
 833818827\C,1.4905167958,-3.1341612526,-2.7149456535\C,0.1589435384,-2
 .3966619616,-2.5088674674\C,0.0921539837,-1.0037139337,-3.1483513284\N

 Normal termination of Gaussian 16 at Wed Dec  9 17:03:25 2020.

 ----------------------------------------------------------------------
 # B3LYP/6-311++G(d,p) empiricaldispersion=gd3bj scf=xqc pop=npa geom=c
 heck
 ----------------------------------------------------------------------

 ---------------------------------------
 CID_150337940_JID_2197_Energie_neutraal
 ---------------------------------------
 Structure from the checkpoint file:  "JID_2197.chk"
 Charge =  0 Multiplicity = 1

 SCF Done:  E(RB3LYP) =  -533.610107340     A.U. after   15 cycles
 Normal termination of Gaussian 16 at Wed Dec  9 17:06:58 2020.

 ----------------------------------------------------------------------
 # B3LYP/6-311++G(d,p) empiricaldispersion=gd3bj scf=xqc pop=npa geom=c
 heck
 ----------------------------------------------------------------------

 -------------------------------------
 CID_150337940_JID_2197_Energie_kation
 -------------------------------------
 Structure from the checkpoint file:  "JID_2197.chk"
 Charge =  1 Multiplicity = 2

 SCF Done:  E(UB3LYP) =  -533.314752189     A.U. after   25 cycles
 Normal termination of Gaussian 16 at Wed Dec  9 17:15:51 2020.
 Gaussian 16:  ES64L-G16RevA.03 25-Dec-2016

 ------------------------------------
 CID_150337940_JID_2197_Energie_anion
 ------------------------------------
 Structure from the checkpoint file:  "JID_2197.chk"
 Charge = -1 Multiplicity = 2

                         Standard orientation:
 ---------------------------------------------------------------------
 Center     Atomic      Atomic             Coordinates (Angstroms)
 Number     Number       Type             X           Y           Z
 ---------------------------------------------------------------------
      1          6           0       -0.321842    1.720092    1.376040
      2          6           0       -0.419423    1.858228   -0.149307
      3          6           0        0.130560    0.742977   -1.065541
      4          6           0        1.677142    0.683461   -1.155407
      5          7           0        2.490141    0.521254    0.038865
      6          6           0        2.313697   -0.627808    0.932972
      7          6           0        1.483101   -1.783084    0.370213
      8          6           0       -0.028305   -1.519784    0.294141
      9          6           0       -0.471531   -0.671549   -0.904922
     10          7           0       -1.959138   -0.623701   -1.030061
     11          7           0       -2.605041   -0.421646   -0.001326
     12          7           0       -3.319076   -0.249329    0.876583
     13          1           0       -0.946030    0.909763    1.760897
     14          1           0       -0.674621    2.643148    1.849504
     15          1           0        0.701318    1.545454    1.716766
     16          1           0       -1.472822    2.017683   -0.409649
     17          1           0        0.094993    2.783140   -0.446436
     18          1           0       -0.183607    1.044758   -2.075922
     19          1           0        1.941217   -0.107744   -1.870569
     20          1           0        2.012588    1.619615   -1.617840
     21          1           0        2.522669    1.384141    0.567930
     22          1           0        1.843743   -0.323426    1.882429
     23          1           0        3.307381   -1.018704    1.196224
     24          1           0        1.641949   -2.639383    1.036634
     25          1           0        1.868917   -2.091889   -0.609982
     26          1           0       -0.357671   -1.065974    1.235176
     27          1           0       -0.553150   -2.479501    0.211988
     28          1           0       -0.175476   -1.222332   -1.804715
 ---------------------------------------------------------------------

 SCF Done:  E(UB3LYP) =  -533.599918446     A.U. after   33 cycles
 SCF Done:  E(UB3LYP) =  -533.599918446     a.u. after    1 cycles

 The electronic state is 2-A.
 Alpha  occ. eigenvalues --  -14.34358 -14.24261 -14.23076 -14.18582 -10.10286
 Alpha  occ. eigenvalues --  -10.08760 -10.08202 -10.06622 -10.06401 -10.06317
 Alpha  occ. eigenvalues --  -10.06026 -10.05510  -1.00891  -0.85199  -0.79657
 Alpha  occ. eigenvalues --   -0.70511  -0.68155  -0.63973  -0.58492  -0.57023
 Alpha  occ. eigenvalues --   -0.51832  -0.47614  -0.44924  -0.41791  -0.40481
 Alpha  occ. eigenvalues --   -0.38300  -0.37066  -0.36894  -0.34424  -0.33725
 Alpha  occ. eigenvalues --   -0.32772  -0.31178  -0.30939  -0.30306  -0.29041
 Alpha  occ. eigenvalues --   -0.27823  -0.26227  -0.25219  -0.24775  -0.23190
 Alpha  occ. eigenvalues --   -0.22634  -0.21114  -0.20990  -0.17233  -0.13236
 Alpha  occ. eigenvalues --   -0.10627   0.04648
 Alpha virt. eigenvalues --    0.07009   0.07138   0.08255   0.09057   0.09884
 Alpha virt. eigenvalues --    0.10039   0.10369   0.11432   0.11946   0.12312
 Alpha virt. eigenvalues --    0.13013   0.13659   0.13847   0.14237   0.14720

  Beta  occ. eigenvalues --  -14.34168 -14.24005 -14.23124 -14.18573 -10.10221
  Beta  occ. eigenvalues --  -10.08747 -10.08172 -10.06598 -10.06391 -10.06312
  Beta  occ. eigenvalues --  -10.06004 -10.05500  -1.00521  -0.85019  -0.79626
  Beta  occ. eigenvalues --   -0.70432  -0.68115  -0.63918  -0.58398  -0.56960
  Beta  occ. eigenvalues --   -0.51773  -0.47525  -0.44831  -0.41695  -0.40162
  Beta  occ. eigenvalues --   -0.37984  -0.36864  -0.36772  -0.34327  -0.33553
  Beta  occ. eigenvalues --   -0.32330  -0.31119  -0.30850  -0.30216  -0.28987
  Beta  occ. eigenvalues --   -0.27763  -0.26152  -0.25164  -0.24705  -0.23138
  Beta  occ. eigenvalues --   -0.22597  -0.21049  -0.20932  -0.16824  -0.13170
  Beta  occ. eigenvalues --   -0.10599
  Beta virt. eigenvalues --    0.07080   0.08006   0.08097   0.09250   0.09760
  Beta virt. eigenvalues --    0.10401   0.10534   0.10790   0.11757   0.12204
  Beta virt. eigenvalues --    0.12591   0.13364   0.14034   0.14295   0.14440

 Mulliken charges and spin densities:
               1          2
     1  C   -0.002171  -0.486351
     2  C   -0.634503   0.107506
     3  C   -0.888148   1.621269
     4  C    1.637532  -2.433065
     5  N   -0.321039   0.179266
     6  C    0.489584  -0.777572
     7  C    0.040623  -0.565117
     8  C   -1.158767   1.074943
     9  C    1.914614  -2.564645
    10  N   -1.007484   0.664449
    11  N    0.888707  -0.207839
    12  N   -0.116637  -0.122376
    13  H    0.139243  -0.003726
    14  H    0.045369   0.091243
    15  H   -0.069062   0.182915
    16  H   -0.060799   0.208518
    17  H   -0.262787   0.431927
    18  H   -0.319482   0.560735
    19  H   -0.017325   0.167529
    20  H   -0.415162   0.601098
    21  H   -0.016514   0.253427
    22  H    0.065404   0.043858
    23  H   -0.104329   0.268288
    24  H   -0.492377   0.674443
    25  H   -0.001950   0.152377
    26  H    0.069862   0.036633
    27  H   -0.092068   0.276534
    28  H   -0.310335   0.563733
 Sum of Mulliken charges =  -1.00000   1.00000

 Dipole moment (field-independent basis, Debye):
    X=             -0.4909    Y=             -0.0406    Z=              2.4918  Tot=              2.5400
 Quadrupole moment (field-independent basis, Debye-Ang):
   XX=           -128.3043   YY=           -115.9108   ZZ=           -108.5284
   XY=             -1.6403   XZ=              1.7831   YZ=              4.0618

 Summary of Natural Population Analysis:

                                       Natural Population
                Natural  -----------------------------------------------
    Atom  No    Charge         Core      Valence    Rydberg      Total
 -----------------------------------------------------------------------
      C    1   -0.28716      0.99965     2.28201    0.00550     3.28716
      C    2   -0.19599      0.99961     2.18585    0.01053     3.19599
      C    3   -0.12206      0.99954     2.10930    0.01321     3.12206
      C    4   -0.08660      0.99959     2.07349    0.01352     3.08660
      N    5   -0.34659      0.99974     2.83465    0.01219     3.84659
      C    6   -0.08227      0.99961     2.07191    0.01076     3.08227
      C    7   -0.19543      0.99962     2.18765    0.00816     3.19543
      C    8   -0.20142      0.99959     2.19209    0.00974     3.20142
      C    9   -0.00605      0.99951     1.99228    0.01426     3.00605
      N   10   -0.19319      0.99970     2.67881    0.01468     3.69319
      N   11    0.12840      0.99969     2.35624    0.01567     3.37160
      N   12   -0.04063      0.99982     2.52794    0.01287     3.54063
      H   13    0.09801      0.00000     0.40077    0.00122     0.40199
      H   14    0.09714      0.00000     0.40211    0.00075     0.40286
      H   15    0.09266      0.00000     0.40608    0.00126     0.40734
      H   16    0.10012      0.00000     0.39869    0.00119     0.39988
      H   17    0.09845      0.00000     0.39994    0.00161     0.40155
      H   18    0.10633      0.00000     0.39113    0.00255     0.39367
      H   19    0.09067      0.00000     0.40780    0.00153     0.40933
      H   20    0.10071      0.00000     0.39748    0.00180     0.39929
      H   21    0.17466      0.00000     0.32234    0.00301     0.32534
      H   22    0.08013      0.00000     0.41832    0.00155     0.41987
      H   23    0.08838      0.00000     0.41020    0.00141     0.41162
      H   24    0.10359      0.00000     0.39500    0.00141     0.39641
      H   25    0.09828      0.00000     0.40031    0.00141     0.40172
      H   26    0.09714      0.00000     0.40121    0.00165     0.40286
      H   27    0.10366      0.00000     0.39507    0.00127     0.39634
      H   28    0.09907      0.00000     0.39867    0.00226     0.40093
 =======================================================================
   * Total *    0.00000     11.99567    33.83734    0.16698    46.00000

 Normal termination of Gaussian 16 at Wed Dec  9 17:26:25 2020.
