 Gaussian 16, Revision A.03,

 -----------------------------------------------------------
 # opt freq B3LYP/6-31G(d) empiricaldispersion=gd3bj scf=xqc
 -----------------------------------------------------------

 -------------------------------
 CID_112247271_JID_8723_neutraal
 -------------------------------
 Symbolic Z-matrix:
 Charge =  0 Multiplicity = 1

 SCF Done:  E(RB3LYP) =  -826.623850084     A.U. after   15 cycles
 SCF Done:  E(RB3LYP) =  -826.624297760     A.U. after   13 cycles
 SCF Done:  E(RB3LYP) =  -826.627690543     A.U. after   12 cycles
 SCF Done:  E(RB3LYP) =  -826.627788778     A.U. after   13 cycles
 SCF Done:  E(RB3LYP) =  -826.629366656     A.U. after   12 cycles
 SCF Done:  E(RB3LYP) =  -826.628826594     A.U. after   12 cycles
 SCF Done:  E(RB3LYP) =  -826.629719988     A.U. after   12 cycles
 SCF Done:  E(RB3LYP) =  -826.629935061     A.U. after   11 cycles
 SCF Done:  E(RB3LYP) =  -826.630007072     A.U. after   12 cycles
 SCF Done:  E(RB3LYP) =  -826.630078621     A.U. after   11 cycles
 SCF Done:  E(RB3LYP) =  -826.630118770     A.U. after    8 cycles
 SCF Done:  E(RB3LYP) =  -826.630119120     A.U. after    8 cycles
 SCF Done:  E(RB3LYP) =  -826.630119405     A.U. after    8 cycles
 SCF Done:  E(RB3LYP) =  -826.630119493     A.U. after    7 cycles
 SCF Done:  E(RB3LYP) =  -826.630119543     A.U. after    7 cycles
 Optimization completed.
    -- Stationary point found.
 Normal termination of Gaussian 16 at Fri Dec 11 22:24:11 2020.

 --------------------------------------------------------------------
 #N Geom=AllCheck Guess=TCheck SCRF=Check GenChk RB3LYP/6-31G(d) Freq
 --------------------------------------------------------------------

 Structure from the checkpoint file:  "JID_8723.chk"
 -------------------------------
 CID_112247271_JID_8723_neutraal
 -------------------------------
 Charge =  0 Multiplicity = 1

 SCF Done:  E(RB3LYP) =  -826.630119543     A.U. after    1 cycles

  Exact polarizability: 182.832   9.923 148.916  -8.432  23.228 141.379
 Approx polarizability: 265.783  28.095 222.901 -11.313  45.411 227.073

                      1                      2                      3
                      A                      A                      A
 Frequencies --     30.3567                40.3211                54.5860
 Red. masses --      3.5959                 3.4694                 4.2956
 Frc consts  --      0.0020                 0.0033                 0.0075
 IR Inten    --      0.5928                 1.2746                 2.9296

                      4                      5                      6
                      A                      A                      A
 Frequencies --     65.1180                68.3285                81.0924
 Red. masses --      4.6944                 4.4170                 5.2917
 Frc consts  --      0.0117                 0.0122                 0.0205
 IR Inten    --      0.4407                 1.3376                 1.7030

                      7                      8                      9
                      A                      A                      A
 Frequencies --     83.3313                98.7021               165.1851
 Red. masses --      3.1695                 3.7309                 3.5884
 Frc consts  --      0.0130                 0.0214                 0.0577
 IR Inten    --      1.3518                 1.6480                 3.8561

                     10                     11                     12
                      A                      A                      A
 Frequencies --    180.4550               195.5989               207.0956
 Red. masses --      2.5317                 2.5600                 2.7053
 Frc consts  --      0.0486                 0.0577                 0.0684
 IR Inten    --      6.4002                 0.6995                 5.6670

                     13                     14                     15
                      A                      A                      A
 Frequencies --    222.0395               236.4456               259.4455
 Red. masses --      3.9420                 1.1347                 1.5066
 Frc consts  --      0.1145                 0.0374                 0.0598
 IR Inten    --      4.4714                 0.4425                 4.3080

                     16                     17                     18
                      A                      A                      A
 Frequencies --    298.7333               301.7606               317.7412
 Red. masses --      1.7606                 1.8302                 1.6164
 Frc consts  --      0.0926                 0.0982                 0.0961
 IR Inten    --     44.8948                11.7689                51.1367

                     19                     20                     21
                      A                      A                      A
 Frequencies --    343.5912               353.1171               406.9520
 Red. masses --      2.6367                 5.7532                 3.4336
 Frc consts  --      0.1834                 0.4227                 0.3350
 IR Inten    --     13.6648                 2.3642                 3.0897

                     22                     23                     24
                      A                      A                      A
 Frequencies --    427.6077               438.8152               448.6887
 Red. masses --      3.4117                 3.4200                 2.0907
 Frc consts  --      0.3676                 0.3880                 0.2480
 IR Inten    --      8.6754                 3.0968                 1.8746

                     25                     26                     27
                      A                      A                      A
 Frequencies --    469.5054               516.2841               552.1143
 Red. masses --      3.5617                 5.2567                 2.6943
 Frc consts  --      0.4626                 0.8255                 0.4839
 IR Inten    --      1.6986                 2.5601                 0.5930

                     28                     29                     30
                      A                      A                      A
 Frequencies --    573.0802               582.8010               629.2825
 Red. masses --      4.2592                 3.3377                 2.8604
 Frc consts  --      0.8241                 0.6679                 0.6674
 IR Inten    --      7.7693                31.2507                15.5674

                     31                     32                     33
                      A                      A                      A
 Frequencies --    692.5451               715.1508               728.5487
 Red. masses --      2.3430                 2.8704                 2.5521
 Frc consts  --      0.6621                 0.8649                 0.7981
 IR Inten    --     35.7068                10.6568                10.5223

                     34                     35                     36
                      A                      A                      A
 Frequencies --    760.3069               774.5355               817.1303
 Red. masses --      1.5882                 2.8530                 1.1947
 Frc consts  --      0.5409                 1.0084                 0.4700
 IR Inten    --     30.1462                53.0362                 0.3242

                     37                     38                     39
                      A                      A                      A
 Frequencies --    819.0415               842.3990               861.0603
 Red. masses --      1.8578                 2.5117                 2.8692
 Frc consts  --      0.7343                 1.0502                 1.2533
 IR Inten    --     10.1695                 3.5723                 4.2469

                     40                     41                     42
                      A                      A                      A
 Frequencies --    904.3819               918.1790               928.8981
 Red. masses --      1.7995                 1.4523                 1.4651
 Frc consts  --      0.8672                 0.7214                 0.7448
 IR Inten    --      8.5889                 1.5710                24.6371

                     43                     44                     45
                      A                      A                      A
 Frequencies --    934.5923               948.0004               975.3924
 Red. masses --      2.1983                 1.7901                 1.8328
 Frc consts  --      1.1313                 0.9479                 1.0274
 IR Inten    --      4.9632                12.3112                 9.4297

                     46                     47                     48
                      A                      A                      A
 Frequencies --    980.6452              1021.9212              1025.0252
 Red. masses --      1.2922                 5.5437                 1.5662
 Frc consts  --      0.7321                 3.4110                 0.9695
 IR Inten    --      0.7377                 2.8761                26.9328

                     49                     50                     51
                      A                      A                      A
 Frequencies --   1045.0382              1068.1621              1093.5411
 Red. masses --      2.5107                 3.4985                 2.8735
 Frc consts  --      1.6155                 2.3519                 2.0245
 IR Inten    --     20.8520                50.3437                38.9937

                     52                     53                     54
                      A                      A                      A
 Frequencies --   1116.3983              1120.8735              1123.7183
 Red. masses --      1.7063                 1.9915                 1.7104
 Frc consts  --      1.2530                 1.4742                 1.2725
 IR Inten    --      3.8626                49.3189                16.5982

                     55                     56                     57
                      A                      A                      A
 Frequencies --   1134.7264              1145.9557              1183.0837
 Red. masses --      2.2393                 1.8716                 1.9860
 Frc consts  --      1.6988                 1.4481                 1.6378
 IR Inten    --     14.4583                 5.9567                 9.8801

                     58                     59                     60
                      A                      A                      A
 Frequencies --   1199.2847              1204.0046              1218.2595
 Red. masses --      1.1335                 1.6809                 1.4644
 Frc consts  --      0.9606                 1.4356                 1.2806
 IR Inten    --      6.0883                 2.2020                19.7000

                     61                     62                     63
                      A                      A                      A
 Frequencies --   1240.2803              1268.2114              1309.0993
 Red. masses --      1.4296                 3.1403                 1.4117
 Frc consts  --      1.2957                 2.9758                 1.4254
 IR Inten    --     29.1204               181.8900                30.0326

                     64                     65                     66
                      A                      A                      A
 Frequencies --   1314.4902              1339.1753              1343.7753
 Red. masses --      1.4280                 1.2080                 1.2429
 Frc consts  --      1.4538                 1.2764                 1.3223
 IR Inten    --      2.7774                38.0284                 1.1356

                     67                     68                     69
                      A                      A                      A
 Frequencies --   1366.5471              1376.1487              1392.0067
 Red. masses --      3.8425                 1.4739                 2.5545
 Frc consts  --      4.2278                 1.6446                 2.9163
 IR Inten    --      2.1219                61.9225               193.0348

                     70                     71                     72
                      A                      A                      A
 Frequencies --   1402.8052              1411.1647              1413.7059
 Red. masses --      1.5552                 1.2742                 1.2481
 Frc consts  --      1.8031                 1.4951                 1.4696
 IR Inten    --     19.3877                11.9984                10.5214

                     73                     74                     75
                      A                      A                      A
 Frequencies --   1419.7523              1437.5507              1441.1684
 Red. masses --      1.3124                 1.3021                 1.2542
 Frc consts  --      1.5586                 1.5854                 1.5347
 IR Inten    --     16.1501                18.8770                 5.1223

                     76                     77                     78
                      A                      A                      A
 Frequencies --   1445.9648              1478.4768              1490.7055
 Red. masses --      1.2773                 3.3524                 1.3951
 Frc consts  --      1.5735                 4.3175                 1.8266
 IR Inten    --     31.1882                27.7494                39.0010

                     79                     80                     81
                      A                      A                      A
 Frequencies --   1509.4839              1516.0868              1517.5497
 Red. masses --      1.0890                 1.0487                 1.0838
 Frc consts  --      1.4619                 1.4202                 1.4705
 IR Inten    --     12.2717                 9.8042                 1.4944

                     82                     83                     84
                      A                      A                      A
 Frequencies --   1524.1020              1528.5345              1532.8796
 Red. masses --      1.0564                 1.1689                 1.1009
 Frc consts  --      1.4458                 1.6091                 1.5241
 IR Inten    --      4.0378                 9.1090                 0.5115

                     85                     86                     87
                      A                      A                      A
 Frequencies --   1535.9556              1539.6438              1548.0571
 Red. masses --      1.8660                 1.1102                 1.1291
 Frc consts  --      2.5937                 1.5506                 1.5942
 IR Inten    --     25.9264                 0.1600                 8.6368

                     88                     89                     90
                      A                      A                      A
 Frequencies --   1639.4040              1664.0383              1763.8272
 Red. masses --      5.7834                 6.1191                 8.1453
 Frc consts  --      9.1581                 9.9831                14.9304
 IR Inten    --     71.8268                29.1936               315.6694

                     91                     92                     93
                      A                      A                      A
 Frequencies --   3032.1950              3048.2878              3050.0763
 Red. masses --      1.0596                 1.0425                 1.0607
 Frc consts  --      5.7400                 5.7075                 5.8140
 IR Inten    --     22.7626                32.2482                10.2106

                     94                     95                     96
                      A                      A                      A
 Frequencies --   3054.5625              3055.7052              3067.5928
 Red. masses --      1.0605                 1.0415                 1.0973
 Frc consts  --      5.8296                 5.7297                 6.0836
 IR Inten    --     25.7814                21.9865                27.2326

                     97                     98                     99
                      A                      A                      A
 Frequencies --   3077.2671              3091.9635              3109.5459
 Red. masses --      1.0649                 1.0961                 1.0967
 Frc consts  --      5.9416                 6.1743                 6.2477
 IR Inten    --      6.3575                41.0280                12.8055

                    100                    101                    102
                      A                      A                      A
 Frequencies --   3116.7292              3122.5931              3124.1313
 Red. masses --      1.0986                 1.1069                 1.1023
 Frc consts  --      6.2876                 6.3591                 6.3388
 IR Inten    --     16.1112                34.1372                32.4748

                    103                    104                    105
                      A                      A                      A
 Frequencies --   3134.2252              3140.9004              3141.0771
 Red. masses --      1.1028                 1.1024                 1.0874
 Frc consts  --      6.3828                 6.4077                 6.3214
 IR Inten    --     25.6954                34.7024                31.8494

                    106                    107                    108
                      A                      A                      A
 Frequencies --   3195.6837              3216.4767              3218.2767
 Red. masses --      1.0876                 1.0923                 1.0907
 Frc consts  --      6.5438                 6.6584                 6.6561
 IR Inten    --     10.4508                11.5355                 2.6465

                    109                    110                    111
                      A                      A                      A
 Frequencies --   3228.7497              3548.2738              3756.3476
 Red. masses --      1.0937                 1.0744                 1.0662
 Frc consts  --      6.7174                 7.9700                 8.8641
 IR Inten    --      3.8812                14.5654                 4.2028

 - Thermochemistry -
 -------------------
 Temperature   298.150 Kelvin.  Pressure   1.00000 Atm.
 Atom     1 has atomic number  6 and mass  12.00000

 Molecular mass:   251.15214 amu.
 Principal axes and moments of inertia in atomic units:
                           1         2         3
     Eigenvalues --  3737.580675310.186846387.04127
           X            0.99987  -0.01288  -0.01020
           Y            0.01344   0.99831   0.05656
           Z            0.00945  -0.05668   0.99835
 This molecule is an asymmetric top.
 Rotational symmetry number  1.
 Warning -- assumption of classical behavior for rotation
           may cause significant error
 Rotational temperatures (Kelvin)      0.02317     0.01631     0.01356
 Rotational constants (GHZ):           0.48286     0.33986     0.28256
 Zero-point vibrational energy     886374.4 (Joules/Mol)
                                  211.84857 (Kcal/Mol)
 Warning -- explicit consideration of  29 degrees of freedom as
           vibrations may cause significant error
 Vibrational temperatures:     43.68    58.01    78.54    93.69    98.31
          (Kelvin)            116.67   119.90   142.01   237.66   259.63
                              281.42   297.96   319.47   340.19   373.28
                              429.81   434.17   457.16   494.35   508.06
                              585.51   615.23   631.36   645.56   675.51
                              742.82   794.37   824.53   838.52   905.40
                              996.42  1028.94  1048.22  1093.91  1114.38
                             1175.67  1178.42  1212.02  1238.87  1301.20
                             1321.05  1336.48  1344.67  1363.96  1403.37
                             1410.93  1470.32  1474.78  1503.58  1536.85
                             1573.36  1606.25  1612.69  1616.78  1632.62
                             1648.77  1702.19  1725.50  1732.29  1752.80
                             1784.49  1824.67  1883.50  1891.26  1926.77
                             1933.39  1966.16  1979.97  2002.79  2018.32
                             2030.35  2034.01  2042.71  2068.31  2073.52
                             2080.42  2127.20  2144.79  2171.81  2181.31
                             2183.42  2192.84  2199.22  2205.47  2209.90
                             2215.20  2227.31  2358.74  2394.18  2537.75
                             4362.65  4385.81  4388.38  4394.83  4396.48
                             4413.58  4427.50  4448.65  4473.94  4484.28
                             4492.72  4494.93  4509.45  4519.06  4519.31
                             4597.88  4627.79  4630.38  4645.45  5105.17
                             5404.55

 Zero-point correction=                           0.337602 (Hartree/Particle)
 Thermal correction to Energy=                    0.356555
 Thermal correction to Enthalpy=                  0.357500
 Thermal correction to Gibbs Free Energy=         0.289592
 Sum of electronic and zero-point Energies=           -826.292517
 Sum of electronic and thermal Energies=              -826.273564
 Sum of electronic and thermal Enthalpies=            -826.272620
 Sum of electronic and thermal Free Energies=         -826.340527

                     E (Thermal)             CV                S
                      KCal/Mol        Cal/Mol-Kelvin    Cal/Mol-Kelvin
 Total                  223.742             70.904            142.923
 Electronic               0.000              0.000              0.000
 Translational            0.889              2.981             42.463
 Rotational               0.889              2.981             33.205
 Vibrational            221.964             64.942             67.256
 Vibration     1          0.594              1.984              5.806
 Vibration     2          0.594              1.981              5.243
 Vibration     3          0.596              1.976              4.644
 Vibration     4          0.597              1.971              4.296
 Vibration     5          0.598              1.969              4.201
 Vibration     6          0.600              1.962              3.864
 Vibration     7          0.600              1.961              3.811
 Vibration     8          0.604              1.950              3.480
 Vibration     9          0.624              1.885              2.490
 Vibration    10          0.629              1.866              2.324
 Vibration    11          0.636              1.846              2.174
 Vibration    12          0.641              1.830              2.069
 Vibration    13          0.648              1.808              1.942
 Vibration    14          0.655              1.785              1.829
 Vibration    15          0.668              1.747              1.665
 Vibration    16          0.692              1.676              1.424
 Vibration    17          0.694              1.670              1.407
 Vibration    18          0.704              1.640              1.322
 Vibration    19          0.722              1.588              1.195
 Vibration    20          0.729              1.569              1.152
 Vibration    21          0.772              1.455              0.937
 Vibration    22          0.789              1.410              0.867
 Vibration    23          0.799              1.386              0.830
 Vibration    24          0.808              1.364              0.800
 Vibration    25          0.827              1.318              0.739
 Vibration    26          0.871              1.214              0.619
 Vibration    27          0.907              1.135              0.540
 Vibration    28          0.929              1.089              0.498
 Vibration    29          0.940              1.069              0.480

                           ! Non-Optimized Parameters !
 Normal termination of Gaussian 16 at Fri Dec 11 22:46:30 2020.

 ----------------------------------------------------------------------
 # B3LYP/6-311++G(d,p) empiricaldispersion=gd3bj scf=xqc pop=npa geom=c
 heck
 ----------------------------------------------------------------------

 ---------------------------------------
 CID_112247271_JID_8723_Energie_neutraal
 ---------------------------------------
 Structure from the checkpoint file:  "JID_8723.chk"
 Charge =  0 Multiplicity = 1

 SCF Done:  E(RB3LYP) =  -826.873962877     A.U. after   16 cycles
 Normal termination of Gaussian 16 at Fri Dec 11 22:57:02 2020.

 ----------------------------------------------------------------------
 # B3LYP/6-311++G(d,p) empiricaldispersion=gd3bj scf=xqc pop=npa geom=c
 heck
 ----------------------------------------------------------------------

 -------------------------------------
 CID_112247271_JID_8723_Energie_kation
 -------------------------------------
 Structure from the checkpoint file:  "JID_8723.chk"
 Charge =  1 Multiplicity = 2

 SCF Done:  E(UB3LYP) =  -826.568149231     A.U. after   27 cycles
 Normal termination of Gaussian 16 at Fri Dec 11 23:22:25 2020.
 Gaussian 16:  ES64L-G16RevA.03 25-Dec-2016

 ----------------------------------------------------------------------
 # B3LYP/6-311++G(d,p) empiricaldispersion=gd3bj scf=xqc pop=npa geom=c
 heck
 ----------------------------------------------------------------------

 ------------------------------------
 CID_112247271_JID_8723_Energie_anion
 ------------------------------------
 Structure from the checkpoint file:  "JID_8723.chk"
 Charge = -1 Multiplicity = 2

                         Standard orientation:
 ---------------------------------------------------------------------
 Center     Atomic      Atomic             Coordinates (Angstroms)
 Number     Number       Type             X           Y           Z
 ---------------------------------------------------------------------
      1          6           0       -2.784886   -2.151197   -0.424456
      2          6           0       -3.656205   -0.954811   -0.786316
      3          8           0       -2.893522    0.115430   -1.363380
      4          6           0       -2.042769    0.791409   -0.525024
      5          6           0       -2.462356    1.362933    0.681405
      6          6           0       -1.550728    2.079841    1.457097
      7          6           0       -0.224861    2.215201    1.052232
      8          6           0        0.202268    1.615036   -0.137716
      9          6           0       -0.716541    0.930607   -0.938156
     10          6           0        1.658839    1.719328   -0.478005
     11          8           0        2.282975    2.757911   -0.283391
     12          7           0        2.277134    0.615089   -1.020433
     13          6           0        1.934211   -0.807470   -0.897685
     14          6           0        2.377408   -1.531482   -2.171678
     15          6           0        2.548511   -1.448889    0.360652
     16          6           0        1.999710   -0.936783    1.699049
     17          6           0        0.504609   -1.199178    1.917107
     18          8           0        0.143338   -2.576917    1.787777
     19          1           0       -2.216576   -2.480600   -1.301395
     20          1           0       -3.412116   -2.984234   -0.087664
     21          1           0       -2.083001   -1.917748    0.382743
     22          1           0       -4.380342   -1.219340   -1.561174
     23          1           0       -4.217535   -0.601757    0.087681
     24          1           0       -3.494829    1.265797    1.000130
     25          1           0       -1.882396    2.535492    2.385605
     26          1           0        0.493465    2.768146    1.647170
     27          1           0       -0.425331    0.495603   -1.887889
     28          1           0        3.265045    0.800475   -1.169047
     29          1           0        0.848185   -0.871744   -0.826810
     30          1           0        3.466919   -1.478880   -2.291233
     31          1           0        2.099234   -2.590020   -2.134028
     32          1           0        1.916835   -1.078672   -3.054941
     33          1           0        2.390972   -2.534874    0.306037
     34          1           0        3.636836   -1.303165    0.332258
     35          1           0        2.560589   -1.422382    2.506625
     36          1           0        2.178713    0.141976    1.793797
     37          1           0        0.233348   -0.921363    2.939817
     38          1           0       -0.102650   -0.580715    1.248050
     39          1           0        0.199114   -2.806277    0.848217
 ---------------------------------------------------------------------

 SCF Done:  E(UB3LYP) =  -826.871066684     A.U. after   33 cycles
 SCF Done:  E(UB3LYP) =  -826.871066684     a.u. after    1 cycles

 The electronic state is 2-A.
 Alpha  occ. eigenvalues --  -19.03569 -19.02413 -18.95957 -14.21424 -10.14230
 Alpha  occ. eigenvalues --  -10.12829 -10.11534 -10.11046 -10.10968 -10.07224
 Alpha  occ. eigenvalues --  -10.06858 -10.06684 -10.06463 -10.06006 -10.05352
 Alpha  occ. eigenvalues --  -10.05290 -10.05173 -10.05037  -0.95182  -0.92263
 Alpha  occ. eigenvalues --   -0.91287  -0.80809  -0.74000  -0.69446  -0.66995
 Alpha  occ. eigenvalues --   -0.65182  -0.63992  -0.62082  -0.58362  -0.54448
 Alpha  occ. eigenvalues --   -0.52772  -0.51749  -0.49189  -0.48397  -0.45109
 Alpha  occ. eigenvalues --   -0.42312  -0.40773  -0.38759  -0.37956  -0.37825
 Alpha  occ. eigenvalues --   -0.36250  -0.36157  -0.35359  -0.34276  -0.33186
 Alpha  occ. eigenvalues --   -0.32979  -0.31845  -0.30728  -0.30168  -0.29348
 Alpha  occ. eigenvalues --   -0.28948  -0.28530  -0.28159  -0.27471  -0.26520
 Alpha  occ. eigenvalues --   -0.25990  -0.25065  -0.24905  -0.24286  -0.24167
 Alpha  occ. eigenvalues --   -0.22440  -0.22106  -0.18985  -0.17720  -0.15153
 Alpha  occ. eigenvalues --   -0.14191  -0.13445  -0.11927   0.04307
 Alpha virt. eigenvalues --    0.06023   0.06854   0.07766   0.08239   0.08659
 Alpha virt. eigenvalues --    0.09375   0.09818   0.10304   0.10651   0.10813
 Alpha virt. eigenvalues --    0.11725   0.11813   0.11882   0.12661   0.13254

  Beta  occ. eigenvalues --  -19.03574 -19.02401 -18.95807 -14.21396 -10.14118
  Beta  occ. eigenvalues --  -10.12822 -10.11574 -10.11046 -10.10966 -10.07211
  Beta  occ. eigenvalues --  -10.06857 -10.06666 -10.06425 -10.05964 -10.05299
  Beta  occ. eigenvalues --  -10.05135 -10.04965 -10.04909  -0.95186  -0.92237
  Beta  occ. eigenvalues --   -0.91015  -0.80696  -0.73746  -0.69404  -0.66940
  Beta  occ. eigenvalues --   -0.65072  -0.63643  -0.61907  -0.58324  -0.54308
  Beta  occ. eigenvalues --   -0.52611  -0.51468  -0.49088  -0.48358  -0.44982
  Beta  occ. eigenvalues --   -0.42243  -0.40735  -0.38670  -0.37884  -0.37714
  Beta  occ. eigenvalues --   -0.36184  -0.36080  -0.35252  -0.34200  -0.33090
  Beta  occ. eigenvalues --   -0.32911  -0.31724  -0.30668  -0.30076  -0.29280
  Beta  occ. eigenvalues --   -0.28763  -0.28315  -0.28114  -0.27194  -0.26374
  Beta  occ. eigenvalues --   -0.25792  -0.24951  -0.24786  -0.24213  -0.24103
  Beta  occ. eigenvalues --   -0.22338  -0.21883  -0.18876  -0.17679  -0.14640
  Beta  occ. eigenvalues --   -0.13478  -0.12936  -0.11337
  Beta virt. eigenvalues --    0.06484   0.07180   0.07859   0.08335   0.08571
  Beta virt. eigenvalues --    0.08774   0.09481   0.09974   0.10380   0.10751
  Beta virt. eigenvalues --    0.10980   0.11782   0.11886   0.12062   0.12718

 Mulliken charges and spin densities:
               1          2
     1  C   -0.223602  -0.298355
     2  C   -0.095863  -0.095058
     3  O   -0.078479   0.002807
     4  C   -0.144122  -0.162327
     5  C    0.428464   0.011563
     6  C   -0.453004   0.064784
     7  C    0.304153  -0.066637
     8  C    0.603999   0.125005
     9  C   -1.260470   0.391000
    10  C   -0.571949   0.089005
    11  O   -0.316196   0.052975
    12  N   -0.150364   0.044711
    13  C   -0.754294   0.970357
    14  C    0.662529  -1.049262
    15  C   -0.177142  -0.593277
    16  C   -0.466125   0.389873
    17  C   -0.441414  -0.148218
    18  O   -0.181047  -0.015594
    19  H   -0.018057   0.190697
    20  H   -0.255795   0.387181
    21  H    0.197225  -0.077076
    22  H    0.012907   0.138043
    23  H    0.123654  -0.012762
    24  H    0.118919  -0.004417
    25  H    0.132937   0.005377
    26  H    0.171300  -0.002527
    27  H    0.094962   0.110045
    28  H    0.218340   0.058595
    29  H    1.232541  -1.074584
    30  H   -0.254355   0.392960
    31  H   -0.425980   0.575340
    32  H   -0.032282   0.191758
    33  H   -0.002707   0.160254
    34  H    0.092811   0.039946
    35  H    0.110265   0.069485
    36  H    0.215511   0.002883
    37  H    0.139683   0.010714
    38  H    0.365098  -0.039442
    39  H    0.077947   0.164175
 Sum of Mulliken charges =  -1.00000   1.00000

 Dipole moment (field-independent basis, Debye):
    X=             -2.2066    Y=             -0.0634    Z=              2.9541  Tot=              3.6878
 Quadrupole moment (field-independent basis, Debye-Ang):
   XX=           -149.5922   YY=           -169.2709   ZZ=           -138.9241
   XY=             -5.3732   XZ=              3.4509   YZ=              1.6406

 Summary of Natural Population Analysis:

                                       Natural Population
                Natural  -----------------------------------------------
    Atom  No    Charge         Core      Valence    Rydberg      Total
 -----------------------------------------------------------------------
      C    1   -0.30556      0.99966     2.30021    0.00568     3.30556
      C    2   -0.00722      0.99958     1.99567    0.01197     3.00722
      O    3   -0.29135      0.99986     3.28176    0.00973     4.29135
      C    4    0.14357      0.99936     1.84251    0.01456     2.85643
      C    5   -0.09608      0.99951     2.08920    0.00737     3.09608
      C    6   -0.09466      0.99958     2.08676    0.00832     3.09466
      C    7   -0.09552      0.99953     2.08791    0.00808     3.09552
      C    8   -0.03108      0.99946     2.02002    0.01161     3.03108
      C    9   -0.10002      0.99948     2.09124    0.00930     3.10002
      C   10    0.35158      0.99961     1.62510    0.02371     2.64842
      O   11   -0.31489      0.99988     3.30982    0.00519     4.31489
      N   12   -0.32275      0.99967     2.81248    0.01060     3.82275
      C   13   -0.02146      0.99958     2.01051    0.01137     3.02146
      C   14   -0.28358      0.99965     2.27794    0.00600     3.28358
      C   15   -0.19567      0.99960     2.18616    0.00991     3.19567
      C   16   -0.20474      0.99962     2.19731    0.00782     3.20474
      C   17   -0.01847      0.99959     2.00657    0.01231     3.01847
      O   18   -0.37185      0.99990     3.36602    0.00593     4.37185
      H   19    0.10043      0.00000     0.39829    0.00129     0.39957
      H   20    0.09941      0.00000     0.39961    0.00099     0.40059
      H   21    0.10700      0.00000     0.39137    0.00164     0.39300
      H   22    0.08627      0.00000     0.41258    0.00115     0.41373
      H   23    0.07957      0.00000     0.41928    0.00116     0.42043
      H   24    0.09503      0.00000     0.40384    0.00112     0.40497
      H   25    0.09342      0.00000     0.40563    0.00096     0.40658
      H   26    0.10537      0.00000     0.39369    0.00094     0.39463
      H   27    0.10465      0.00000     0.39369    0.00166     0.39535
      H   28    0.18654      0.00000     0.31127    0.00219     0.31346
      H   29    0.10377      0.00000     0.39312    0.00310     0.39623
      H   30    0.09583      0.00000     0.40297    0.00120     0.40417
      H   31    0.10143      0.00000     0.39711    0.00145     0.39857
      H   32    0.10369      0.00000     0.39525    0.00106     0.39631
      H   33    0.09773      0.00000     0.40117    0.00110     0.40227
      H   34    0.09759      0.00000     0.40134    0.00107     0.40241
      H   35    0.09586      0.00000     0.40323    0.00091     0.40414
      H   36    0.10522      0.00000     0.39383    0.00095     0.39478
      H   37    0.08439      0.00000     0.41469    0.00092     0.41561
      H   38    0.08990      0.00000     0.40722    0.00288     0.41010
      H   39    0.22663      0.00000     0.27028    0.00308     0.27337
 =======================================================================
   * Total *   -0.00000     17.99311    49.79661    0.21028    68.00000

 Normal termination of Gaussian 16 at Fri Dec 11 23:52:49 2020.
