 Gaussian 16, Revision A.03,

 -----------------------------------------------------------
 # opt freq B3LYP/6-31G(d) empiricaldispersion=gd3bj scf=xqc
 -----------------------------------------------------------

 -------------------------------
 CID_136329314_JID_3493_neutraal
 -------------------------------
 Symbolic Z-matrix:
 Charge =  0 Multiplicity = 1

 SCF Done:  E(RB3LYP) =  -926.854781090     A.U. after   15 cycles
 SCF Done:  E(RB3LYP) =  -926.857369604     A.U. after   13 cycles
 SCF Done:  E(RB3LYP) =  -926.858620088     A.U. after   12 cycles
 SCF Done:  E(RB3LYP) =  -926.859054982     A.U. after   12 cycles
 SCF Done:  E(RB3LYP) =  -926.859209856     A.U. after   12 cycles
 SCF Done:  E(RB3LYP) =  -926.859247719     A.U. after   11 cycles
 SCF Done:  E(RB3LYP) =  -926.859324828     A.U. after   10 cycles
 SCF Done:  E(RB3LYP) =  -926.859343120     A.U. after   10 cycles
 SCF Done:  E(RB3LYP) =  -926.859351552     A.U. after    9 cycles
 SCF Done:  E(RB3LYP) =  -926.859357895     A.U. after   10 cycles
 SCF Done:  E(RB3LYP) =  -926.859361611     A.U. after   10 cycles
 SCF Done:  E(RB3LYP) =  -926.859363748     A.U. after   10 cycles
 SCF Done:  E(RB3LYP) =  -926.859364263     A.U. after    9 cycles
 SCF Done:  E(RB3LYP) =  -926.859364310     A.U. after    7 cycles
 Optimization completed.
    -- Stationary point found.
 Normal termination of Gaussian 16 at Wed Dec  9 23:25:05 2020.

 --------------------------------------------------------------------
 #N Geom=AllCheck Guess=TCheck SCRF=Check GenChk RB3LYP/6-31G(d) Freq
 --------------------------------------------------------------------

 Structure from the checkpoint file:  "JID_3493.chk"
 -------------------------------
 CID_136329314_JID_3493_neutraal
 -------------------------------
 Charge =  0 Multiplicity = 1

 SCF Done:  E(RB3LYP) =  -926.859364310     A.U. after    1 cycles

  Exact polarizability: 206.852  -3.635 119.049  -1.102  -7.205  56.562
 Approx polarizability: 305.125  -9.105 216.639  -3.188 -15.350  90.325

                      1                      2                      3
                      A                      A                      A
 Frequencies --     41.1853                65.5646               119.0124
 Red. masses --      3.6100                 8.8548                 6.4657
 Frc consts  --      0.0036                 0.0224                 0.0540
 IR Inten    --      1.8199                 2.3620                 2.1339

                      4                      5                      6
                      A                      A                      A
 Frequencies --    139.4168               185.2695               190.9415
 Red. masses --      1.1352                 4.6030                 1.0967
 Frc consts  --      0.0130                 0.0931                 0.0236
 IR Inten    --     18.7127                 4.0434                 0.1561

                      7                      8                      9
                      A                      A                      A
 Frequencies --    212.9154               256.6259               283.4695
 Red. masses --      4.1537                 5.8708                 6.9650
 Frc consts  --      0.1109                 0.2278                 0.3297
 IR Inten    --      1.3287                 2.0128                 2.5572

                     10                     11                     12
                      A                      A                      A
 Frequencies --    331.2900               373.8561               414.6273
 Red. masses --      4.1410                 5.9961                 3.0651
 Frc consts  --      0.2678                 0.4938                 0.3105
 IR Inten    --      0.3022                 0.3833                 0.4552

                     13                     14                     15
                      A                      A                      A
 Frequencies --    479.3004               517.3415               532.2106
 Red. masses --      4.5609                 6.7210                 3.4554
 Frc consts  --      0.6173                 1.0598                 0.5767
 IR Inten    --      2.1314                12.8157                 8.1979

                     16                     17                     18
                      A                      A                      A
 Frequencies --    650.0292               700.2799               715.5420
 Red. masses --      7.0843                 7.4226                 6.3894
 Frc consts  --      1.7637                 2.1446                 1.9274
 IR Inten    --      0.2527                 2.2530                 6.8411

                     19                     20                     21
                      A                      A                      A
 Frequencies --    728.4530               753.3884               763.4033
 Red. masses --      5.5255                 6.2032                 6.6059
 Frc consts  --      1.7275                 2.0745                 2.2683
 IR Inten    --      2.9876                12.4071                 2.9002

                     22                     23                     24
                      A                      A                      A
 Frequencies --    827.3838               853.3103               946.4104
 Red. masses --      1.4386                 1.3923                 1.1936
 Frc consts  --      0.5803                 0.5973                 0.6299
 IR Inten    --     18.8496                14.8197                 8.3531

                     25                     26                     27
                      A                      A                      A
 Frequencies --    948.3798               985.7840              1001.2196
 Red. masses --      1.2286                 1.3261                 3.7479
 Frc consts  --      0.6510                 0.7592                 2.2136
 IR Inten    --      4.2168                 0.4218                 9.5127

                     28                     29                     30
                      A                      A                      A
 Frequencies --   1034.0126              1049.5119              1074.1354
 Red. masses --      4.2040                 6.5546                 3.6352
 Frc consts  --      2.6483                 4.2537                 2.4711
 IR Inten    --     12.8671                 3.8544                 4.4022

                     31                     32                     33
                      A                      A                      A
 Frequencies --   1129.5878              1149.0082              1158.7075
 Red. masses --      3.6100                 3.4452                 1.3765
 Frc consts  --      2.7139                 2.6799                 1.0889
 IR Inten    --     45.1181                28.5363                 6.1175

                     34                     35                     36
                      A                      A                      A
 Frequencies --   1164.6811              1230.5363              1248.0963
 Red. masses --      1.5984                 1.1582                 2.7831
 Frc consts  --      1.2775                 1.0333                 2.5543
 IR Inten    --     11.0636                14.7294                 8.4569

                     37                     38                     39
                      A                      A                      A
 Frequencies --   1292.1068              1337.4109              1346.5164
 Red. masses --      6.5231                 7.1724                 7.0791
 Frc consts  --      6.4166                 7.5586                 7.5623
 IR Inten    --      0.0923                 7.6796                12.2795

                     40                     41                     42
                      A                      A                      A
 Frequencies --   1350.4257              1436.4970              1461.6955
 Red. masses --      1.3853                 3.8384                 1.5817
 Frc consts  --      1.4884                 4.6666                 1.9911
 IR Inten    --      1.3765                 9.4313                11.9375

                     43                     44                     45
                      A                      A                      A
 Frequencies --   1492.9745              1515.2672              1517.6435
 Red. masses --      2.4848                 1.1175                 1.8362
 Frc consts  --      3.2632                 1.5117                 2.4918
 IR Inten    --     36.4161                23.1337                39.3226

                     46                     47                     48
                      A                      A                      A
 Frequencies --   1535.8539              1585.2349              1617.3316
 Red. masses --      1.2148                 4.6429                 6.4998
 Frc consts  --      1.6883                 6.8743                10.0172
 IR Inten    --     52.1115                 5.8602                 0.2873

                     49                     50                     51
                      A                      A                      A
 Frequencies --   1665.7575              2698.0795              3076.0559
 Red. masses --      5.5932                 1.0385                 1.0357
 Frc consts  --      9.1440                 4.4541                 5.7738
 IR Inten    --     70.1995                10.2251                18.3606

                     52                     53                     54
                      A                      A                      A
 Frequencies --   3150.2129              3187.6903              3196.3600
 Red. masses --      1.1029                 1.1045                 1.0892
 Frc consts  --      6.4486                 6.6128                 6.5562
 IR Inten    --      8.9026                 3.0400                 7.9466

                     55                     56                     57
                      A                      A                      A
 Frequencies --   3201.3691              3225.7086              3232.3706
 Red. masses --      1.0899                 1.0920                 1.0934
 Frc consts  --      6.5812                 6.6944                 6.7307
 IR Inten    --      5.4605                 9.6436                 0.3405

 - Thermochemistry -
 -------------------
 Temperature   298.150 Kelvin.  Pressure   1.00000 Atm.
 Atom     1 has atomic number  6 and mass  12.00000

 Molecular mass:   192.04697 amu.
 Principal axes and moments of inertia in atomic units:
                           1         2         3
     Eigenvalues --   797.195425424.238256124.47535
           X            0.99994   0.01011   0.00342
           Y           -0.01008   0.99991  -0.00916
           Z           -0.00351   0.00913   0.99995
 This molecule is an asymmetric top.
 Rotational symmetry number  1.
 Warning -- assumption of classical behavior for rotation
           may cause significant error
 Rotational temperatures (Kelvin)      0.10865     0.01597     0.01414
 Rotational constants (GHZ):           2.26386     0.33272     0.29468
 Zero-point vibrational energy     408988.0 (Joules/Mol)
                                   97.75047 (Kcal/Mol)
 Warning -- explicit consideration of  15 degrees of freedom as
           vibrations may cause significant error
 Vibrational temperatures:     59.26    94.33   171.23   200.59   266.56
          (Kelvin)            274.72   306.34   369.23   407.85   476.65
                              537.90   596.56   689.61   744.34   765.73
                              935.25  1007.55  1029.51  1048.08  1083.96
                             1098.37  1190.42  1227.72  1361.67  1364.51
                             1418.32  1440.53  1487.71  1510.01  1545.44
                             1625.22  1653.17  1667.12  1675.72  1770.47
                             1795.73  1859.05  1924.24  1937.34  1942.96
                             2066.80  2103.05  2148.06  2180.13  2183.55
                             2209.75  2280.80  2326.98  2396.65  3881.93
                             4425.76  4532.45  4586.38  4598.85  4606.06
                             4641.08  4650.66

 Zero-point correction=                           0.155775 (Hartree/Particle)
 Thermal correction to Energy=                    0.167128
 Thermal correction to Enthalpy=                  0.168072
 Thermal correction to Gibbs Free Energy=         0.117344
 Sum of electronic and zero-point Energies=           -926.703589
 Sum of electronic and thermal Energies=              -926.692236
 Sum of electronic and thermal Enthalpies=            -926.691292
 Sum of electronic and thermal Free Energies=         -926.742021

                     E (Thermal)             CV                S
                      KCal/Mol        Cal/Mol-Kelvin    Cal/Mol-Kelvin
 Total                  104.875             42.044            106.768
 Electronic               0.000              0.000              0.000
 Translational            0.889              2.981             41.663
 Rotational               0.889              2.981             31.649
 Vibrational            103.097             36.083             33.456
 Vibration     1          0.594              1.981              5.201
 Vibration     2          0.597              1.971              4.282
 Vibration     3          0.609              1.933              3.116
 Vibration     4          0.615              1.914              2.812
 Vibration     5          0.631              1.860              2.275
 Vibration     6          0.634              1.852              2.219
 Vibration     7          0.644              1.821              2.019
 Vibration     8          0.666              1.752              1.685
 Vibration     9          0.682              1.704              1.513
 Vibration    10          0.714              1.613              1.254
 Vibration    11          0.745              1.526              1.064
 Vibration    12          0.778              1.438              0.910
 Vibration    13          0.836              1.296              0.712
 Vibration    14          0.872              1.212              0.616
 Vibration    15          0.887              1.179              0.582

 Optimization completed.
    -- Stationary point found.
 Normal termination of Gaussian 16 at Wed Dec  9 23:29:38 2020.

 ----------------------------------------------------------------------
 # B3LYP/6-311++G(d,p) empiricaldispersion=gd3bj scf=xqc pop=npa geom=c
 heck
 ----------------------------------------------------------------------

 ---------------------------------------
 CID_136329314_JID_3493_Energie_neutraal
 ---------------------------------------
 Structure from the checkpoint file:  "JID_3493.chk"
 Charge =  0 Multiplicity = 1

 SCF Done:  E(RB3LYP) =  -927.022825040     A.U. after   15 cycles
 Normal termination of Gaussian 16 at Wed Dec  9 23:31:16 2020.

 ----------------------------------------------------------------------
 # B3LYP/6-311++G(d,p) empiricaldispersion=gd3bj scf=xqc pop=npa geom=c
 heck
 ----------------------------------------------------------------------

 -------------------------------------
 CID_136329314_JID_3493_Energie_kation
 -------------------------------------
 Structure from the checkpoint file:  "JID_3493.chk"
 Charge =  1 Multiplicity = 2

 SCF Done:  E(UB3LYP) =  -926.718289553     A.U. after   24 cycles
 Normal termination of Gaussian 16 at Wed Dec  9 23:34:39 2020.
 Gaussian 16:  ES64L-G16RevA.03 25-Dec-2016

 ----------------------------------------------------------------------
 # B3LYP/6-311++G(d,p) empiricaldispersion=gd3bj scf=xqc pop=npa geom=c
 heck
 ----------------------------------------------------------------------

 ------------------------------------
 CID_136329314_JID_3493_Energie_anion
 ------------------------------------
 Structure from the checkpoint file:  "JID_3493.chk"
 Charge = -1 Multiplicity = 2

                         Standard orientation:
 ---------------------------------------------------------------------
 Center     Atomic      Atomic             Coordinates (Angstroms)
 Number     Number       Type             X           Y           Z
 ---------------------------------------------------------------------
      1          6           0        2.537623    2.024657    0.438091
      2          7           0        2.639247    0.614622    0.107563
      3          6           0        1.698595   -0.343804   -0.091847
      4          7           0        2.333822   -1.495102   -0.287652
      5          7           0        3.657736   -1.223278   -0.207672
      6          7           0        3.863392    0.031573    0.027752
      7          6           0        0.245004   -0.189173   -0.067501
      8          6           0       -0.405992    1.010208   -0.387882
      9          6           0       -1.794545    1.097526   -0.356689
     10          6           0       -2.563670   -0.018626   -0.009162
     11          6           0       -1.919154   -1.227129    0.296165
     12          6           0       -0.535216   -1.309704    0.265323
     13         16           0       -4.341316    0.015316    0.061843
     14          1           0        3.482692    2.318207    0.895127
     15          1           0        2.368005    2.627315   -0.459172
     16          1           0        1.718682    2.178520    1.143797
     17          1           0        0.161680    1.881251   -0.694994
     18          1           0       -2.275062    2.036690   -0.613901
     19          1           0       -2.504466   -2.103100    0.559378
     20          1           0       -0.034899   -2.243585    0.496120
     21          1           0       -4.490825    1.301211   -0.314762
 ---------------------------------------------------------------------

 SCF Done:  E(UB3LYP) =  -927.030280687     A.U. after   33 cycles
 SCF Done:  E(UB3LYP) =  -927.030280687     a.u. after    1 cycles

 The electronic state is 2-A.
 Alpha  occ. eigenvalues --  -88.74027 -14.26077 -14.23036 -14.22616 -14.18224
 Alpha  occ. eigenvalues --  -10.10759 -10.09754 -10.06405 -10.04907 -10.04541
 Alpha  occ. eigenvalues --  -10.04476 -10.04025 -10.03783  -7.82701  -5.79086
 Alpha  occ. eigenvalues --   -5.78692  -5.78121  -0.98937  -0.81041  -0.75351
 Alpha  occ. eigenvalues --   -0.72884  -0.66507  -0.62637  -0.62079  -0.58815
 Alpha  occ. eigenvalues --   -0.51932  -0.49709  -0.47636  -0.45637  -0.40673
 Alpha  occ. eigenvalues --   -0.37748  -0.36993  -0.35020  -0.33183  -0.31401
 Alpha  occ. eigenvalues --   -0.30983  -0.30190  -0.29550  -0.26701  -0.25741
 Alpha  occ. eigenvalues --   -0.23552  -0.22386  -0.21395  -0.19836  -0.17335
 Alpha  occ. eigenvalues --   -0.16077  -0.15314  -0.14379  -0.13333  -0.09568
 Alpha  occ. eigenvalues --    0.04593
 Alpha virt. eigenvalues --    0.07162   0.08029   0.10072   0.10199   0.10697
 Alpha virt. eigenvalues --    0.10872   0.11803   0.12636   0.12914   0.13554
 Alpha virt. eigenvalues --    0.13812   0.14161   0.15517   0.16148   0.16392

  Beta  occ. eigenvalues --  -88.74024 -14.25810 -14.22842 -14.22699 -14.18102
  Beta  occ. eigenvalues --  -10.10761 -10.09614 -10.05941 -10.04971 -10.04598
  Beta  occ. eigenvalues --  -10.04336 -10.03807 -10.03641  -7.82698  -5.79091
  Beta  occ. eigenvalues --   -5.78702  -5.78094  -0.98695  -0.80732  -0.74944
  Beta  occ. eigenvalues --   -0.72500  -0.66108  -0.62514  -0.61829  -0.58538
  Beta  occ. eigenvalues --   -0.51760  -0.49289  -0.47442  -0.45271  -0.40511
  Beta  occ. eigenvalues --   -0.37116  -0.36804  -0.34778  -0.32995  -0.31297
  Beta  occ. eigenvalues --   -0.30697  -0.30021  -0.29453  -0.26565  -0.24645
  Beta  occ. eigenvalues --   -0.23367  -0.22222  -0.21218  -0.18617  -0.16466
  Beta  occ. eigenvalues --   -0.15910  -0.14545  -0.14244  -0.12588  -0.08349
  Beta virt. eigenvalues --    0.07258   0.08085   0.09926   0.10035   0.10198
  Beta virt. eigenvalues --    0.10964   0.11115   0.11856   0.12716   0.13285
  Beta virt. eigenvalues --    0.13766   0.13839   0.14266   0.15534   0.16161

 Mulliken charges and spin densities:
               1          2
     1  C   -0.089725  -0.291356
     2  N   -0.073815   0.104379
     3  C   -0.447811  -0.016781
     4  N   -0.206353   0.053645
     5  N   -0.046226  -0.035010
     6  N    0.062481   0.092531
     7  C    0.829447   0.287851
     8  C   -0.143951   0.006163
     9  C   -0.102132  -0.080502
    10  C    0.849820   0.110274
    11  C   -0.789237  -0.008915
    12  C   -0.626134   0.276279
    13  S   -0.782103   0.018377
    14  H    0.122758   0.023587
    15  H   -0.115580   0.302794
    16  H    0.126365   0.033155
    17  H    0.113398  -0.045150
    18  H   -0.045930   0.159937
    19  H    0.124643   0.008392
    20  H    0.169742  -0.001392
    21  H    0.070341   0.001744
 Sum of Mulliken charges =  -1.00000   1.00000

 Dipole moment (field-independent basis, Debye):
    X=             -3.4050    Y=              3.5129    Z=              0.8245  Tot=              4.9613
 Quadrupole moment (field-independent basis, Debye-Ang):
   XX=           -147.4132   YY=            -99.7676   ZZ=            -93.6807
   XY=              7.7092   XZ=              5.4938   YZ=             -1.8627

 Summary of Natural Population Analysis:

                                       Natural Population
                Natural  -----------------------------------------------
    Atom  No    Charge         Core      Valence    Rydberg      Total
 -----------------------------------------------------------------------
      C    1   -0.18029      0.99965     2.17264    0.00800     3.18029
      N    2   -0.09092      0.99961     2.57623    0.01508     3.59092
      C    3    0.20261      0.99957     1.77981    0.01801     2.79739
      N    4   -0.15776      0.99970     2.64554    0.01253     3.65776
      N    5   -0.07208      0.99981     2.55196    0.02031     3.57208
      N    6   -0.03490      0.99978     2.52001    0.01511     3.53490
      C    7   -0.03387      0.99949     2.02237    0.01201     3.03387
      C    8   -0.06175      0.99954     2.05326    0.00895     3.06175
      C    9   -0.13804      0.99951     2.12832    0.01021     3.13804
      C   10   -0.00389      0.99940     1.99429    0.01020     3.00389
      C   11   -0.13113      0.99952     2.12304    0.00857     3.13113
      C   12   -0.04430      0.99955     2.03685    0.00790     3.04430
      S   13   -0.00036      4.99957     2.98369    0.01710     8.00036
      H   14    0.10411      0.00000     0.39453    0.00136     0.39589
      H   15    0.09820      0.00000     0.40008    0.00172     0.40180
      H   16    0.10449      0.00000     0.39463    0.00088     0.39551
      H   17    0.09272      0.00000     0.40572    0.00156     0.40728
      H   18    0.09326      0.00000     0.40573    0.00101     0.40674
      H   19    0.09512      0.00000     0.40362    0.00125     0.40488
      H   20    0.10461      0.00000     0.39440    0.00099     0.39539
      H   21    0.05418      0.00000     0.44311    0.00271     0.44582
 =======================================================================
   * Total *    0.00000     16.99470    32.82983    0.17547    50.00000

 Normal termination of Gaussian 16 at Wed Dec  9 23:39:24 2020.
