 Gaussian 16, Revision A.03,

 -----------------------------------------------------------
 # opt freq B3LYP/6-31G(d) empiricaldispersion=gd3bj scf=xqc
 -----------------------------------------------------------

 -------------------------------
 CID_130747484_JID_4782_neutraal
 -------------------------------
 Symbolic Z-matrix:
 Charge =  0 Multiplicity = 1

 SCF Done:  E(RB3LYP) =  -664.220785412     A.U. after   15 cycles
 SCF Done:  E(RB3LYP) =  -664.225378780     A.U. after   12 cycles
 SCF Done:  E(RB3LYP) =  -664.226018508     A.U. after   11 cycles
 SCF Done:  E(RB3LYP) =  -664.226266073     A.U. after   11 cycles
 SCF Done:  E(RB3LYP) =  -664.226405747     A.U. after   11 cycles
 SCF Done:  E(RB3LYP) =  -664.226480934     A.U. after   11 cycles
 SCF Done:  E(RB3LYP) =  -664.226570052     A.U. after   11 cycles
 SCF Done:  E(RB3LYP) =  -664.226682516     A.U. after   11 cycles
 SCF Done:  E(RB3LYP) =  -664.226720357     A.U. after   11 cycles
 SCF Done:  E(RB3LYP) =  -664.226771000     A.U. after   10 cycles
 SCF Done:  E(RB3LYP) =  -664.227549926     A.U. after   11 cycles
 SCF Done:  E(RB3LYP) =  -664.227554270     A.U. after    9 cycles
 SCF Done:  E(RB3LYP) =  -664.227553556     A.U. after    9 cycles
 SCF Done:  E(RB3LYP) =  -664.227555424     A.U. after    9 cycles
 SCF Done:  E(RB3LYP) =  -664.227555550     A.U. after    7 cycles
 Optimization completed.
    -- Stationary point found.
 Normal termination of Gaussian 16 at Thu Dec 10 10:37:50 2020.

 --------------------------------------------------------------------
 #N Geom=AllCheck Guess=TCheck SCRF=Check GenChk RB3LYP/6-31G(d) Freq
 --------------------------------------------------------------------

 Structure from the checkpoint file:  "JID_4782.chk"
 -------------------------------
 CID_130747484_JID_4782_neutraal
 -------------------------------
 Charge =  0 Multiplicity = 1

 SCF Done:  E(RB3LYP) =  -664.227555550     A.U. after    1 cycles

  Exact polarizability: 149.466   5.838 103.751   6.724   3.122  85.311
 Approx polarizability: 216.115   5.166 152.496   9.012   8.762 145.335

                      1                      2                      3
                      A                      A                      A
 Frequencies --     28.8401                33.6121                70.8264
 Red. masses --      4.3529                 4.7697                 4.2224
 Frc consts  --      0.0021                 0.0032                 0.0125
 IR Inten    --      0.3020                 4.7840                 2.2570

                      4                      5                      6
                      A                      A                      A
 Frequencies --     96.8251               106.1558               133.0494
 Red. masses --      1.7332                 1.7563                 1.1990
 Frc consts  --      0.0096                 0.0117                 0.0125
 IR Inten    --      1.5754                 3.0197                 0.5635

                      7                      8                      9
                      A                      A                      A
 Frequencies --    150.9634               164.4390               241.3358
 Red. masses --      2.3295                 4.2044                 2.3461
 Frc consts  --      0.0313                 0.0670                 0.0805
 IR Inten    --      2.8482                 0.7991                 0.5762

                     10                     11                     12
                      A                      A                      A
 Frequencies --    263.3999               330.7047               335.4254
 Red. masses --      2.9754                 4.6242                 3.9785
 Frc consts  --      0.1216                 0.2980                 0.2637
 IR Inten    --      4.5376                 5.9816                 0.3646

                     13                     14                     15
                      A                      A                      A
 Frequencies --    351.3148               440.3188               470.4683
 Red. masses --      5.0395                 3.6340                 3.2423
 Frc consts  --      0.3665                 0.4151                 0.4228
 IR Inten    --      0.2864                28.9347                 8.7693

                     16                     17                     18
                      A                      A                      A
 Frequencies --    585.0229               586.0065               630.9948
 Red. masses --      4.9254                 4.2701                 6.4612
 Frc consts  --      0.9932                 0.8640                 1.5157
 IR Inten    --      3.9242                 5.0968                 0.6625

                     19                     20                     21
                      A                      A                      A
 Frequencies --    656.6347               709.5667               710.2840
 Red. masses --      2.4801                 3.8251                 5.2887
 Frc consts  --      0.6300                 1.1347                 1.5720
 IR Inten    --     41.6473                 6.5899                 7.6109

                     22                     23                     24
                      A                      A                      A
 Frequencies --    729.7531               760.4258               763.9035
 Red. masses --      2.2809                 2.6744                 1.6694
 Frc consts  --      0.7157                 0.9112                 0.5740
 IR Inten    --     67.3566                39.2896                16.1744

                     25                     26                     27
                      A                      A                      A
 Frequencies --    833.1029               858.2889               907.2189
 Red. masses --      3.3226                 1.3453                 5.4186
 Frc consts  --      1.3587                 0.5839                 2.6276
 IR Inten    --      9.0179                 1.9066                28.0399

                     28                     29                     30
                      A                      A                      A
 Frequencies --    913.9531               932.7077               962.4636
 Red. masses --      4.6660                 9.8879                 2.2335
 Frc consts  --      2.2964                 5.0681                 1.2190
 IR Inten    --     11.3009                 7.8631                 1.3092

                     31                     32                     33
                      A                      A                      A
 Frequencies --   1004.5792              1016.1094              1044.5822
 Red. masses --      3.4760                 2.1320                 1.7135
 Frc consts  --      2.0668                 1.2969                 1.1016
 IR Inten    --      2.1539                 5.5131                 4.1363

                     34                     35                     36
                      A                      A                      A
 Frequencies --   1077.9165              1081.3910              1093.9257
 Red. masses --      1.5133                 1.5041                 2.2556
 Frc consts  --      1.0360                 1.0363                 1.5903
 IR Inten    --      1.4174                 1.5943                 2.0119

                     37                     38                     39
                      A                      A                      A
 Frequencies --   1109.2908              1131.4126              1175.9640
 Red. masses --      2.0153                 3.8831                 2.0374
 Frc consts  --      1.4611                 2.9287                 1.6601
 IR Inten    --      3.9814                58.2139                16.3975

                     40                     41                     42
                      A                      A                      A
 Frequencies --   1244.8524              1274.9211              1311.6840
 Red. masses --      3.5456                 1.2370                 4.0104
 Frc consts  --      3.2373                 1.1846                 4.0653
 IR Inten    --     44.3889                12.7330                 9.2738

                     43                     44                     45
                      A                      A                      A
 Frequencies --   1345.8748              1372.4894              1431.2247
 Red. masses --      2.0422                 1.6726                 1.3199
 Frc consts  --      2.1795                 1.8563                 1.5929
 IR Inten    --     16.7913                 6.7969                 0.9822

                     46                     47                     48
                      A                      A                      A
 Frequencies --   1444.0522              1447.4255              1481.8896
 Red. masses --      1.3170                 2.1607                 3.2536
 Frc consts  --      1.6181                 2.6671                 4.2097
 IR Inten    --      1.1477                59.8452                72.6654

                     49                     50                     51
                      A                      A                      A
 Frequencies --   1502.9470              1505.5695              1507.2987
 Red. masses --      1.0436                 1.1508                 1.3410
 Frc consts  --      1.3889                 1.5369                 1.7950
 IR Inten    --      5.7681                15.6609                 5.5517

                     52                     53                     54
                      A                      A                      A
 Frequencies --   1512.4938              1515.0885              1536.8441
 Red. masses --      1.9958                 1.1363                 1.7925
 Frc consts  --      2.6901                 1.5368                 2.4944
 IR Inten    --     22.4140                 5.3421               115.2674

                     55                     56                     57
                      A                      A                      A
 Frequencies --   1543.7149              1567.7741              1650.8907
 Red. masses --      1.8255                 3.3947                 4.9313
 Frc consts  --      2.5631                 4.9161                 7.9187
 IR Inten    --     36.8604                 1.8111               233.5138

                     58                     59                     60
                      A                      A                      A
 Frequencies --   1698.4059              2999.4669              3057.0520
 Red. masses --      7.6596                 1.0703                 1.0404
 Frc consts  --     13.0178                 5.6733                 5.7288
 IR Inten    --     35.8395                51.7461                13.8115

                     61                     62                     63
                      A                      A                      A
 Frequencies --   3059.8420              3067.8804              3117.2136
 Red. masses --      1.0368                 1.0914                 1.1015
 Frc consts  --      5.7195                 6.0520                 6.3063
 IR Inten    --     13.8342                24.1050                 6.9001

                     64                     65                     66
                      A                      A                      A
 Frequencies --   3118.1538              3148.8566              3159.2405
 Red. masses --      1.0961                 1.1012                 1.1029
 Frc consts  --      6.2791                 6.4334                 6.4857
 IR Inten    --      9.1149                11.1980                 8.4294

                     67                     68                     69
                      A                      A                      A
 Frequencies --   3277.3775              3302.5152              3556.6251
 Red. masses --      1.0921                 1.1059                 1.0750
 Frc consts  --      6.9113                 7.1064                 8.0120
 IR Inten    --      1.8466                 0.1484                14.3931

 - Thermochemistry -
 -------------------
 Temperature   298.150 Kelvin.  Pressure   1.00000 Atm.
 Atom     1 has atomic number  6 and mass  12.00000

 Molecular mass:   193.08513 amu.
 Principal axes and moments of inertia in atomic units:
                           1         2         3
     Eigenvalues --  1157.258395592.408146242.91781
           X            0.99994   0.00955   0.00605
           Y           -0.00954   0.99995  -0.00177
           Z           -0.00607   0.00171   0.99998
 This molecule is an asymmetric top.
 Rotational symmetry number  1.
 Warning -- assumption of classical behavior for rotation
           may cause significant error
 Rotational temperatures (Kelvin)      0.07484     0.01549     0.01387
 Rotational constants (GHZ):           1.55950     0.32271     0.28909
 Zero-point vibrational energy     521887.9 (Joules/Mol)
                                  124.73420 (Kcal/Mol)
 Warning -- explicit consideration of  17 degrees of freedom as
           vibrations may cause significant error
 Vibrational temperatures:     41.49    48.36   101.90   139.31   152.73
          (Kelvin)            191.43   217.20   236.59   347.23   378.97
                              475.81   482.60   505.46   633.52   676.90
                              841.72   843.13   907.86   944.75  1020.91
                             1021.94  1049.95  1094.08  1099.09  1198.65
                             1234.89  1305.29  1314.97  1341.96  1384.77
                             1445.37  1461.95  1502.92  1550.88  1555.88
                             1573.92  1596.02  1627.85  1691.95  1791.06
                             1834.33  1887.22  1936.41  1974.71  2059.21
                             2077.67  2082.52  2132.11  2162.41  2166.18
                             2168.67  2176.14  2179.87  2211.18  2221.06
                             2255.68  2375.26  2443.63  4315.56  4398.42
                             4402.43  4414.00  4484.98  4486.33  4530.50
                             4545.44  4715.42  4751.58  5117.19

 Zero-point correction=                           0.198777 (Hartree/Particle)
 Thermal correction to Energy=                    0.211956
 Thermal correction to Enthalpy=                  0.212900
 Thermal correction to Gibbs Free Energy=         0.156951
 Sum of electronic and zero-point Energies=           -664.028779
 Sum of electronic and thermal Energies=              -664.015599
 Sum of electronic and thermal Enthalpies=            -664.014655
 Sum of electronic and thermal Free Energies=         -664.070604

                     E (Thermal)             CV                S
                      KCal/Mol        Cal/Mol-Kelvin    Cal/Mol-Kelvin
 Total                  133.005             47.748            117.755
 Electronic               0.000              0.000              0.000
 Translational            0.889              2.981             41.679
 Rotational               0.889              2.981             32.069
 Vibrational            131.227             41.787             44.007
 Vibration     1          0.593              1.984              5.908
 Vibration     2          0.594              1.983              5.604
 Vibration     3          0.598              1.968              4.130
 Vibration     4          0.603              1.951              3.517
 Vibration     5          0.605              1.944              3.338
 Vibration     6          0.613              1.920              2.901
 Vibration     7          0.618              1.902              2.660
 Vibration     8          0.623              1.886              2.498
 Vibration     9          0.658              1.777              1.793
 Vibration    10          0.670              1.740              1.639
 Vibration    11          0.713              1.614              1.257
 Vibration    12          0.717              1.605              1.234
 Vibration    13          0.728              1.573              1.160
 Vibration    14          0.800              1.382              0.826
 Vibration    15          0.827              1.316              0.736
 Vibration    16          0.942              1.064              0.476
 Vibration    17          0.943              1.062              0.474

                           ! Non-Optimized Parameters !
 Normal termination of Gaussian 16 at Thu Dec 10 10:43:48 2020.

 ----------------------------------------------------------------------
 # B3LYP/6-311++G(d,p) empiricaldispersion=gd3bj scf=xqc pop=npa geom=c
 heck
 ----------------------------------------------------------------------

 ---------------------------------------
 CID_130747484_JID_4782_Energie_neutraal
 ---------------------------------------
 Structure from the checkpoint file:  "JID_4782.chk"
 Charge =  0 Multiplicity = 1

 SCF Done:  E(RB3LYP) =  -664.409333994     A.U. after   15 cycles
 Normal termination of Gaussian 16 at Thu Dec 10 10:46:25 2020.

 ----------------------------------------------------------------------
 # B3LYP/6-311++G(d,p) empiricaldispersion=gd3bj scf=xqc pop=npa geom=c
 heck
 ----------------------------------------------------------------------

 -------------------------------------
 CID_130747484_JID_4782_Energie_kation
 -------------------------------------
 Structure from the checkpoint file:  "JID_4782.chk"
 Charge =  1 Multiplicity = 2

 SCF Done:  E(UB3LYP) =  -664.094112770     A.U. after   25 cycles
 Normal termination of Gaussian 16 at Thu Dec 10 10:51:22 2020.
 Gaussian 16:  ES64L-G16RevA.03 25-Dec-2016

 ----------------------------------------------------------------------
 # B3LYP/6-311++G(d,p) empiricaldispersion=gd3bj scf=xqc pop=npa geom=c
 heck
 ----------------------------------------------------------------------

 ------------------------------------
 CID_130747484_JID_4782_Energie_anion
 ------------------------------------
 Structure from the checkpoint file:  "JID_4782.chk"
 Charge = -1 Multiplicity = 2

                         Standard orientation:
 ---------------------------------------------------------------------
 Center     Atomic      Atomic             Coordinates (Angstroms)
 Number     Number       Type             X           Y           Z
 ---------------------------------------------------------------------
      1          6           0       -2.582484   -2.465409    0.172029
      2          6           0       -2.496479   -0.982956    0.069767
      3          6           0       -1.495410   -0.078978    0.281702
      4          6           0       -2.106118    1.186389   -0.007475
      5          7           0       -3.363281    1.048711   -0.356371
      6          8           0       -3.618777   -0.334602   -0.305633
      7          6           0       -1.471301    2.538202    0.055883
      8          6           0       -0.077871   -0.318789    0.684419
      9          7           0        0.830047    0.060677   -0.403118
     10          6           0        2.193996   -0.043239   -0.199605
     11          7           0        2.998200   -0.355365   -1.200588
     12          8           0        4.298195   -0.291528   -0.661329
     13          6           0        4.212752    0.032326    0.637278
     14          6           0        2.918902    0.205153    1.011750
     15          1           0       -1.611057   -2.887533    0.441378
     16          1           0       -3.312728   -2.763416    0.932747
     17          1           0       -2.900241   -2.902416   -0.780930
     18          1           0       -1.155925    2.770089    1.080476
     19          1           0       -0.577545    2.569138   -0.574961
     20          1           0       -2.178000    3.303823   -0.272083
     21          1           0        0.172326    0.300203    1.554147
     22          1           0        0.058480   -1.367137    0.993722
     23          1           0        0.550333   -0.313180   -1.304410
     24          1           0        5.151165    0.107857    1.168557
     25          1           0        2.537152    0.477267    1.983099
 ---------------------------------------------------------------------

 SCF Done:  E(UB3LYP) =  -664.400928981     A.U. after   33 cycles
 SCF Done:  E(UB3LYP) =  -664.400928981     a.u. after    1 cycles

 The electronic state is 2-A.
 Alpha  occ. eigenvalues --  -19.11479 -19.11210 -14.26426 -14.25480 -14.24276
 Alpha  occ. eigenvalues --  -10.15504 -10.15224 -10.14935 -10.12722 -10.12509
 Alpha  occ. eigenvalues --  -10.09237 -10.09167 -10.08835 -10.08784  -1.04823
 Alpha  occ. eigenvalues --   -1.04736  -0.86437  -0.79014  -0.76197  -0.72390
 Alpha  occ. eigenvalues --   -0.70059  -0.64582  -0.63731  -0.60080  -0.53276
 Alpha  occ. eigenvalues --   -0.50704  -0.49879  -0.47426  -0.45436  -0.41256
 Alpha  occ. eigenvalues --   -0.39250  -0.38887  -0.37989  -0.37135  -0.35582
 Alpha  occ. eigenvalues --   -0.34779  -0.33933  -0.33221  -0.32280  -0.31686
 Alpha  occ. eigenvalues --   -0.30801  -0.29977  -0.29575  -0.28316  -0.24936
 Alpha  occ. eigenvalues --   -0.22028  -0.21696  -0.19759  -0.17731  -0.16609
 Alpha  occ. eigenvalues --   -0.14245   0.03971
 Alpha virt. eigenvalues --    0.05929   0.06961   0.07114   0.07377   0.08049
 Alpha virt. eigenvalues --    0.08934   0.09584   0.10387   0.11059   0.11134
 Alpha virt. eigenvalues --    0.12083   0.12909   0.13149   0.13490   0.13928

  Beta  occ. eigenvalues --  -19.11480 -19.11204 -14.26423 -14.25477 -14.24268
  Beta  occ. eigenvalues --  -10.15501 -10.15225 -10.14919 -10.12681 -10.12509
  Beta  occ. eigenvalues --  -10.09235 -10.09105 -10.08802 -10.08763  -1.04819
  Beta  occ. eigenvalues --   -1.04728  -0.86421  -0.79005  -0.76183  -0.72367
  Beta  occ. eigenvalues --   -0.70028  -0.64528  -0.63686  -0.60020  -0.53238
  Beta  occ. eigenvalues --   -0.50677  -0.49846  -0.47392  -0.45388  -0.41212
  Beta  occ. eigenvalues --   -0.39219  -0.38833  -0.37973  -0.37078  -0.35542
  Beta  occ. eigenvalues --   -0.34744  -0.33897  -0.33184  -0.32227  -0.31643
  Beta  occ. eigenvalues --   -0.30757  -0.29955  -0.29552  -0.28288  -0.24920
  Beta  occ. eigenvalues --   -0.22022  -0.21678  -0.19747  -0.17709  -0.16587
  Beta  occ. eigenvalues --   -0.14229
  Beta virt. eigenvalues --    0.06540   0.07110   0.07148   0.07393   0.07558
  Beta virt. eigenvalues --    0.08773   0.09491   0.10475   0.10832   0.11268
  Beta virt. eigenvalues --    0.11619   0.12349   0.13151   0.13328   0.13645

 Mulliken charges and spin densities:
               1          2
     1  C    1.741581  -2.259928
     2  C   -1.032479   1.004616
     3  C   -0.944760   2.014203
     4  C   -1.019350   1.575211
     5  N   -0.433832   0.042048
     6  O    0.200708   0.017332
     7  C    0.405005  -0.855932
     8  C    1.687662  -3.581856
     9  N   -0.026282   0.064310
    10  C    1.273674  -1.489478
    11  N   -0.482891   0.074880
    12  O    0.131766  -0.011016
    13  C    1.076429  -1.465386
    14  C   -0.707153   0.992180
    15  H   -0.554138   0.728572
    16  H   -0.332761   0.512514
    17  H   -0.297648   0.472420
    18  H   -0.186035   0.353609
    19  H    0.127898   0.056276
    20  H    0.095824   0.062207
    21  H   -0.004975   0.173869
    22  H   -0.206157   0.369960
    23  H    0.302460  -0.043552
    24  H   -0.695168   0.879211
    25  H   -1.119379   1.313729
 Sum of Mulliken charges =  -1.00000   1.00000

 Dipole moment (field-independent basis, Debye):
    X=             -1.3492    Y=              2.5441    Z=             -3.6920  Tot=              4.6823
 Quadrupole moment (field-independent basis, Debye-Ang):
   XX=           -161.7023   YY=           -125.2870   ZZ=           -122.9278
   XY=             -5.1703   XZ=             -6.3412   YZ=             -1.7321

 Summary of Natural Population Analysis:

                                       Natural Population
                Natural  -----------------------------------------------
    Atom  No    Charge         Core      Valence    Rydberg      Total
 -----------------------------------------------------------------------
      C    1   -0.30967      0.99962     2.30390    0.00614     3.30967
      C    2    0.18837      0.99943     1.79766    0.01454     2.81163
      C    3   -0.09266      0.99939     2.08147    0.01180     3.09266
      C    4    0.09609      0.99956     1.88975    0.01460     2.90391
      N    5   -0.09020      0.99966     2.57836    0.01217     3.59020
      O    6   -0.17199      0.99985     3.16370    0.00844     4.17199
      C    7   -0.30369      0.99962     2.29859    0.00548     3.30369
      C    8   -0.09211      0.99958     2.08126    0.01127     3.09211
      N    9   -0.31572      0.99967     2.80618    0.00987     3.81572
      C   10    0.17323      0.99959     1.80969    0.01749     2.82677
      N   11   -0.11331      0.99967     2.60167    0.01197     3.61331
      O   12   -0.16729      0.99987     3.15880    0.00863     4.16729
      C   13    0.09166      0.99956     1.89350    0.01528     2.90834
      C   14   -0.18138      0.99952     2.17245    0.00942     3.18138
      H   15    0.11443      0.00000     0.38357    0.00200     0.38557
      H   16    0.11373      0.00000     0.38482    0.00145     0.38627
      H   17    0.11284      0.00000     0.38560    0.00156     0.38716
      H   18    0.11115      0.00000     0.38767    0.00119     0.38885
      H   19    0.11353      0.00000     0.38531    0.00116     0.38647
      H   20    0.10828      0.00000     0.39075    0.00097     0.39172
      H   21    0.10550      0.00000     0.39162    0.00287     0.39450
      H   22    0.09817      0.00000     0.39940    0.00244     0.40183
      H   23    0.18890      0.00000     0.30829    0.00281     0.31110
      H   24    0.10051      0.00000     0.39784    0.00165     0.39949
      H   25    0.12164      0.00000     0.37390    0.00445     0.37836
 =======================================================================
   * Total *   -0.00000     13.99460    36.82575    0.17965    51.00000

 Normal termination of Gaussian 16 at Thu Dec 10 10:57:51 2020.
