 Gaussian 16, Revision A.03,

 -----------------------------------------------------------
 # opt freq B3LYP/6-31G(d) empiricaldispersion=gd3bj scf=xqc
 -----------------------------------------------------------

 ------------------------------
 CID_23109132_JID_2033_neutraal
 ------------------------------
 Symbolic Z-matrix:
 Charge =  0 Multiplicity = 1

 SCF Done:  E(RB3LYP) =  -584.474812721     A.U. after   15 cycles
 SCF Done:  E(RB3LYP) =  -584.485042134     A.U. after   13 cycles
 SCF Done:  E(RB3LYP) =  -584.486229473     A.U. after   12 cycles
 SCF Done:  E(RB3LYP) =  -584.486400544     A.U. after   11 cycles
 SCF Done:  E(RB3LYP) =  -584.486438469     A.U. after   11 cycles
 SCF Done:  E(RB3LYP) =  -584.486442201     A.U. after   10 cycles
 SCF Done:  E(RB3LYP) =  -584.486444595     A.U. after    8 cycles
 Optimization completed.
    -- Stationary point found.
 Normal termination of Gaussian 16 at Wed Dec  9 16:42:39 2020.

 --------------------------------------------------------------------
 #N Geom=AllCheck Guess=TCheck SCRF=Check GenChk RB3LYP/6-31G(d) Freq
 --------------------------------------------------------------------

 Structure from the checkpoint file:  "JID_2033.chk"
 ------------------------------
 CID_23109132_JID_2033_neutraal
 ------------------------------
 Charge =  0 Multiplicity = 1

 SCF Done:  E(RB3LYP) =  -584.486444595     A.U. after    2 cycles

  Exact polarizability: 159.784  -1.809  94.839   0.001  -0.000  35.652
 Approx polarizability: 281.914   6.802 178.153   0.004  -0.001  56.798

                      1                      2                      3
                      A                      A                      A
 Frequencies --     70.6989                98.5448               219.7825
 Red. masses --      8.7367                 7.5095                 7.8888
 Frc consts  --      0.0257                 0.0430                 0.2245
 IR Inten    --      0.2667                 0.3445                 1.1052

                      4                      5                      6
                      A                      A                      A
 Frequencies --    253.1401               267.9275               367.6459
 Red. masses --      4.2023                 6.3902                10.0144
 Frc consts  --      0.1587                 0.2703                 0.7975
 IR Inten    --      1.7972                 0.0921                 1.6276

                      7                      8                      9
                      A                      A                      A
 Frequencies --    409.9511               415.9408               548.6804
 Red. masses --      2.9350                 7.0787                 1.7836
 Frc consts  --      0.2906                 0.7215                 0.3164
 IR Inten    --      5.4209                 0.8494                59.1277

                     10                     11                     12
                      A                      A                      A
 Frequencies --    562.4044               592.4538               603.2293
 Red. masses --      6.8898                 1.7664                 6.1563
 Frc consts  --      1.2840                 0.3653                 1.3199
 IR Inten    --      9.6347                57.4736                30.4952

                     13                     14                     15
                      A                      A                      A
 Frequencies --    644.8640               649.8996               750.5612
 Red. masses --      4.1013                 5.2058                 2.7964
 Frc consts  --      1.0049                 1.2955                 0.9281
 IR Inten    --      7.0166                73.9302                29.9336

                     16                     17                     18
                      A                      A                      A
 Frequencies --    756.8153               766.8805               820.1285
 Red. masses --      5.6370                 7.3787                 2.1194
 Frc consts  --      1.9023                 2.5567                 0.8399
 IR Inten    --      7.1447                31.3419                18.1693

                     19                     20                     21
                      A                      A                      A
 Frequencies --    836.5651               917.7195               939.5783
 Red. masses --      4.8197                 1.4463                 9.0622
 Frc consts  --      1.9873                 0.7177                 4.7136
 IR Inten    --      0.6968                21.9805                 3.5980

                     22                     23                     24
                      A                      A                      A
 Frequencies --    952.2887               955.9210               968.9938
 Red. masses --      1.3991                 1.2858                 4.4729
 Frc consts  --      0.7475                 0.6923                 2.4744
 IR Inten    --      4.5181                 2.0623                17.7328

                     25                     26                     27
                      A                      A                      A
 Frequencies --   1082.1407              1147.6802              1176.1575
 Red. masses --      3.3790                 3.6468                 1.6063
 Frc consts  --      2.3313                 2.8301                 1.3092
 IR Inten    --    229.6889               197.1863                89.4646

                     28                     29                     30
                      A                      A                      A
 Frequencies --   1192.8576              1238.2268              1294.4186
 Red. masses --      2.3256                 2.3227                 1.8104
 Frc consts  --      1.9497                 2.0982                 1.7872
 IR Inten    --    312.1058                47.8284                 9.9661

                     31                     32                     33
                      A                      A                      A
 Frequencies --   1324.0054              1380.8279              1387.2750
 Red. masses --      2.7471                 3.0774                 2.6911
 Frc consts  --      2.8373                 3.4571                 3.0514
 IR Inten    --     16.1640                92.5731               226.2697

                     34                     35                     36
                      A                      A                      A
 Frequencies --   1420.7184              1457.8526              1470.0870
 Red. masses --      2.2576                 2.8489                 4.7701
 Frc consts  --      2.6848                 3.5674                 6.0738
 IR Inten    --    270.7817                43.7740                 3.0973

                     37                     38                     39
                      A                      A                      A
 Frequencies --   1582.8156              1628.2647              1692.8916
 Red. masses --      4.9235                 7.1096                 6.9924
 Frc consts  --      7.2674                11.1057                11.8068
 IR Inten    --      1.2104                55.3390               121.5269

                     40                     41                     42
                      A                      A                      A
 Frequencies --   1867.5592              3232.7136              3237.8968
 Red. masses --     10.7100                 1.0919                 1.0947
 Frc consts  --     22.0084                 6.7233                 6.7617
 IR Inten    --    390.9134                 3.1632                24.4912

                     43                     44                     45
                      A                      A                      A
 Frequencies --   3281.0373              3303.1081              3722.8868
 Red. masses --      1.0934                 1.0936                 1.0648
 Frc consts  --      6.9348                 7.0301                 8.6955
 IR Inten    --      7.6798                 4.3589               160.1612

 - Thermochemistry -
 -------------------
 Temperature   298.150 Kelvin.  Pressure   1.00000 Atm.
 Atom     1 has atomic number  6 and mass  12.00000

 Molecular mass:   163.03818 amu.
 Principal axes and moments of inertia in atomic units:
                           1         2         3
     Eigenvalues --   670.161282875.196443545.35772
           X            0.99997  -0.00778  -0.00000
           Y            0.00778   0.99997   0.00000
           Z            0.00000  -0.00000   1.00000
 This molecule is an asymmetric top.
 Rotational symmetry number  1.
 Warning -- assumption of classical behavior for rotation
           may cause significant error
 Rotational temperatures (Kelvin)      0.12924     0.03012     0.02443
 Rotational constants (GHZ):           2.69300     0.62769     0.50904
 Zero-point vibrational energy     319953.4 (Joules/Mol)
                                   76.47071 (Kcal/Mol)
 Warning -- explicit consideration of  12 degrees of freedom as
           vibrations may cause significant error
 Vibrational temperatures:    101.72   141.78   316.22   364.21   385.49
          (Kelvin)            528.96   589.83   598.45   789.43   809.17
                              852.41   867.91   927.82   935.06  1079.89
                             1088.89  1103.37  1179.98  1203.63  1320.39
                             1351.84  1370.13  1375.36  1394.17  1556.96
                             1651.26  1692.23  1716.26  1781.53  1862.38
                             1904.95  1986.70  1995.98  2044.10  2097.52
                             2115.13  2277.32  2342.71  2435.69  2687.00
                             4651.15  4658.61  4720.68  4752.44  5356.40

 Zero-point correction=                           0.121864 (Hartree/Particle)
 Thermal correction to Energy=                    0.130407
 Thermal correction to Enthalpy=                  0.131351
 Thermal correction to Gibbs Free Energy=         0.087591
 Sum of electronic and zero-point Energies=           -584.364581
 Sum of electronic and thermal Energies=              -584.356037
 Sum of electronic and thermal Enthalpies=            -584.355093
 Sum of electronic and thermal Free Energies=         -584.398854

                     E (Thermal)             CV                S
                      KCal/Mol        Cal/Mol-Kelvin    Cal/Mol-Kelvin
 Total                   81.832             33.462             92.103
 Electronic               0.000              0.000              0.000
 Translational            0.889              2.981             41.175
 Rotational               0.889              2.981             30.303
 Vibrational             80.054             27.500             20.625
 Vibration     1          0.598              1.968              4.134
 Vibration     2          0.604              1.950              3.483
 Vibration     3          0.647              1.811              1.961
 Vibration     4          0.664              1.757              1.709
 Vibration     5          0.673              1.732              1.610
 Vibration     6          0.740              1.539              1.090
 Vibration     7          0.774              1.449              0.927
 Vibration     8          0.779              1.436              0.906
 Vibration     9          0.904              1.143              0.547
 Vibration    10          0.918              1.113              0.519
 Vibration    11          0.950              1.048              0.463
 Vibration    12          0.962              1.025              0.444

 Optimization completed.
    -- Stationary point found.
 Normal termination of Gaussian 16 at Wed Dec  9 16:45:52 2020.

 ----------------------------------------------------------------------
 # B3LYP/6-311++G(d,p) empiricaldispersion=gd3bj scf=xqc pop=npa geom=c
 heck
 ----------------------------------------------------------------------

 --------------------------------------
 CID_23109132_JID_2033_Energie_neutraal
 --------------------------------------
 Structure from the checkpoint file:  "JID_2033.chk"
 Charge =  0 Multiplicity = 1

 SCF Done:  E(RB3LYP) =  -584.652591634     A.U. after   15 cycles
 Normal termination of Gaussian 16 at Wed Dec  9 16:46:54 2020.

 ----------------------------------------------------------------------
 # B3LYP/6-311++G(d,p) empiricaldispersion=gd3bj scf=xqc pop=npa geom=c
 heck
 ----------------------------------------------------------------------

 ------------------------------------
 CID_23109132_JID_2033_Energie_kation
 ------------------------------------
 Structure from the checkpoint file:  "JID_2033.chk"
 Charge =  1 Multiplicity = 2

 SCF Done:  E(UB3LYP) =  -584.327368492     A.U. after   24 cycles
 Normal termination of Gaussian 16 at Wed Dec  9 16:49:00 2020.
 Gaussian 16:  ES64L-G16RevA.03 25-Dec-2016

 ----------------------------------------------------------------------
 # B3LYP/6-311++G(d,p) empiricaldispersion=gd3bj scf=xqc pop=npa geom=c
 heck
 ----------------------------------------------------------------------

 -----------------------------------
 CID_23109132_JID_2033_Energie_anion
 -----------------------------------
 Structure from the checkpoint file:  "JID_2033.chk"
 Charge = -1 Multiplicity = 2

                         Standard orientation:
 ---------------------------------------------------------------------
 Center     Atomic      Atomic             Coordinates (Angstroms)
 Number     Number       Type             X           Y           Z
 ---------------------------------------------------------------------
      1          6           0        0.620078    1.752102   -0.000021
      2          6           0       -0.693377    1.384533   -0.000068
      3          7           0       -1.073713    0.042772   -0.000099
      4          6           0       -0.143895   -0.982987   -0.000064
      5          6           0        1.178678   -0.658438   -0.000012
      6          6           0        1.606583    0.736365    0.000006
      7          7           0        2.935555    0.784743    0.000053
      8          6           0        3.276403   -0.556570    0.000049
      9          7           0        2.299843   -1.457693    0.000019
     10          6           0       -2.441155   -0.339839   -0.000158
     11          8           0       -2.814401   -1.486429    0.000060
     12          8           0       -3.253215    0.732004    0.000137
     13          1           0        0.885769    2.803126   -0.000003
     14          1           0       -1.507987    2.090928   -0.000088
     15          1           0       -0.547889   -1.985429   -0.000087
     16          1           0        4.320371   -0.851767    0.000089
     17          1           0       -4.161021    0.378795    0.000318
 ---------------------------------------------------------------------

 SCF Done:  E(UB3LYP) =  -584.685882141     A.U. after   20 cycles

 The electronic state is 2-A.
 Alpha  occ. eigenvalues --  -19.06138 -18.97806 -14.24852 -14.12859 -14.12786
 Alpha  occ. eigenvalues --  -10.18780 -10.07233 -10.05082 -10.04810 -10.04190
 Alpha  occ. eigenvalues --  -10.03522 -10.03189  -1.00538  -0.90684  -0.84719
 Alpha  occ. eigenvalues --   -0.82091  -0.69062  -0.65205  -0.62206  -0.54417
 Alpha  occ. eigenvalues --   -0.49852  -0.47519  -0.44061  -0.39149  -0.37934
 Alpha  occ. eigenvalues --   -0.36122  -0.35999  -0.34035  -0.31418  -0.30408
 Alpha  occ. eigenvalues --   -0.28214  -0.27105  -0.26292  -0.24109  -0.23130
 Alpha  occ. eigenvalues --   -0.21353  -0.17215  -0.16347  -0.12723  -0.10620
 Alpha  occ. eigenvalues --   -0.10344  -0.08756   0.03060
 Alpha virt. eigenvalues --    0.07595   0.10224   0.11319   0.12096   0.12875
 Alpha virt. eigenvalues --    0.13242   0.14855   0.16209   0.16680   0.16704
 Alpha virt. eigenvalues --    0.17664   0.18169   0.18900   0.19486   0.19767

  Beta  occ. eigenvalues --  -19.06079 -18.97579 -14.24822 -14.12763 -14.12725
  Beta  occ. eigenvalues --  -10.18417 -10.06999 -10.04975 -10.04311 -10.04235
  Beta  occ. eigenvalues --  -10.03645 -10.02876  -1.00214  -0.90330  -0.84361
  Beta  occ. eigenvalues --   -0.81820  -0.68783  -0.64932  -0.61506  -0.53919
  Beta  occ. eigenvalues --   -0.49762  -0.46964  -0.43796  -0.38931  -0.37595
  Beta  occ. eigenvalues --   -0.35951  -0.34625  -0.33727  -0.31276  -0.30187
  Beta  occ. eigenvalues --   -0.27292  -0.26902  -0.26076  -0.23301  -0.22982
  Beta  occ. eigenvalues --   -0.20220  -0.17017  -0.15324  -0.12555  -0.10516
  Beta  occ. eigenvalues --   -0.09234  -0.07263
  Beta virt. eigenvalues --    0.07588   0.09547   0.10191   0.11298   0.12863
  Beta virt. eigenvalues --    0.13004   0.13221   0.15100   0.16191   0.16684
  Beta virt. eigenvalues --    0.17633   0.18148   0.18784   0.18904   0.19736

 Mulliken charges and spin densities:
               1          2
     1  C    0.376632  -0.085414
     2  C   -0.584407   0.188801
     3  N    0.016728  -0.042185
     4  C   -0.337217   0.459959
     5  C    0.051635  -0.082596
     6  C   -0.791030   0.171143
     7  N   -0.235321   0.018026
     8  C    0.134220   0.081756
     9  N   -0.254892   0.053474
    10  C    0.365875   0.171187
    11  O   -0.420133   0.094386
    12  O   -0.256581   0.018398
    13  H    0.141355   0.005333
    14  H    0.179664  -0.012870
    15  H    0.193283  -0.031214
    16  H    0.125601  -0.007422
    17  H    0.294589  -0.000763
 Sum of Mulliken charges =  -1.00000   1.00000

 Dipole moment (field-independent basis, Debye):
    X=             -6.0630    Y=              2.9442    Z=             -0.0006  Tot=              6.7401
 Quadrupole moment (field-independent basis, Debye-Ang):
   XX=            -99.1359   YY=            -86.8275   ZZ=            -74.9207
   XY=             -6.6787   XZ=              0.0003   YZ=              0.0001

 Summary of Natural Population Analysis:

                                       Natural Population
                Natural  -----------------------------------------------
    Atom  No    Charge         Core      Valence    Rydberg      Total
 -----------------------------------------------------------------------
      C    1   -0.15284      0.99953     2.14467    0.00864     3.15284
      C    2    0.04937      0.99958     1.94011    0.01094     2.95063
      N    3   -0.22104      0.99962     2.71203    0.00939     3.72104
      C    4    0.14926      0.99951     1.84067    0.01056     2.85074
      C    5    0.00227      0.99949     1.98156    0.01668     2.99773
      C    6    0.12369      0.99952     1.85893    0.01787     2.87631
      N    7   -0.28836      0.99971     2.77722    0.01143     3.78836
      C    8    0.12815      0.99969     1.85219    0.01997     2.87185
      N    9   -0.26342      0.99971     2.75183    0.01187     3.76342
      C   10    0.51384      0.99975     1.46246    0.02394     2.48616
      O   11   -0.30552      0.99987     3.29940    0.00625     4.30552
      O   12   -0.35035      0.99987     3.34516    0.00532     4.35035
      H   13    0.10024      0.00000     0.39815    0.00162     0.39976
      H   14    0.10016      0.00000     0.39883    0.00101     0.39984
      H   15    0.10401      0.00000     0.39482    0.00118     0.39599
      H   16    0.07128      0.00000     0.42761    0.00111     0.42872
      H   17    0.23927      0.00000     0.25817    0.00256     0.26073
 =======================================================================
   * Total *    0.00000     11.99584    29.84380    0.16036    42.00000

 Normal termination of Gaussian 16 at Wed Dec  9 16:50:54 2020.
