 Gaussian 16, Revision A.03,

 -----------------------------------------------------------
 # opt freq B3LYP/6-31G(d) empiricaldispersion=gd3bj scf=xqc
 -----------------------------------------------------------

 -------------------------------
 CID_102793643_JID_8980_neutraal
 -------------------------------
 Symbolic Z-matrix:
 Charge =  0 Multiplicity = 1

 SCF Done:  E(RB3LYP) =  -783.060313812     A.U. after   14 cycles
 SCF Done:  E(RB3LYP) =  -783.066314671     A.U. after   12 cycles
 SCF Done:  E(RB3LYP) =  -783.066945052     A.U. after   11 cycles
 SCF Done:  E(RB3LYP) =  -783.067046720     A.U. after   11 cycles
 SCF Done:  E(RB3LYP) =  -783.067090868     A.U. after   10 cycles
 SCF Done:  E(RB3LYP) =  -783.067126697     A.U. after   10 cycles
 SCF Done:  E(RB3LYP) =  -783.067160102     A.U. after   11 cycles
 SCF Done:  E(RB3LYP) =  -783.067172125     A.U. after    9 cycles
 SCF Done:  E(RB3LYP) =  -783.067180570     A.U. after    8 cycles
 SCF Done:  E(RB3LYP) =  -783.067182276     A.U. after    9 cycles
 SCF Done:  E(RB3LYP) =  -783.067183971     A.U. after    8 cycles
 SCF Done:  E(RB3LYP) =  -783.067184023     A.U. after    7 cycles
 SCF Done:  E(RB3LYP) =  -783.067184089     A.U. after    7 cycles
 SCF Done:  E(RB3LYP) =  -783.067184175     A.U. after    7 cycles
 SCF Done:  E(RB3LYP) =  -783.067184224     A.U. after    7 cycles
 Optimization completed.
    -- Stationary point found.
 Normal termination of Gaussian 16 at Fri Dec 11 23:15:23 2020.

 --------------------------------------------------------------------
 #N Geom=AllCheck Guess=TCheck SCRF=Check GenChk RB3LYP/6-31G(d) Freq
 --------------------------------------------------------------------

 Structure from the checkpoint file:  "JID_8980.chk"
 -------------------------------
 CID_102793643_JID_8980_neutraal
 -------------------------------
 Charge =  0 Multiplicity = 1

 SCF Done:  E(RB3LYP) =  -783.067184224     A.U. after    1 cycles

  Exact polarizability: 222.749   1.001 153.848   1.956  -2.662 122.018
 Approx polarizability: 256.165  -1.035 242.776   7.087 -10.277 190.911

                      1                      2                      3
                      A                      A                      A
 Frequencies --     19.7805                26.0346                63.1607
 Red. masses --      3.7470                 3.0964                 4.6953
 Frc consts  --      0.0009                 0.0012                 0.0110
 IR Inten    --      0.9547                 0.4414                 0.4871

                      4                      5                      6
                      A                      A                      A
 Frequencies --     72.3311               112.5478               161.6122
 Red. masses --      4.0151                 3.9606                 3.5548
 Frc consts  --      0.0124                 0.0296                 0.0547
 IR Inten    --      0.1600                 1.9212                 3.6679

                      7                      8                      9
                      A                      A                      A
 Frequencies --    172.4851               189.2437               214.6277
 Red. masses --      2.8622                 2.7431                 2.1326
 Frc consts  --      0.0502                 0.0579                 0.0579
 IR Inten    --      0.3205                 0.4132                 3.4569

                     10                     11                     12
                      A                      A                      A
 Frequencies --    235.0841               241.6381               283.7399
 Red. masses --      1.0700                 2.9691                 1.1433
 Frc consts  --      0.0348                 0.1021                 0.0542
 IR Inten    --      0.0767                 1.6674                 0.4225

                     13                     14                     15
                      A                      A                      A
 Frequencies --    292.3633               297.3426               311.4794
 Red. masses --      1.6880                 1.5678                 3.2987
 Frc consts  --      0.0850                 0.0817                 0.1886
 IR Inten    --      2.1222                 0.5743                 1.1739

                     16                     17                     18
                      A                      A                      A
 Frequencies --    338.1095               347.3231               353.9894
 Red. masses --      1.7698                 2.8672                 2.8769
 Frc consts  --      0.1192                 0.2038                 0.2124
 IR Inten    --      1.3414                 0.8095                 1.8903

                     19                     20                     21
                      A                      A                      A
 Frequencies --    364.5650               369.3686               408.8446
 Red. masses --      2.6400                 3.3224                 2.6367
 Frc consts  --      0.2067                 0.2671                 0.2597
 IR Inten    --      1.2813                 0.7408                22.3603

                     22                     23                     24
                      A                      A                      A
 Frequencies --    456.6584               470.6703               494.1845
 Red. masses --      3.3511                 3.2253                 3.2483
 Frc consts  --      0.4117                 0.4210                 0.4674
 IR Inten    --      7.4721                 1.3237                 5.8893

                     25                     26                     27
                      A                      A                      A
 Frequencies --    507.4208               544.8074               569.4420
 Red. masses --      1.4012                 2.6035                 3.8011
 Frc consts  --      0.2126                 0.4553                 0.7262
 IR Inten    --     42.6402                 2.8032                10.7405

                     28                     29                     30
                      A                      A                      A
 Frequencies --    601.1889               623.5150               720.4773
 Red. masses --      2.1658                 3.2867                 5.6694
 Frc consts  --      0.4612                 0.7528                 1.7339
 IR Inten    --     13.2657                 4.5749                16.3960

                     31                     32                     33
                      A                      A                      A
 Frequencies --    760.3271               779.3289               803.9201
 Red. masses --      3.1741                 8.0299                 1.8261
 Frc consts  --      1.0811                 2.8734                 0.6954
 IR Inten    --      4.0260                 2.4742                32.5524

                     34                     35                     36
                      A                      A                      A
 Frequencies --    841.8014               848.6520               865.0070
 Red. masses --      2.2882                 2.4339                 2.5322
 Frc consts  --      0.9554                 1.0328                 1.1163
 IR Inten    --     15.9843                16.0654                 0.5922

                     37                     38                     39
                      A                      A                      A
 Frequencies --    905.8014               922.6926               946.1486
 Red. masses --      1.4103                 2.3537                 1.7811
 Frc consts  --      0.6818                 1.1806                 0.9394
 IR Inten    --      2.3523                21.2492                 0.7682

                     40                     41                     42
                      A                      A                      A
 Frequencies --    956.0871               966.3373               979.0078
 Red. masses --      1.7506                 4.1216                 2.0899
 Frc consts  --      0.9428                 2.2676                 1.1802
 IR Inten    --      4.1449                12.2345                 3.4739

                     43                     44                     45
                      A                      A                      A
 Frequencies --    980.2539               981.6496              1032.8782
 Red. masses --      1.2025                 1.4204                 1.4164
 Frc consts  --      0.6808                 0.8065                 0.8903
 IR Inten    --      0.0757                 3.8452                 0.2125

                     46                     47                     48
                      A                      A                      A
 Frequencies --   1053.9376              1057.8603              1064.7532
 Red. masses --      5.5742                 1.4216                 1.3922
 Frc consts  --      3.6481                 0.9373                 0.9299
 IR Inten    --     16.8869                 1.6899                 0.0364

                     49                     50                     51
                      A                      A                      A
 Frequencies --   1072.7484              1083.1985              1107.6696
 Red. masses --      3.4984                 2.4210                 1.8899
 Frc consts  --      2.3720                 1.6736                 1.3662
 IR Inten    --      6.2036                 4.6811                 0.2655

                     52                     53                     54
                      A                      A                      A
 Frequencies --   1124.2853              1143.5044              1154.2883
 Red. masses --      3.2395                 2.3402                 2.6663
 Frc consts  --      2.4126                 1.8029                 2.0931
 IR Inten    --      7.3009                 9.4391                 1.2944

                     55                     56                     57
                      A                      A                      A
 Frequencies --   1169.3608              1181.9913              1199.5115
 Red. masses --      2.1995                 2.2545                 1.8272
 Frc consts  --      1.7720                 1.8558                 1.5490
 IR Inten    --     30.3046                 1.1222                17.1005

                     58                     59                     60
                      A                      A                      A
 Frequencies --   1206.5185              1218.8144              1234.9875
 Red. masses --      1.4200                 1.9315                 1.9786
 Frc consts  --      1.2178                 1.6905                 1.7780
 IR Inten    --      8.9993                 3.4413                 4.9631

                     61                     62                     63
                      A                      A                      A
 Frequencies --   1245.9221              1251.0258              1263.6438
 Red. masses --      2.6817                 1.6883                 1.4485
 Frc consts  --      2.4527                 1.5568                 1.3627
 IR Inten    --      2.9303                24.8319                15.5864

                     64                     65                     66
                      A                      A                      A
 Frequencies --   1267.3868              1296.8735              1308.9643
 Red. masses --      2.6708                 1.2813                 2.3472
 Frc consts  --      2.5276                 1.2696                 2.3695
 IR Inten    --     20.4235                 4.4694                75.4453

                     67                     68                     69
                      A                      A                      A
 Frequencies --   1327.2102              1343.2896              1353.8222
 Red. masses --      1.3079                 1.3854                 1.3027
 Frc consts  --      1.3574                 1.4729                 1.4067
 IR Inten    --      4.8384                15.8313                 7.8431

                     70                     71                     72
                      A                      A                      A
 Frequencies --   1374.8438              1383.0804              1391.6642
 Red. masses --      1.4109                 1.4315                 1.4209
 Frc consts  --      1.5712                 1.6133                 1.6214
 IR Inten    --     17.2038                 3.1923                 0.7515

                     73                     74                     75
                      A                      A                      A
 Frequencies --   1398.2573              1411.2659              1422.0863
 Red. masses --      1.5550                 2.9427                 1.2165
 Frc consts  --      1.7913                 3.4531                 1.4494
 IR Inten    --     21.7727                 5.1473                 4.6683

                     76                     77                     78
                      A                      A                      A
 Frequencies --   1423.2488              1437.2231              1451.7906
 Red. masses --      1.2415                 1.7087                 1.5175
 Frc consts  --      1.4817                 2.0795                 1.8845
 IR Inten    --      9.7457                 9.8818                13.1918

                     79                     80                     81
                      A                      A                      A
 Frequencies --   1455.4435              1489.9098              1495.6631
 Red. masses --      1.2381                 4.8899                 1.4687
 Frc consts  --      1.5452                 6.3954                 1.9357
 IR Inten    --      3.5839                90.5320                 9.7298

                     82                     83                     84
                      A                      A                      A
 Frequencies --   1507.5679              1511.2216              1520.5746
 Red. masses --      1.0477                 1.1017                 1.0458
 Frc consts  --      1.4030                 1.4824                 1.4246
 IR Inten    --      0.0009                 4.3923                 0.2758

                     85                     86                     87
                      A                      A                      A
 Frequencies --   1522.6047              1523.1298              1529.9643
 Red. masses --      1.1044                 1.0702                 1.0633
 Frc consts  --      1.5085                 1.4629                 1.4664
 IR Inten    --      2.4802                 4.7051                 4.7347

                     88                     89                     90
                      A                      A                      A
 Frequencies --   1534.0084              1535.6580              1550.1884
 Red. masses --      1.1008                 1.0488                 1.1480
 Frc consts  --      1.5262                 1.4572                 1.6254
 IR Inten    --      3.2659                 6.2579                 2.0351

                     91                     92                     93
                      A                      A                      A
 Frequencies --   1551.8225              1558.9761              1583.5750
 Red. masses --      1.0835                 1.1107                 3.1907
 Frc consts  --      1.5374                 1.5905                 4.7143
 IR Inten    --      0.7278                59.7684                83.4820

                     94                     95                     96
                      A                      A                      A
 Frequencies --   1632.8643              2894.0569              2926.5454
 Red. masses --      9.3791                 1.0801                 1.0735
 Frc consts  --     14.7336                 5.3302                 5.4169
 IR Inten    --    687.7035                38.8115                91.9340

                     97                     98                     99
                      A                      A                      A
 Frequencies --   3001.4155              3026.1434              3028.2045
 Red. masses --      1.0724                 1.0706                 1.0681
 Frc consts  --      5.6919                 5.7763                 5.7707
 IR Inten    --     36.9645                29.9428                11.6638

                    100                    101                    102
                      A                      A                      A
 Frequencies --   3038.2882              3041.4184              3048.4099
 Red. masses --      1.0757                 1.0361                 1.0358
 Frc consts  --      5.8506                 5.6469                 5.6709
 IR Inten    --     64.5634                22.4615                27.2275

                    103                    104                    105
                      A                      A                      A
 Frequencies --   3048.5805              3053.8398              3077.4467
 Red. masses --      1.0624                 1.0369                 1.0972
 Frc consts  --      5.8176                 5.6976                 6.1221
 IR Inten    --     21.8154                26.6576                26.2998

                    106                    107                    108
                      A                      A                      A
 Frequencies --   3084.7332              3085.7742              3094.1926
 Red. masses --      1.0894                 1.0919                 1.1052
 Frc consts  --      6.1076                 6.1260                 6.2346
 IR Inten    --     60.7031                57.2001                53.7904

                    109                    110                    111
                      A                      A                      A
 Frequencies --   3105.1950              3105.2977              3114.2346
 Red. masses --      1.1023                 1.0969                 1.1029
 Frc consts  --      6.2622                 6.2318                 6.3023
 IR Inten    --      9.8212                31.3841                28.9147

                    112                    113                    114
                      A                      A                      A
 Frequencies --   3115.9588              3124.3041              3143.0714
 Red. masses --      1.1023                 1.1004                 1.1016
 Frc consts  --      6.3060                 6.3285                 6.4121
 IR Inten    --     21.9784                55.0873                 2.9906

                    115                    116                    117
                      A                      A                      A
 Frequencies --   3147.1330              3482.1104              3679.3076
 Red. masses --      1.1008                 1.0743                 1.0810
 Frc consts  --      6.4240                 7.6746                 8.6220
 IR Inten    --     29.8847                 2.0236                57.2685

 - Thermochemistry -
 -------------------
 Temperature   298.150 Kelvin.  Pressure   1.00000 Atm.
 Atom     1 has atomic number  6 and mass  12.00000

 Molecular mass:   249.19535 amu.
 Principal axes and moments of inertia in atomic units:
                           1         2         3
     Eigenvalues --  1419.30290********************
           X            0.99998   0.00604  -0.00122
           Y           -0.00604   0.99998   0.00354
           Z            0.00124  -0.00353   0.99999
 This molecule is an asymmetric top.
 Rotational symmetry number  1.
 Warning -- assumption of classical behavior for rotation
           may cause significant error
 Rotational temperatures (Kelvin)      0.06103     0.00814     0.00755
 Rotational constants (GHZ):           1.27157     0.16966     0.15725
 Zero-point vibrational energy     961963.8 (Joules/Mol)
                                  229.91487 (Kcal/Mol)
 Warning -- explicit consideration of  28 degrees of freedom as
           vibrations may cause significant error
 Vibrational temperatures:     28.46    37.46    90.87   104.07   161.93
          (Kelvin)            232.52   248.17   272.28   308.80   338.23
                              347.66   408.24   420.65   427.81   448.15
                              486.46   499.72   509.31   524.53   531.44
                              588.24   657.03   677.19   711.02   730.07
                              783.86   819.30   864.98   897.10  1036.61
                             1093.94  1121.28  1156.66  1211.16  1221.02
                             1244.55  1303.25  1327.55  1361.30  1375.60
                             1390.34  1408.57  1410.37  1412.37  1486.08
                             1516.38  1522.03  1531.94  1543.45  1558.48
                             1593.69  1617.60  1645.25  1660.76  1682.45
                             1700.62  1725.83  1735.91  1753.60  1776.87
                             1792.60  1799.95  1818.10  1823.49  1865.91
                             1883.31  1909.56  1932.69  1947.85  1978.09
                             1989.94  2002.29  2011.78  2030.50  2046.06
                             2047.74  2067.84  2088.80  2094.06  2143.65
                             2151.93  2169.05  2174.31  2187.77  2190.69
                             2191.44  2201.28  2207.10  2209.47  2230.38
                             2232.73  2243.02  2278.41  2349.33  4163.90
                             4210.65  4318.37  4353.95  4356.91  4371.42
                             4375.92  4385.98  4386.23  4393.79  4427.76
                             4438.24  4439.74  4451.85  4467.68  4467.83
                             4480.69  4483.17  4495.18  4522.18  4528.02
                             5009.98  5293.70

 Zero-point correction=                           0.366393 (Hartree/Particle)
 Thermal correction to Energy=                    0.383586
 Thermal correction to Enthalpy=                  0.384530
 Thermal correction to Gibbs Free Energy=         0.320763
 Sum of electronic and zero-point Energies=           -782.700792
 Sum of electronic and thermal Energies=              -782.683598
 Sum of electronic and thermal Enthalpies=            -782.682654
 Sum of electronic and thermal Free Energies=         -782.746421

                     E (Thermal)             CV                S
                      KCal/Mol        Cal/Mol-Kelvin    Cal/Mol-Kelvin
 Total                  240.704             67.724            134.210
 Electronic               0.000              0.000              0.000
 Translational            0.889              2.981             42.440
 Rotational               0.889              2.981             33.515
 Vibrational            238.927             61.762             58.255
 Vibration     1          0.593              1.986              6.656
 Vibration     2          0.593              1.985              6.111
 Vibration     3          0.597              1.972              4.356
 Vibration     4          0.598              1.967              4.089
 Vibration     5          0.607              1.939              3.224
 Vibration     6          0.622              1.889              2.531
 Vibration     7          0.626              1.876              2.408
 Vibration     8          0.633              1.855              2.235
 Vibration     9          0.645              1.819              2.004
 Vibration    10          0.655              1.787              1.840
 Vibration    11          0.658              1.777              1.791
 Vibration    12          0.682              1.704              1.511
 Vibration    13          0.688              1.688              1.460
 Vibration    14          0.691              1.679              1.432
 Vibration    15          0.700              1.652              1.354
 Vibration    16          0.718              1.599              1.221
 Vibration    17          0.725              1.581              1.178
 Vibration    18          0.730              1.567              1.148
 Vibration    19          0.738              1.545              1.103
 Vibration    20          0.742              1.535              1.082
 Vibration    21          0.773              1.451              0.931
 Vibration    22          0.815              1.346              0.776
 Vibration    23          0.828              1.315              0.736
 Vibration    24          0.850              1.263              0.673
 Vibration    25          0.863              1.234              0.640
 Vibration    26          0.900              1.151              0.555
 Vibration    27          0.925              1.097              0.505
 Vibration    28          0.959              1.029              0.448

                           ! Non-Optimized Parameters !
 Normal termination of Gaussian 16 at Fri Dec 11 23:32:43 2020.

 ----------------------------------------------------------------------
 # B3LYP/6-311++G(d,p) empiricaldispersion=gd3bj scf=xqc pop=npa geom=c
 heck
 ----------------------------------------------------------------------

 ---------------------------------------
 CID_102793643_JID_8980_Energie_neutraal
 ---------------------------------------
 Structure from the checkpoint file:  "JID_8980.chk"
 Charge =  0 Multiplicity = 1

 SCF Done:  E(RB3LYP) =  -783.280558075     A.U. after   14 cycles
 Normal termination of Gaussian 16 at Fri Dec 11 23:39:41 2020.

 ----------------------------------------------------------------------
 # B3LYP/6-311++G(d,p) empiricaldispersion=gd3bj scf=xqc pop=npa geom=c
 heck
 ----------------------------------------------------------------------

 -------------------------------------
 CID_102793643_JID_8980_Energie_kation
 -------------------------------------
 Structure from the checkpoint file:  "JID_8980.chk"
 Charge =  1 Multiplicity = 2

 SCF Done:  E(UB3LYP) =  -783.021069241     A.U. after   22 cycles
 Normal termination of Gaussian 16 at Fri Dec 11 23:54:27 2020.
 Gaussian 16:  ES64L-G16RevA.03 25-Dec-2016

 ----------------------------------------------------------------------
 # B3LYP/6-311++G(d,p) empiricaldispersion=gd3bj scf=xqc pop=npa geom=c
 heck
 ----------------------------------------------------------------------

 ------------------------------------
 CID_102793643_JID_8980_Energie_anion
 ------------------------------------
 Structure from the checkpoint file:  "JID_8980.chk"
 Charge = -1 Multiplicity = 2

                         Standard orientation:
 ---------------------------------------------------------------------
 Center     Atomic      Atomic             Coordinates (Angstroms)
 Number     Number       Type             X           Y           Z
 ---------------------------------------------------------------------
      1          6           0        5.236533   -0.577496    0.378808
      2          6           0        4.135302    0.450620    0.072603
      3          6           0        4.102988    1.527139    1.176894
      4          6           0        4.407789    1.119311   -1.290429
      5          6           0        2.779970   -0.211010    0.014804
      6          7           0        1.632775    0.412140   -0.233702
      7          6           0        0.705300   -0.598062   -0.178708
      8          7           0        1.200374   -1.810322    0.091189
      9          7           0        2.539772   -1.523787    0.205465
     10          7           0       -0.622107   -0.382557   -0.395523
     11          6           0       -1.608821   -1.435481   -0.139559
     12          6           0       -2.925269   -0.691520   -0.358379
     13          6           0       -4.214453   -1.211685    0.265122
     14          6           0       -5.323725   -0.174226    0.004424
     15          6           0       -4.909522    1.233719    0.456423
     16          7           0       -3.648159    1.638508   -0.182708
     17          6           0       -2.595324    0.704518    0.183957
     18          6           0       -1.204506    0.963477   -0.395276
     19          1           0        6.210458   -0.079218    0.416441
     20          1           0        5.292027   -1.351498   -0.396214
     21          1           0        5.076726   -1.062789    1.349299
     22          1           0        5.057604    2.065002    1.209312
     23          1           0        3.299691    2.243387    0.985074
     24          1           0        3.929021    1.075397    2.159942
     25          1           0        4.454114    0.372596   -2.090919
     26          1           0        3.610315    1.826703   -1.532465
     27          1           0        5.363241    1.656109   -1.264348
     28          1           0        3.188336   -2.268478    0.405706
     29          1           0       -1.464655   -2.279683   -0.822265
     30          1           0       -1.517734   -1.824116    0.887125
     31          1           0       -3.081844   -0.575763   -1.440057
     32          1           0       -4.072761   -1.344620    1.347363
     33          1           0       -4.498787   -2.188730   -0.144341
     34          1           0       -6.248428   -0.460112    0.519627
     35          1           0       -5.542998   -0.145386   -1.070252
     36          1           0       -5.684435    1.957491    0.181057
     37          1           0       -4.831957    1.238520    1.561801
     38          1           0       -3.405185    2.578721    0.125484
     39          1           0       -2.492741    0.613049    1.285774
     40          1           0       -1.282368    1.372927   -1.412327
     41          1           0       -0.593795    1.646803    0.202035
 ---------------------------------------------------------------------

 SCF Done:  E(UB3LYP) =  -783.268840646     A.U. after   33 cycles
 SCF Done:  E(UB3LYP) =  -783.268840646     a.u. after    1 cycles

 The electronic state is 2-A.
 Alpha  occ. eigenvalues --  -14.28917 -14.23422 -14.22418 -14.21598 -14.19997
 Alpha  occ. eigenvalues --  -10.15287 -10.14606 -10.11203 -10.11177 -10.11158
 Alpha  occ. eigenvalues --  -10.10954 -10.10747 -10.08768 -10.08708 -10.08459
 Alpha  occ. eigenvalues --  -10.07451 -10.07306 -10.07241  -0.97271  -0.87064
 Alpha  occ. eigenvalues --   -0.82969  -0.79370  -0.75661  -0.71776  -0.70568
 Alpha  occ. eigenvalues --   -0.67540  -0.63779  -0.60517  -0.60116  -0.58722
 Alpha  occ. eigenvalues --   -0.55056  -0.52987  -0.51505  -0.49385  -0.48007
 Alpha  occ. eigenvalues --   -0.47352  -0.43211  -0.41881  -0.40232  -0.39193
 Alpha  occ. eigenvalues --   -0.37903  -0.37444  -0.36508  -0.35650  -0.34905
 Alpha  occ. eigenvalues --   -0.34664  -0.33241  -0.32575  -0.31727  -0.31042
 Alpha  occ. eigenvalues --   -0.30445  -0.30275  -0.30186  -0.28138  -0.28106
 Alpha  occ. eigenvalues --   -0.27331  -0.25650  -0.25395  -0.25287  -0.24786
 Alpha  occ. eigenvalues --   -0.23810  -0.23135  -0.22156  -0.21697  -0.18261
 Alpha  occ. eigenvalues --   -0.17942  -0.15056  -0.10885   0.03805
 Alpha virt. eigenvalues --    0.04820   0.06501   0.06965   0.07188   0.07415
 Alpha virt. eigenvalues --    0.07999   0.08635   0.09219   0.09646   0.09747
 Alpha virt. eigenvalues --    0.10052   0.10202   0.10373   0.10689   0.11225

  Beta  occ. eigenvalues --  -14.28891 -14.23422 -14.22415 -14.21582 -14.19995
  Beta  occ. eigenvalues --  -10.15288 -10.14606 -10.11201 -10.11173 -10.11152
  Beta  occ. eigenvalues --  -10.10947 -10.10722 -10.08768 -10.08700 -10.08447
  Beta  occ. eigenvalues --  -10.07396 -10.07287 -10.07219  -0.97257  -0.87056
  Beta  occ. eigenvalues --   -0.82947  -0.79355  -0.75643  -0.71760  -0.70545
  Beta  occ. eigenvalues --   -0.67513  -0.63764  -0.60443  -0.60076  -0.58685
  Beta  occ. eigenvalues --   -0.55020  -0.52958  -0.51468  -0.49348  -0.47977
  Beta  occ. eigenvalues --   -0.47333  -0.43170  -0.41837  -0.40209  -0.39157
  Beta  occ. eigenvalues --   -0.37880  -0.37421  -0.36487  -0.35630  -0.34876
  Beta  occ. eigenvalues --   -0.34628  -0.33216  -0.32556  -0.31710  -0.31023
  Beta  occ. eigenvalues --   -0.30427  -0.30249  -0.30150  -0.28103  -0.28076
  Beta  occ. eigenvalues --   -0.27303  -0.25625  -0.25365  -0.25247  -0.24769
  Beta  occ. eigenvalues --   -0.23787  -0.23115  -0.22136  -0.21684  -0.18258
  Beta  occ. eigenvalues --   -0.17937  -0.15020  -0.10878
  Beta virt. eigenvalues --    0.05711   0.06071   0.06870   0.07362   0.07725
  Beta virt. eigenvalues --    0.07811   0.08311   0.09094   0.09505   0.09868
  Beta virt. eigenvalues --    0.09985   0.10216   0.10428   0.10534   0.10920

 Mulliken charges and spin densities:
               1          2
     1  C    1.491765  -2.168603
     2  C   -1.290343   1.900570
     3  C    0.091353  -0.638409
     4  C    0.002072  -0.569474
     5  C    1.201429  -1.437741
     6  N   -0.094740  -0.022896
     7  C   -0.430236   0.561171
     8  N    0.100727  -0.290153
     9  N   -0.412097   0.339670
    10  N    0.051965   0.035495
    11  C   -0.785601   0.247532
    12  C    0.445539  -0.114343
    13  C   -0.379171   0.080304
    14  C   -0.165952  -0.297233
    15  C    0.652085  -0.881695
    16  N   -0.173047   0.175936
    17  C   -0.063099  -0.625214
    18  C   -0.418144  -0.127178
    19  H   -0.387514   0.565272
    20  H   -0.371035   0.515147
    21  H   -0.350402   0.497107
    22  H   -0.030685   0.186507
    23  H    0.045018   0.102558
    24  H   -0.024523   0.180324
    25  H    0.005162   0.149455
    26  H    0.105479   0.052905
    27  H   -0.046342   0.202732
    28  H    0.020408   0.316855
    29  H    0.174959   0.016113
    30  H    0.093758   0.085549
    31  H    0.147062   0.048075
    32  H    0.091654   0.046703
    33  H    0.022357   0.124417
    34  H   -0.339449   0.518729
    35  H    0.211272  -0.079561
    36  H   -0.491541   0.673079
    37  H   -0.067365   0.173521
    38  H    0.004845   0.237680
    39  H    0.063495   0.133455
    40  H    0.180159  -0.000757
    41  H    0.118721   0.086395
 Sum of Mulliken charges =  -1.00000   1.00000

 Dipole moment (field-independent basis, Debye):
    X=             -3.0213    Y=             -0.3278    Z=             -1.7649  Tot=              3.5143
 Quadrupole moment (field-independent basis, Debye-Ang):
   XX=           -257.1013   YY=           -152.8059   ZZ=           -141.5361
   XY=             18.9863   XZ=              1.5817   YZ=              1.3145

 Summary of Natural Population Analysis:

                                       Natural Population
                Natural  -----------------------------------------------
    Atom  No    Charge         Core      Valence    Rydberg      Total
 -----------------------------------------------------------------------
      C    1   -0.28816      0.99964     2.28068    0.00784     3.28816
      C    2   -0.06822      0.99955     2.05606    0.01261     3.06822
      C    3   -0.27727      0.99963     2.27188    0.00576     3.27727
      C    4   -0.27837      0.99963     2.27181    0.00693     3.27837
      C    5    0.20893      0.99957     1.77231    0.01919     2.79107
      N    6   -0.28789      0.99967     2.78112    0.00710     3.78789
      C    7    0.27127      0.99962     1.71146    0.01766     2.72873
      N    8   -0.20168      0.99971     2.69060    0.01138     3.70168
      N    9   -0.18244      0.99963     2.67077    0.01204     3.68244
      N   10   -0.25698      0.99963     2.74885    0.00850     3.75698
      C   11   -0.07353      0.99961     2.06519    0.00873     3.07353
      C   12   -0.11627      0.99956     2.10749    0.00922     3.11627
      C   13   -0.18913      0.99961     2.18043    0.00910     3.18913
      C   14   -0.19289      0.99963     2.18438    0.00888     3.19289
      C   15   -0.08696      0.99962     2.07553    0.01181     3.08696
      N   16   -0.33874      0.99972     2.82747    0.01155     3.83874
      C   17   -0.01174      0.99954     1.99930    0.01290     3.01174
      C   18   -0.07619      0.99960     2.06628    0.01030     3.07619
      H   19    0.10639      0.00000     0.39202    0.00159     0.39361
      H   20    0.10212      0.00000     0.39593    0.00196     0.39788
      H   21    0.10256      0.00000     0.39545    0.00199     0.39744
      H   22    0.09867      0.00000     0.40045    0.00089     0.40133
      H   23    0.10753      0.00000     0.39144    0.00103     0.39247
      H   24    0.10144      0.00000     0.39762    0.00094     0.39856
      H   25    0.10091      0.00000     0.39824    0.00085     0.39909
      H   26    0.10765      0.00000     0.39140    0.00095     0.39235
      H   27    0.09868      0.00000     0.40050    0.00082     0.40132
      H   28    0.20625      0.00000     0.29095    0.00280     0.29375
      H   29    0.09966      0.00000     0.39913    0.00121     0.40034
      H   30    0.09253      0.00000     0.40601    0.00146     0.40747
      H   31    0.09949      0.00000     0.39873    0.00177     0.40051
      H   32    0.09625      0.00000     0.40245    0.00130     0.40375
      H   33    0.09900      0.00000     0.40016    0.00083     0.40100
      H   34    0.10119      0.00000     0.39774    0.00107     0.39881
      H   35    0.09571      0.00000     0.40307    0.00121     0.40429
      H   36    0.09788      0.00000     0.40073    0.00139     0.40212
      H   37    0.07852      0.00000     0.41963    0.00185     0.42148
      H   38    0.17586      0.00000     0.32144    0.00270     0.32414
      H   39    0.07927      0.00000     0.41836    0.00237     0.42073
      H   40    0.09332      0.00000     0.40535    0.00133     0.40668
      H   41    0.10536      0.00000     0.39344    0.00120     0.39464
 =======================================================================
   * Total *   -0.00000     17.99318    49.78183    0.22499    68.00000

 Normal termination of Gaussian 16 at Sat Dec 12 00:15:44 2020.
