 Gaussian 16, Revision A.03,

 -----------------------------------------------------------
 # opt freq B3LYP/6-31G(d) empiricaldispersion=gd3bj scf=xqc
 -----------------------------------------------------------

 -----------------------------
 CID_14342381_JID_808_neutraal
 -----------------------------
 Symbolic Z-matrix:
 Charge =  0 Multiplicity = 1

 SCF Done:  E(RB3LYP) =  -460.132024732     A.U. after   15 cycles
 SCF Done:  E(RB3LYP) =  -460.138379304     A.U. after   13 cycles
 SCF Done:  E(RB3LYP) =  -460.139449296     A.U. after   12 cycles
 SCF Done:  E(RB3LYP) =  -460.139522181     A.U. after   12 cycles
 SCF Done:  E(RB3LYP) =  -460.139616009     A.U. after   12 cycles
 SCF Done:  E(RB3LYP) =  -460.139840212     A.U. after   12 cycles
 SCF Done:  E(RB3LYP) =  -460.139857522     A.U. after   11 cycles
 SCF Done:  E(RB3LYP) =  -460.139866488     A.U. after   11 cycles
 SCF Done:  E(RB3LYP) =  -460.139868005     A.U. after    8 cycles
 SCF Done:  E(RB3LYP) =  -460.139868327     A.U. after    8 cycles
 Optimization completed.
    -- Stationary point found.
 Normal termination of Gaussian 16 at Tue Dec  8 12:50:15 2020.

 --------------------------------------------------------------------
 #N Geom=AllCheck Guess=TCheck SCRF=Check GenChk RB3LYP/6-31G(d) Freq
 --------------------------------------------------------------------

 Structure from the checkpoint file:  "JID_808.chk"
 -----------------------------
 CID_14342381_JID_808_neutraal
 -----------------------------
 Charge =  0 Multiplicity = 1

 SCF Done:  E(RB3LYP) =  -460.139868327     A.U. after    1 cycles

  Exact polarizability: 119.802  -0.400  88.696   1.646  -0.471  47.529
 Approx polarizability: 184.769   9.335 147.385   3.526  -0.936  72.401

                      1                      2                      3
                      A                      A                      A
 Frequencies --    102.2705               137.4016               191.1762
 Red. masses --      4.1670                 2.2207                 2.5650
 Frc consts  --      0.0257                 0.0247                 0.0552
 IR Inten    --      1.1374                 1.0304                 2.6655

                      4                      5                      6
                      A                      A                      A
 Frequencies --    275.9723               314.4484               403.4436
 Red. masses --      3.4960                 5.0911                 3.5540
 Frc consts  --      0.1569                 0.2966                 0.3408
 IR Inten    --      1.3040                 0.1893                 0.0457

                      7                      8                      9
                      A                      A                      A
 Frequencies --    453.0880               507.4643               580.0543
 Red. masses --      7.0003                 5.9616                 4.6835
 Frc consts  --      0.8467                 0.9045                 0.9285
 IR Inten    --      2.6105                 1.9530                 3.6415

                     10                     11                     12
                      A                      A                      A
 Frequencies --    587.1172               647.0143               731.2643
 Red. masses --      2.6340                 3.4890                 3.3865
 Frc consts  --      0.5349                 0.8606                 1.0670
 IR Inten    --      1.0962                 3.4080                 5.4818

                     13                     14                     15
                      A                      A                      A
 Frequencies --    738.2344               790.4556               822.7273
 Red. masses --      2.8819                 6.3719                 4.6514
 Frc consts  --      0.9254                 2.3457                 1.8550
 IR Inten    --     15.8149                 1.1998                39.0461

                     16                     17                     18
                      A                      A                      A
 Frequencies --    830.9989               861.1390               913.7584
 Red. masses --      1.7807                 2.8272                 1.4683
 Frc consts  --      0.7245                 1.2353                 0.7223
 IR Inten    --     38.9515                 6.9267                 0.2523

                     19                     20                     21
                      A                      A                      A
 Frequencies --    920.2768               997.7911              1021.4764
 Red. masses --      2.2415                 1.2903                 2.3246
 Frc consts  --      1.1185                 0.7569                 1.4291
 IR Inten    --      1.3719                 0.0673                 0.5615

                     22                     23                     24
                      A                      A                      A
 Frequencies --   1067.6205              1078.4237              1134.9854
 Red. masses --      2.6918                 1.9495                 2.8560
 Frc consts  --      1.8077                 1.3358                 2.1677
 IR Inten    --      8.4409                10.0761                 9.9477

                     25                     26                     27
                      A                      A                      A
 Frequencies --   1170.5118              1203.5299              1230.2515
 Red. masses --      1.2684                 1.2951                 1.5690
 Frc consts  --      1.0239                 1.1053                 1.3992
 IR Inten    --      0.7970                 7.7475                 3.3301

                     28                     29                     30
                      A                      A                      A
 Frequencies --   1238.6615              1261.3754              1310.8546
 Red. masses --      1.3099                 1.7654                 1.4053
 Frc consts  --      1.1841                 1.6550                 1.4227
 IR Inten    --      0.6374                 3.8944                10.7462

                     31                     32                     33
                      A                      A                      A
 Frequencies --   1349.7885              1354.8705              1403.0032
 Red. masses --      1.7787                 1.4019                 3.3207
 Frc consts  --      1.9093                 1.5163                 3.8512
 IR Inten    --      2.2412                 5.4534                47.1174

                     34                     35                     36
                      A                      A                      A
 Frequencies --   1471.9670              1509.8267              1520.8664
 Red. masses --      2.7321                 1.1066                 1.0890
 Frc consts  --      3.4877                 1.4862                 1.4841
 IR Inten    --      0.6351                 4.2499                 1.5109

                     37                     38                     39
                      A                      A                      A
 Frequencies --   1538.5107              1601.4561              1694.6008
 Red. masses --      1.1140                 6.9176                 7.0342
 Frc consts  --      1.5536                10.4529                11.9015
 IR Inten    --      2.3372               190.4275                42.6950

                     40                     41                     42
                      A                      A                      A
 Frequencies --   1850.5916              3031.9844              3038.7266
 Red. masses --     12.1784                 1.0683                 1.0691
 Frc consts  --     24.5732                 5.7862                 5.8162
 IR Inten    --    579.6131                44.6483                23.7589

                     43                     44                     45
                      A                      A                      A
 Frequencies --   3073.4836              3085.7445              3099.6424
 Red. masses --      1.0784                 1.0836                 1.0904
 Frc consts  --      6.0018                 6.0791                 6.1724
 IR Inten    --      8.1230                41.9943                24.4675

                     46                     47                     48
                      A                      A                      A
 Frequencies --   3130.8222              3189.3317              3240.4954
 Red. masses --      1.1045                 1.0902                 1.0936
 Frc consts  --      6.3786                 6.5338                 6.7661
 IR Inten    --     34.5003                13.6921                 1.7861

 - Thermochemistry -
 -------------------
 Temperature   298.150 Kelvin.  Pressure   1.00000 Atm.
 Atom     1 has atomic number  6 and mass  12.00000

 Molecular mass:   136.05243 amu.
 Principal axes and moments of inertia in atomic units:
                           1         2         3
     Eigenvalues --   571.078481724.588872254.26823
           X            0.99972  -0.02369  -0.00052
           Y            0.02369   0.99972  -0.00029
           Z            0.00053   0.00028   1.00000
 This molecule is an asymmetric top.
 Rotational symmetry number  1.
 Warning -- assumption of classical behavior for rotation
           may cause significant error
 Rotational temperatures (Kelvin)      0.15167     0.05022     0.03842
 Rotational constants (GHZ):           3.16023     1.04648     0.80059
 Zero-point vibrational energy     381067.4 (Joules/Mol)
                                   91.07730 (Kcal/Mol)
 Warning -- explicit consideration of  10 degrees of freedom as
           vibrations may cause significant error
 Vibrational temperatures:    147.14   197.69   275.06   397.06   452.42
          (Kelvin)            580.47   651.89   730.13   834.57   844.73
                              930.91  1052.13  1062.15  1137.29  1183.72
                             1195.62  1238.99  1314.69  1324.07  1435.60
                             1469.68  1536.07  1551.61  1632.99  1684.11
                             1731.61  1770.06  1782.16  1814.84  1886.03
                             1942.04  1949.36  2018.61  2117.83  2172.30
                             2188.19  2213.57  2304.14  2438.15  2662.59
                             4362.35  4372.05  4422.06  4439.70  4459.69
                             4504.55  4588.74  4662.35

 Zero-point correction=                           0.145141 (Hartree/Particle)
 Thermal correction to Energy=                    0.152931
 Thermal correction to Enthalpy=                  0.153875
 Thermal correction to Gibbs Free Energy=         0.112465
 Sum of electronic and zero-point Energies=           -459.994727
 Sum of electronic and thermal Energies=              -459.986937
 Sum of electronic and thermal Enthalpies=            -459.985993
 Sum of electronic and thermal Free Energies=         -460.027404

                     E (Thermal)             CV                S
                      KCal/Mol        Cal/Mol-Kelvin    Cal/Mol-Kelvin
 Total                   95.966             30.532             87.156
 Electronic               0.000              0.000              0.000
 Translational            0.889              2.981             40.636
 Rotational               0.889              2.981             29.186
 Vibrational             94.188             24.570             17.334
 Vibration     1          0.604              1.947              3.411
 Vibration     2          0.614              1.916              2.840
 Vibration     3          0.634              1.852              2.216
 Vibration     4          0.678              1.718              1.559
 Vibration     5          0.702              1.646              1.339
 Vibration     6          0.769              1.463              0.950
 Vibration     7          0.812              1.354              0.786
 Vibration     8          0.863              1.233              0.640
 Vibration     9          0.937              1.074              0.485
 Vibration    10          0.944              1.059              0.472

 Optimization completed.
    -- Stationary point found.
 Normal termination of Gaussian 16 at Tue Dec  8 13:04:03 2020.

 ----------------------------------------------------------------------
 # B3LYP/6-311++G(d,p) empiricaldispersion=gd3bj scf=xqc pop=npa geom=c
 heck
 ----------------------------------------------------------------------

 -------------------------------------
 CID_14342381_JID_808_Energie_neutraal
 -------------------------------------
 Structure from the checkpoint file:  "JID_808.chk"
 Charge =  0 Multiplicity = 1

 SCF Done:  E(RB3LYP) =  -460.265967873     A.U. after   15 cycles
 Normal termination of Gaussian 16 at Tue Dec  8 13:06:13 2020.

 ----------------------------------------------------------------------
 # B3LYP/6-311++G(d,p) empiricaldispersion=gd3bj scf=xqc pop=npa geom=c
 heck
 ----------------------------------------------------------------------

 -----------------------------------
 CID_14342381_JID_808_Energie_kation
 -----------------------------------
 Structure from the checkpoint file:  "JID_808.chk"
 Charge =  1 Multiplicity = 2

 SCF Done:  E(UB3LYP) =  -459.959810414     A.U. after   21 cycles
 Normal termination of Gaussian 16 at Tue Dec  8 13:09:52 2020.
 Gaussian 16:  ES64L-G16RevA.03 25-Dec-2016

 ----------------------------------------------------------------------
 # B3LYP/6-311++G(d,p) empiricaldispersion=gd3bj scf=xqc pop=npa geom=c
 heck
 ----------------------------------------------------------------------

 ----------------------------------
 CID_14342381_JID_808_Energie_anion
 ----------------------------------
 Structure from the checkpoint file:  "JID_808.chk"
 Charge = -1 Multiplicity = 2

                         Standard orientation:
 ---------------------------------------------------------------------
 Center     Atomic      Atomic             Coordinates (Angstroms)
 Number     Number       Type             X           Y           Z
 ---------------------------------------------------------------------
      1          6           0        2.724382   -0.384117   -0.207404
      2          6           0        2.128214    1.022625    0.097262
      3          6           0        0.639555    0.781504    0.022660
      4          6           0        0.378054   -0.550415    0.033126
      5          6           0        1.602665   -1.410257    0.109771
      6          8           0       -0.851615   -1.081974    0.019388
      7          6           0       -2.005365   -0.247456   -0.015794
      8          8           0       -3.080466   -0.795932   -0.035515
      9          6           0       -1.735078    1.178668   -0.024114
     10          6           0       -0.467549    1.679138   -0.000565
     11          1           0        3.640438   -0.580378    0.355430
     12          1           0        2.972780   -0.445595   -1.271812
     13          1           0        2.418742    1.372305    1.097970
     14          1           0        2.479350    1.778066   -0.614832
     15          1           0        1.700451   -1.838766    1.117274
     16          1           0        1.570985   -2.250547   -0.591694
     17          1           0       -2.610980    1.815725   -0.049430
     18          1           0       -0.304379    2.754302   -0.003553
 ---------------------------------------------------------------------

 SCF Done:  E(UB3LYP) =  -460.269374099     A.U. after   32 cycles

 The electronic state is 2-A.
 Alpha  occ. eigenvalues --  -19.00715 -18.92503 -10.11775 -10.06535 -10.05095
 Alpha  occ. eigenvalues --  -10.04699 -10.04521 -10.01589 -10.00877  -9.99617
 Alpha  occ. eigenvalues --   -0.93998  -0.85838  -0.71160  -0.64355  -0.57945
 Alpha  occ. eigenvalues --   -0.56856  -0.47530  -0.46480  -0.45560  -0.36954
 Alpha  occ. eigenvalues --   -0.35259  -0.32045  -0.29929  -0.29549  -0.27693
 Alpha  occ. eigenvalues --   -0.27579  -0.26391  -0.24325  -0.22822  -0.22593
 Alpha  occ. eigenvalues --   -0.21184  -0.18948  -0.17967  -0.15483  -0.10943
 Alpha  occ. eigenvalues --   -0.06442   0.05639
 Alpha virt. eigenvalues --    0.08117   0.09885   0.10709   0.10746   0.11920
 Alpha virt. eigenvalues --    0.12888   0.13259   0.14066   0.16500   0.16968
 Alpha virt. eigenvalues --    0.17214   0.18024   0.19571   0.20097   0.20599

  Beta  occ. eigenvalues --  -19.00441 -18.92332 -10.11681 -10.06166 -10.05084
  Beta  occ. eigenvalues --  -10.04681 -10.04551 -10.01734 -10.00431  -9.99422
  Beta  occ. eigenvalues --   -0.93524  -0.85480  -0.70969  -0.63746  -0.57693
  Beta  occ. eigenvalues --   -0.56577  -0.46913  -0.46137  -0.45292  -0.36720
  Beta  occ. eigenvalues --   -0.35025  -0.31804  -0.29321  -0.28834  -0.27467
  Beta  occ. eigenvalues --   -0.27350  -0.26099  -0.24084  -0.22567  -0.22477
  Beta  occ. eigenvalues --   -0.21071  -0.17808  -0.17741  -0.13600  -0.10715
  Beta  occ. eigenvalues --   -0.04977
  Beta virt. eigenvalues --    0.08386   0.09945   0.10442   0.10799   0.12006
  Beta virt. eigenvalues --    0.12497   0.12983   0.13254   0.14013   0.16547
  Beta virt. eigenvalues --    0.17080   0.17714   0.18032   0.19721   0.20032

 Mulliken charges and spin densities:
               1          2
     1  C    0.150204  -0.420801
     2  C   -0.535253  -0.080483
     3  C    1.461016   0.117784
     4  C   -0.446184  -0.371431
     5  C   -0.652675   0.185170
     6  O   -0.177613   0.073844
     7  C    0.003085   0.096865
     8  O   -0.420465   0.054843
     9  C   -0.037936   0.228274
    10  C   -0.700362   0.528115
    11  H   -0.214523   0.351358
    12  H    0.140354  -0.030464
    13  H    0.003859   0.098169
    14  H    0.115583  -0.001159
    15  H   -0.048956   0.204869
    16  H    0.137928   0.001680
    17  H    0.124429  -0.011972
    18  H    0.097510  -0.024660
 Sum of Mulliken charges =  -1.00000   1.00000

 Dipole moment (field-independent basis, Debye):
    X=              4.1742    Y=              1.4008    Z=             -1.4504  Tot=              4.6358
 Quadrupole moment (field-independent basis, Debye-Ang):
   XX=           -101.0040   YY=            -73.6899   ZZ=            -69.0143
   XY=             -4.0316   XZ=             -5.3459   YZ=              0.9649

 Summary of Natural Population Analysis:

                                       Natural Population
                Natural  -----------------------------------------------
    Atom  No    Charge         Core      Valence    Rydberg      Total
 -----------------------------------------------------------------------
      C    1   -0.18358      0.99966     2.17543    0.00849     3.18358
      C    2   -0.18499      0.99962     2.17695    0.00842     3.18499
      C    3   -0.11138      0.99943     2.10196    0.00999     3.11138
      C    4    0.25106      0.99930     1.73438    0.01525     2.74894
      C    5   -0.21092      0.99961     2.20274    0.00856     3.21092
      O    6   -0.24169      0.99983     3.23352    0.00834     4.24169
      C    7    0.38686      0.99960     1.58893    0.02461     2.61314
      O    8   -0.31204      0.99987     3.30542    0.00676     4.31204
      C    9   -0.14549      0.99952     2.13752    0.00846     3.14549
      C   10    0.00823      0.99954     1.98192    0.01032     2.99177
      H   11    0.09354      0.00000     0.40461    0.00185     0.40646
      H   12    0.09075      0.00000     0.40825    0.00101     0.40925
      H   13    0.09017      0.00000     0.40822    0.00161     0.40983
      H   14    0.09019      0.00000     0.40851    0.00131     0.40981
      H   15    0.10236      0.00000     0.39547    0.00217     0.39764
      H   16    0.09932      0.00000     0.39935    0.00133     0.40068
      H   17    0.09412      0.00000     0.40491    0.00096     0.40588
      H   18    0.08350      0.00000     0.41508    0.00142     0.41650
 =======================================================================
   * Total *   -0.00000      9.99597    25.88319    0.12085    36.00000

 Normal termination of Gaussian 16 at Tue Dec  8 13:17:02 2020.
