 Gaussian 16, Revision A.03,

 -----------------------------------------------------------
 # opt freq B3LYP/6-31G(d) empiricaldispersion=gd3bj scf=xqc
 -----------------------------------------------------------

 ------------------------------
 CID_88913762_JID_2384_neutraal
 ------------------------------
 Symbolic Z-matrix:
 Charge =  0 Multiplicity = 1

 SCF Done:  E(RB3LYP) =  -600.347683573     A.U. after   18 cycles
 SCF Done:  E(RB3LYP) =  -600.354229040     A.U. after   15 cycles
 SCF Done:  E(RB3LYP) =  -600.356835651     A.U. after   15 cycles
 SCF Done:  E(RB3LYP) =  -600.357864615     A.U. after   15 cycles
 SCF Done:  E(RB3LYP) =  -600.358164424     A.U. after   14 cycles
 SCF Done:  E(RB3LYP) =  -600.358188620     A.U. after   14 cycles
 SCF Done:  E(RB3LYP) =  -600.358300630     A.U. after   13 cycles
 SCF Done:  E(RB3LYP) =  -600.358343181     A.U. after   13 cycles
 SCF Done:  E(RB3LYP) =  -600.358363444     A.U. after   11 cycles
 SCF Done:  E(RB3LYP) =  -600.358368103     A.U. after   11 cycles
 SCF Done:  E(RB3LYP) =  -600.358372851     A.U. after   11 cycles
 SCF Done:  E(RB3LYP) =  -600.358374184     A.U. after   11 cycles
 SCF Done:  E(RB3LYP) =  -600.358374697     A.U. after    9 cycles
 SCF Done:  E(RB3LYP) =  -600.358374873     A.U. after    9 cycles
 SCF Done:  E(RB3LYP) =  -600.358374910     A.U. after    8 cycles
 SCF Done:  E(RB3LYP) =  -600.358374917     A.U. after    8 cycles
 Optimization completed.
    -- Stationary point found.
 Normal termination of Gaussian 16 at Wed Dec  9 17:15:14 2020.

 --------------------------------------------------------------------
 #N Geom=AllCheck Guess=TCheck SCRF=Check GenChk RB3LYP/6-31G(d) Freq
 --------------------------------------------------------------------

 Structure from the checkpoint file:  "JID_2384.chk"
 ------------------------------
 CID_88913762_JID_2384_neutraal
 ------------------------------
 Charge =  0 Multiplicity = 1

 SCF Done:  E(RB3LYP) =  -600.358374917     A.U. after    1 cycles

  Exact polarizability: 158.249   9.269 110.499   0.061  -0.007  33.974
 Approx polarizability: 339.815  30.661 214.633   0.515   0.125  54.496

                      1                      2                      3
                      A                      A                      A
 Frequencies --     58.6683               103.0661               152.0367
 Red. masses --      1.4452                 5.3171                 5.0394
 Frc consts  --      0.0029                 0.0333                 0.0686
 IR Inten    --    239.5343                 3.0502                16.8855

                      4                      5                      6
                      A                      A                      A
 Frequencies --    199.5602               218.5372               247.1966
 Red. masses --     11.1919                 9.4245                 6.7881
 Frc consts  --      0.2626                 0.2652                 0.2444
 IR Inten    --      1.2761                 0.2292                 8.2524

                      7                      8                      9
                      A                      A                      A
 Frequencies --    273.6672               361.2601               389.4602
 Red. masses --      3.9887                 5.1515                 9.0949
 Frc consts  --      0.1760                 0.3961                 0.8128
 IR Inten    --      2.4828                 2.4282                 0.6381

                     10                     11                     12
                      A                      A                      A
 Frequencies --    489.6249               496.9987               535.3086
 Red. masses --      1.0703                 6.9457                 9.1480
 Frc consts  --      0.1512                 1.0108                 1.5445
 IR Inten    --      2.1721                16.2033                 3.7408

                     13                     14                     15
                      A                      A                      A
 Frequencies --    566.5551               621.3649               631.4997
 Red. masses --      4.5242                 6.6330                 4.8227
 Frc consts  --      0.8556                 1.5089                 1.1331
 IR Inten    --      1.7613                 0.4199                 1.1911

                     16                     17                     18
                      A                      A                      A
 Frequencies --    650.8689               755.0551               792.0062
 Red. masses --      6.3477                 7.2085                 8.8544
 Frc consts  --      1.5844                 2.4213                 3.2724
 IR Inten    --      3.9460                 1.8212                 0.0492

                     19                     20                     21
                      A                      A                      A
 Frequencies --    812.6824               844.4139               898.0676
 Red. masses --      7.2528                 1.4620                13.6221
 Frc consts  --      2.8223                 0.6142                 6.4731
 IR Inten    --     42.2291                29.9814                18.1817

                     22                     23                     24
                      A                      A                      A
 Frequencies --    951.8075              1002.0991              1014.9455
 Red. masses --     13.6813                 1.3484                 2.6745
 Frc consts  --      7.3026                 0.7978                 1.6232
 IR Inten    --     31.6505                 1.3362                31.8290

                     25                     26                     27
                      A                      A                      A
 Frequencies --   1054.6681              1076.0572              1161.5026
 Red. masses --      2.9203                 6.1854                 1.3968
 Frc consts  --      1.9139                 4.2198                 1.1103
 IR Inten    --     42.8595                74.3129                19.2584

                     28                     29                     30
                      A                      A                      A
 Frequencies --   1226.1074              1320.8792              1396.0143
 Red. masses --      3.6698                 2.6123                 2.2683
 Frc consts  --      3.2505                 2.6854                 2.6045
 IR Inten    --    250.5033                27.9250               179.6498

                     31                     32                     33
                      A                      A                      A
 Frequencies --   1428.0185              1458.7725              1474.5188
 Red. masses --      8.8672                 6.6918                 9.1686
 Frc consts  --     10.6538                 8.3901                11.7450
 IR Inten    --     10.5079               135.8938               224.5072

                     34                     35                     36
                      A                      A                      A
 Frequencies --   1533.9053              1593.7425              1624.8362
 Red. masses --      6.7393                 4.6435                 4.7809
 Frc consts  --      9.3425                 6.9492                 7.4367
 IR Inten    --    107.6940               191.1152                25.5487

                     37                     38                     39
                      A                      A                      A
 Frequencies --   1664.8290              1688.8562              3196.6918
 Red. masses --      4.9129                 1.7019                 1.0894
 Frc consts  --      8.0229                 2.8601                 6.5587
 IR Inten    --     26.2140               374.0544                12.0212

                     40                     41                     42
                      A                      A                      A
 Frequencies --   3218.5323              3608.9734              3727.0995
 Red. masses --      1.0906                 1.0452                 1.1057
 Frc consts  --      6.6560                 8.0211                 9.0497
 IR Inten    --      1.7530               192.4748                53.0303

 - Thermochemistry -
 -------------------
 Temperature   298.150 Kelvin.  Pressure   1.00000 Atm.
 Atom     1 has atomic number  6 and mass  12.00000

 Molecular mass:   164.03343 amu.
 Principal axes and moments of inertia in atomic units:
                           1         2         3
     Eigenvalues --  1185.985992059.638813245.60621
           X            0.99947   0.03247  -0.00030
           Y           -0.03247   0.99947  -0.00035
           Z            0.00029   0.00036   1.00000
 This molecule is an asymmetric top.
 Rotational symmetry number  1.
 Warning -- assumption of classical behavior for rotation
           may cause significant error
 Rotational temperatures (Kelvin)      0.07303     0.04205     0.02669
 Rotational constants (GHZ):           1.52172     0.87624     0.55606
 Zero-point vibrational energy     278255.9 (Joules/Mol)
                                   66.50476 (Kcal/Mol)
 Warning -- explicit consideration of  13 degrees of freedom as
           vibrations may cause significant error
 Vibrational temperatures:     84.41   148.29   218.75   287.12   314.43
          (Kelvin)            355.66   393.75   519.77   560.35   704.46
                              715.07   770.19   815.15   894.01   908.59
                              936.46  1086.36  1139.52  1169.27  1214.92
                             1292.12  1369.44  1441.80  1460.28  1517.43
                             1548.21  1671.14  1764.10  1900.45  2008.55
                             2054.60  2098.85  2121.50  2206.95  2293.04
                             2337.78  2395.32  2429.89  4599.33  4630.75
                             5192.51  5362.46

 Zero-point correction=                           0.105982 (Hartree/Particle)
 Thermal correction to Energy=                    0.115597
 Thermal correction to Enthalpy=                  0.116541
 Thermal correction to Gibbs Free Energy=         0.070465
 Sum of electronic and zero-point Energies=           -600.252393
 Sum of electronic and thermal Energies=              -600.242778
 Sum of electronic and thermal Enthalpies=            -600.241834
 Sum of electronic and thermal Free Energies=         -600.287910

                     E (Thermal)             CV                S
                      KCal/Mol        Cal/Mol-Kelvin    Cal/Mol-Kelvin
 Total                   72.538             35.728             96.977
 Electronic               0.000              0.000              0.000
 Translational            0.889              2.981             41.193
 Rotational               0.889              2.981             30.451
 Vibrational             70.761             29.767             25.333
 Vibration     1          0.596              1.974              4.501
 Vibration     2          0.605              1.947              3.395
 Vibration     3          0.619              1.900              2.647
 Vibration     4          0.638              1.840              2.137
 Vibration     5          0.646              1.813              1.971
 Vibration     6          0.661              1.767              1.750
 Vibration     7          0.676              1.722              1.573
 Vibration     8          0.735              1.552              1.117
 Vibration     9          0.757              1.493              1.002
 Vibration    10          0.845              1.273              0.685
 Vibration    11          0.853              1.257              0.666
 Vibration    12          0.890              1.172              0.575
 Vibration    13          0.922              1.104              0.511

 Optimization completed.
    -- Stationary point found.
 Normal termination of Gaussian 16 at Wed Dec  9 17:18:20 2020.

 ----------------------------------------------------------------------
 # B3LYP/6-311++G(d,p) empiricaldispersion=gd3bj scf=xqc pop=npa geom=c
 heck
 ----------------------------------------------------------------------

 --------------------------------------
 CID_88913762_JID_2384_Energie_neutraal
 --------------------------------------
 Structure from the checkpoint file:  "JID_2384.chk"
 Charge =  0 Multiplicity = 1

 SCF Done:  E(RB3LYP) =  -600.523044192     A.U. after   16 cycles
 Normal termination of Gaussian 16 at Wed Dec  9 17:19:17 2020.

 ----------------------------------------------------------------------
 # B3LYP/6-311++G(d,p) empiricaldispersion=gd3bj scf=xqc pop=npa geom=c
 heck
 ----------------------------------------------------------------------

 ------------------------------------
 CID_88913762_JID_2384_Energie_kation
 ------------------------------------
 Structure from the checkpoint file:  "JID_2384.chk"
 Charge =  1 Multiplicity = 2

 SCF Done:  E(UB3LYP) =  -600.228195569     A.U. after   25 cycles
 Normal termination of Gaussian 16 at Wed Dec  9 17:21:19 2020.
 Gaussian 16:  ES64L-G16RevA.03 25-Dec-2016

 ----------------------------------------------------------------------
 # B3LYP/6-311++G(d,p) empiricaldispersion=gd3bj scf=xqc pop=npa geom=c
 heck
 ----------------------------------------------------------------------

 -----------------------------------
 CID_88913762_JID_2384_Energie_anion
 -----------------------------------
 Structure from the checkpoint file:  "JID_2384.chk"
 Charge = -1 Multiplicity = 2

                         Standard orientation:
 ---------------------------------------------------------------------
 Center     Atomic      Atomic             Coordinates (Angstroms)
 Number     Number       Type             X           Y           Z
 ---------------------------------------------------------------------
      1          6           0       -0.220603   -1.998382    0.000755
      2          6           0       -1.356675   -1.190446   -0.000894
      3          6           0       -1.117152    0.228359   -0.001280
      4          7           0       -2.005234    1.201101    0.000066
      5          8           0       -1.262592    2.341870    0.001085
      6          7           0        0.094469    2.102808    0.000419
      7          6           0        0.203592    0.785004   -0.000819
      8          6           0        1.341503   -0.083979   -0.000479
      9          6           0        1.075354   -1.446401    0.000466
     10          7           0        2.641741    0.482059   -0.000202
     11          8           0        3.560319   -0.336995    0.000526
     12          7           0       -2.631177   -1.643101   -0.008629
     13          1           0       -0.338922   -3.078019    0.001429
     14          1           0        1.938515   -2.105170    0.001494
     15          1           0       -3.400616   -0.991229    0.026254
     16          1           0       -2.835500   -2.629589    0.029872
 ---------------------------------------------------------------------

 SCF Done:  E(UB3LYP) =  -600.586570991     A.U. after   26 cycles

 The electronic state is 2-A.
 Alpha  occ. eigenvalues --  -19.08657 -18.96167 -14.22769 -14.21998 -14.21777
 Alpha  occ. eigenvalues --  -14.21668 -10.09163 -10.07607 -10.07488 -10.04497
 Alpha  occ. eigenvalues --  -10.04015 -10.03217  -1.03906  -0.94728  -0.82313
 Alpha  occ. eigenvalues --   -0.76290  -0.74174  -0.67322  -0.62834  -0.55116
 Alpha  occ. eigenvalues --   -0.51583  -0.50342  -0.44882  -0.42520  -0.38984
 Alpha  occ. eigenvalues --   -0.37119  -0.35629  -0.34347  -0.33112  -0.29128
 Alpha  occ. eigenvalues --   -0.28020  -0.26703  -0.25251  -0.24402  -0.21494
 Alpha  occ. eigenvalues --   -0.19883  -0.19841  -0.17216  -0.17035  -0.14806
 Alpha  occ. eigenvalues --   -0.08002  -0.04320   0.00139
 Alpha virt. eigenvalues --    0.07307   0.07553   0.09988   0.12009   0.14220
 Alpha virt. eigenvalues --    0.14387   0.14929   0.16989   0.17063   0.18208
 Alpha virt. eigenvalues --    0.18529   0.18918   0.19690   0.20434   0.21218

  Beta  occ. eigenvalues --  -19.08321 -18.95653 -14.22357 -14.21882 -14.21531
  Beta  occ. eigenvalues --  -14.21461 -10.08742 -10.07699 -10.07520 -10.04674
  Beta  occ. eigenvalues --  -10.04061 -10.02868  -1.03365  -0.93859  -0.81873
  Beta  occ. eigenvalues --   -0.75839  -0.73904  -0.66943  -0.62328  -0.54239
  Beta  occ. eigenvalues --   -0.51259  -0.50099  -0.44596  -0.42375  -0.38676
  Beta  occ. eigenvalues --   -0.36931  -0.34404  -0.34126  -0.32712  -0.28825
  Beta  occ. eigenvalues --   -0.26322  -0.25045  -0.24880  -0.24133  -0.21130
  Beta  occ. eigenvalues --   -0.19487  -0.18619  -0.16956  -0.15653  -0.13755
  Beta  occ. eigenvalues --   -0.06496  -0.03822
  Beta virt. eigenvalues --    0.06497   0.07317   0.09972   0.10250   0.12006
  Beta virt. eigenvalues --    0.14201   0.14925   0.15032   0.17017   0.17412
  Beta virt. eigenvalues --    0.18228   0.18933   0.19400   0.19706   0.20969

 Mulliken charges and spin densities:
               1          2
     1  C   -0.347607  -0.144722
     2  C    0.259932   0.245069
     3  C   -0.341599  -0.060264
     4  N   -0.415664   0.197163
     5  O    0.315856   0.077883
     6  N   -0.374492   0.048942
     7  C   -0.436405   0.019350
     8  C    0.347382  -0.068472
     9  C    0.103501   0.299711
    10  N   -0.268075   0.142633
    11  O   -0.167498   0.182358
    12  N   -0.454531   0.080477
    13  H    0.099802   0.007579
    14  H    0.170512  -0.021436
    15  H    0.266374  -0.003601
    16  H    0.242511  -0.002671
 Sum of Mulliken charges =  -1.00000   1.00000

 Dipole moment (field-independent basis, Debye):
    X=             -6.9100    Y=             -4.8772    Z=              0.1045  Tot=              8.4585
 Quadrupole moment (field-independent basis, Debye-Ang):
   XX=           -104.1482   YY=            -82.4268   ZZ=            -73.5302
   XY=              6.4245   XZ=             -0.3808   YZ=             -0.2290

 Summary of Natural Population Analysis:

                                       Natural Population
                Natural  -----------------------------------------------
    Atom  No    Charge         Core      Valence    Rydberg      Total
 -----------------------------------------------------------------------
      C    1   -0.19084      0.99956     2.18270    0.00858     3.19084
      C    2    0.17100      0.99950     1.81872    0.01078     2.82900
      C    3    0.01361      0.99952     1.97424    0.01264     2.98639
      N    4   -0.00979      0.99966     2.49462    0.01551     3.50979
      O    5   -0.05947      0.99990     3.04840    0.01117     4.05947
      N    6   -0.05264      0.99969     2.53872    0.01422     3.55264
      C    7    0.04898      0.99949     1.93578    0.01574     2.95102
      C    8   -0.02490      0.99943     2.00910    0.01638     3.02490
      C    9    0.00061      0.99955     1.99051    0.00933     2.99939
      N   10    0.05062      0.99975     2.42205    0.02758     3.44938
      O   11   -0.15185      0.99991     3.14070    0.01125     4.15185
      N   12   -0.36794      0.99970     2.86062    0.00762     3.86794
      H   13    0.09024      0.00000     0.40805    0.00170     0.40976
      H   14    0.10175      0.00000     0.39498    0.00327     0.39825
      H   15    0.19583      0.00000     0.30276    0.00141     0.30417
      H   16    0.18479      0.00000     0.31404    0.00117     0.31521
 =======================================================================
   * Total *    0.00000     11.99565    29.83599    0.16836    42.00000

 Normal termination of Gaussian 16 at Wed Dec  9 17:24:03 2020.
