 Gaussian 16, Revision A.03,

 -----------------------------------------------------------
 # opt freq B3LYP/6-31G(d) empiricaldispersion=gd3bj scf=xqc
 -----------------------------------------------------------

 -------------------------------
 CID_102880293_JID_9917_neutraal
 -------------------------------
 Symbolic Z-matrix:
 Charge =  0 Multiplicity = 1

 SCF Done:  E(RB3LYP) =  -1249.40554486     A.U. after   15 cycles
 SCF Done:  E(RB3LYP) =  -1249.41268367     A.U. after   14 cycles
 SCF Done:  E(RB3LYP) =  -1249.41344517     A.U. after   13 cycles
 SCF Done:  E(RB3LYP) =  -1249.41433850     A.U. after   13 cycles
 SCF Done:  E(RB3LYP) =  -1249.41474010     A.U. after   13 cycles
 SCF Done:  E(RB3LYP) =  -1249.41476201     A.U. after   13 cycles
 SCF Done:  E(RB3LYP) =  -1249.41505516     A.U. after   12 cycles
 SCF Done:  E(RB3LYP) =  -1249.41516707     A.U. after   13 cycles
 SCF Done:  E(RB3LYP) =  -1249.41532120     A.U. after   12 cycles
 SCF Done:  E(RB3LYP) =  -1249.41547003     A.U. after   12 cycles
 SCF Done:  E(RB3LYP) =  -1249.41594960     A.U. after    8 cycles
 SCF Done:  E(RB3LYP) =  -1249.41594956     A.U. after    7 cycles
 SCF Done:  E(RB3LYP) =  -1249.41594958     A.U. after    7 cycles
 SCF Done:  E(RB3LYP) =  -1249.41594959     A.U. after    6 cycles
 Optimization completed.
    -- Stationary point found.
 Normal termination of Gaussian 16 at Mon Dec 14 13:42:59 2020.

 --------------------------------------------------------------------
 #N Geom=AllCheck Guess=TCheck SCRF=Check GenChk RB3LYP/6-31G(d) Freq
 --------------------------------------------------------------------

 Structure from the checkpoint file:  "JID_9917.chk"
 -------------------------------
 CID_102880293_JID_9917_neutraal
 -------------------------------
 Charge =  0 Multiplicity = 1

 SCF Done:  E(RB3LYP) =  -1249.41594959     A.U. after    1 cycles

  Exact polarizability: 148.928  -0.849 157.666 -22.790   2.509 157.331
 Approx polarizability: 200.668  -6.582 292.451 -41.646   1.481 272.365

                      1                      2                      3
                      A                      A                      A
 Frequencies --     17.6396                23.1000                35.5633
 Red. masses --      5.3521                 6.9644                 4.6223
 Frc consts  --      0.0010                 0.0022                 0.0034
 IR Inten    --      0.4409                 1.3662                 1.2301

                      4                      5                      6
                      A                      A                      A
 Frequencies --     47.2416                60.6459                84.4875
 Red. masses --      6.9187                 3.9520                 1.5614
 Frc consts  --      0.0091                 0.0086                 0.0066
 IR Inten    --      1.2474                 3.9493                 1.8192

                      7                      8                      9
                      A                      A                      A
 Frequencies --     88.6025                96.4634               113.8986
 Red. masses --      2.7207                 3.9345                 6.4019
 Frc consts  --      0.0126                 0.0216                 0.0489
 IR Inten    --      3.9817                 1.5029                 0.7768

                     10                     11                     12
                      A                      A                      A
 Frequencies --    124.5923               168.6122               217.3295
 Red. masses --      1.1052                 4.1267                 5.2578
 Frc consts  --      0.0101                 0.0691                 0.1463
 IR Inten    --      0.3886                 2.5907                 2.7380

                     13                     14                     15
                      A                      A                      A
 Frequencies --    220.9154               232.6373               271.4326
 Red. masses --      2.8809                 3.5083                 2.6117
 Frc consts  --      0.0828                 0.1119                 0.1134
 IR Inten    --      1.5398                 5.7277                 0.7288

                     16                     17                     18
                      A                      A                      A
 Frequencies --    272.1280               318.3260               366.5064
 Red. masses --      4.3382                 4.8298                 7.2487
 Frc consts  --      0.1893                 0.2884                 0.5737
 IR Inten    --      3.4500                 6.9070                 5.5072

                     19                     20                     21
                      A                      A                      A
 Frequencies --    381.8303               392.3923               424.1530
 Red. masses --      6.9872                 2.4351                 5.1019
 Frc consts  --      0.6002                 0.2209                 0.5408
 IR Inten    --      3.6961                 1.2194                 0.5320

                     22                     23                     24
                      A                      A                      A
 Frequencies --    464.1540               504.4631               518.0422
 Red. masses --      4.0662                 9.8554                 4.7278
 Frc consts  --      0.5161                 1.4777                 0.7475
 IR Inten    --      0.4541                 2.6022                 1.0710

                     25                     26                     27
                      A                      A                      A
 Frequencies --    546.5970               590.3323               592.2560
 Red. masses --      5.0772                 4.7622                 4.6331
 Frc consts  --      0.8937                 0.9778                 0.9575
 IR Inten    --      1.2200                 8.0198                 6.1192

                     28                     29                     30
                      A                      A                      A
 Frequencies --    667.3921               673.9728               713.5366
 Red. masses --      5.0296                 5.4710                 8.3242
 Frc consts  --      1.3199                 1.4642                 2.4971
 IR Inten    --      2.3350                11.4710                 8.4454

                     31                     32                     33
                      A                      A                      A
 Frequencies --    734.7995               738.3387               747.2854
 Red. masses --      6.2297                 4.1798                 3.9488
 Frc consts  --      1.9818                 1.3425                 1.2992
 IR Inten    --      7.2337                16.4850                 6.0793

                     34                     35                     36
                      A                      A                      A
 Frequencies --    805.5585               886.8489               902.8926
 Red. masses --      6.2713                 4.2198                 1.5070
 Frc consts  --      2.3977                 1.9554                 0.7238
 IR Inten    --     27.9221                 4.8048                 9.1638

                     37                     38                     39
                      A                      A                      A
 Frequencies --    907.9009               956.5793               967.9650
 Red. masses --      1.8119                 1.3641                 2.6750
 Frc consts  --      0.8799                 0.7354                 1.4767
 IR Inten    --      3.7704                 0.9259                 3.6492

                     40                     41                     42
                      A                      A                      A
 Frequencies --    971.4856               976.1222              1017.0941
 Red. masses --      1.5854                 2.2964                10.7870
 Frc consts  --      0.8816                 1.2892                 6.5746
 IR Inten    --      4.1735                 1.5180                 5.3195

                     43                     44                     45
                      A                      A                      A
 Frequencies --   1035.6778              1050.4798              1057.3456
 Red. masses --      1.9456                 7.9139                 3.1683
 Frc consts  --      1.2296                 5.1454                 2.0869
 IR Inten    --      1.1211                65.4150                 9.3912

                     46                     47                     48
                      A                      A                      A
 Frequencies --   1082.2195              1102.7125              1151.7964
 Red. masses --      1.5315                 7.8144                 3.6844
 Frc consts  --      1.0568                 5.5985                 2.8798
 IR Inten    --      6.7793                 8.3807                16.4904

                     49                     50                     51
                      A                      A                      A
 Frequencies --   1162.9961              1187.2541              1203.9547
 Red. masses --      1.3739                 1.2782                 1.8224
 Frc consts  --      1.0949                 1.0616                 1.5564
 IR Inten    --      8.4932                 0.6989                 7.0735

                     52                     53                     54
                      A                      A                      A
 Frequencies --   1212.9807              1213.5535              1221.3867
 Red. masses --      4.4352                 1.6973                 1.4778
 Frc consts  --      3.8447                 1.4727                 1.2989
 IR Inten    --     12.8709                 3.1714                 3.2141

                     55                     56                     57
                      A                      A                      A
 Frequencies --   1275.9791              1285.7082              1302.8911
 Red. masses --      1.2735                 3.3503                 2.9759
 Frc consts  --      1.2216                 3.2631                 2.9764
 IR Inten    --      6.7980                33.7567                 5.3683

                     58                     59                     60
                      A                      A                      A
 Frequencies --   1307.3272              1319.3279              1342.6715
 Red. masses --      7.3744                 5.0257                 2.0629
 Frc consts  --      7.4258                 5.1541                 2.1911
 IR Inten    --    277.6630                 2.0198                14.7189

                     61                     62                     63
                      A                      A                      A
 Frequencies --   1373.8792              1386.1332              1444.9678
 Red. masses --      1.2321                 1.5310                 1.2513
 Frc consts  --      1.3702                 1.7332                 1.5393
 IR Inten    --      3.5471                 5.5664                 3.9068

                     64                     65                     66
                      A                      A                      A
 Frequencies --   1447.2843              1463.6255              1477.8627
 Red. masses --      8.9092                 1.8530                 2.3154
 Frc consts  --     10.9951                 2.3388                 2.9795
 IR Inten    --     40.8554                 7.0480                12.5103

                     67                     68                     69
                      A                      A                      A
 Frequencies --   1485.7558              1492.9597              1494.8432
 Red. masses --      1.8474                 1.9860                 1.2500
 Frc consts  --      2.4027                 2.6080                 1.6457
 IR Inten    --      9.0079                17.8746                 7.5042

                     70                     71                     72
                      A                      A                      A
 Frequencies --   1504.2101              1513.3924              1514.6106
 Red. masses --      1.3056                 1.0470                 1.0455
 Frc consts  --      1.7405                 1.4129                 1.4132
 IR Inten    --      5.2339                 7.2682                 5.5213

                     73                     74                     75
                      A                      A                      A
 Frequencies --   1521.4051              1530.2459              1630.4447
 Red. masses --      1.0470                 1.1878                 4.9421
 Frc consts  --      1.4279                 1.6387                 7.7406
 IR Inten    --      8.1502                 9.7673                 9.2766

                     76                     77                     78
                      A                      A                      A
 Frequencies --   1655.7753              1844.9037              3051.9200
 Red. masses --      5.4701                11.5973                 1.0365
 Frc consts  --      8.8359                23.2570                 5.6881
 IR Inten    --      1.3296               244.6477                17.7900

                     79                     80                     81
                      A                      A                      A
 Frequencies --   3085.4572              3096.7296              3109.9298
 Red. masses --      1.0293                 1.0589                 1.1014
 Frc consts  --      5.7733                 5.9831                 6.2764
 IR Inten    --     25.4599                 9.8381                10.0453

                     82                     83                     84
                      A                      A                      A
 Frequencies --   3116.2819              3133.1942              3157.5843
 Red. masses --      1.0604                 1.1021                 1.1068
 Frc consts  --      6.0674                 6.3747                 6.5015
 IR Inten    --      9.8438                11.8467                 1.2400

                     85                     86                     87
                      A                      A                      A
 Frequencies --   3160.0676              3164.6388              3168.7194
 Red. masses --      1.0910                 1.1082                 1.0951
 Frc consts  --      6.4193                 6.5388                 6.4782
 IR Inten    --     25.4675                14.1159                13.7274

                     88                     89                     90
                      A                      A                      A
 Frequencies --   3169.2412              3192.1107              3198.5591
 Red. masses --      1.1009                 1.0914                 1.1077
 Frc consts  --      6.5148                 6.5520                 6.6773
 IR Inten    --      6.8721                 1.9751                 9.0044

 - Thermochemistry -
 -------------------
 Temperature   298.150 Kelvin.  Pressure   1.00000 Atm.
 Atom     1 has atomic number  6 and mass  12.00000

 Molecular mass:   279.07900 amu.
 Principal axes and moments of inertia in atomic units:
                           1         2         3
     Eigenvalues --  3597.649646466.840336788.70346
           X            0.99973  -0.01507  -0.01772
           Y            0.01528   0.99981   0.01171
           Z            0.01754  -0.01198   0.99977
 This molecule is an asymmetric top.
 Rotational symmetry number  1.
 Warning -- assumption of classical behavior for rotation
           may cause significant error
 Rotational temperatures (Kelvin)      0.02408     0.01339     0.01276
 Rotational constants (GHZ):           0.50164     0.27908     0.26584
 Zero-point vibrational energy     645655.1 (Joules/Mol)
                                  154.31528 (Kcal/Mol)
 Warning -- explicit consideration of  27 degrees of freedom as
           vibrations may cause significant error
 Vibrational temperatures:     25.38    33.24    51.17    67.97    87.26
          (Kelvin)            121.56   127.48   138.79   163.87   179.26
                              242.60   312.69   317.85   334.71   390.53
                              391.53   458.00   527.32   549.37   564.56
                              610.26   667.81   725.81   745.35   786.43
                              849.36   852.12   960.23   969.70  1026.62
                             1057.21  1062.30  1075.18  1159.02  1275.98
                             1299.06  1306.27  1376.30  1392.69  1397.75
                             1404.42  1463.37  1490.11  1511.41  1521.28
                             1557.07  1586.56  1657.18  1673.29  1708.19
                             1732.22  1745.21  1746.03  1757.30  1835.85
                             1849.85  1874.57  1880.95  1898.22  1931.80
                             1976.71  1994.34  2078.99  2082.32  2105.83
                             2126.31  2137.67  2148.04  2150.75  2164.22
                             2177.43  2179.19  2188.96  2201.68  2345.85
                             2382.29  2654.40  4391.03  4439.28  4455.50
                             4474.50  4483.63  4507.97  4543.06  4546.63
                             4553.21  4559.08  4559.83  4592.74  4602.01

 Zero-point correction=                           0.245917 (Hartree/Particle)
 Thermal correction to Energy=                    0.264207
 Thermal correction to Enthalpy=                  0.265151
 Thermal correction to Gibbs Free Energy=         0.195943
 Sum of electronic and zero-point Energies=          -1249.170033
 Sum of electronic and thermal Energies=             -1249.151743
 Sum of electronic and thermal Enthalpies=           -1249.150799
 Sum of electronic and thermal Free Energies=        -1249.220007

                     E (Thermal)             CV                S
                      KCal/Mol        Cal/Mol-Kelvin    Cal/Mol-Kelvin
 Total                  165.792             65.137            145.662
 Electronic               0.000              0.000              0.000
 Translational            0.889              2.981             42.777
 Rotational               0.889              2.981             33.423
 Vibrational            164.015             59.176             69.461
 Vibration     1          0.593              1.986              6.884
 Vibration     2          0.593              1.985              6.348
 Vibration     3          0.594              1.982              5.492
 Vibration     4          0.595              1.979              4.930
 Vibration     5          0.597              1.973              4.436
 Vibration     6          0.601              1.960              3.784
 Vibration     7          0.601              1.957              3.691
 Vibration     8          0.603              1.952              3.525
 Vibration     9          0.607              1.938              3.201
 Vibration    10          0.610              1.928              3.028
 Vibration    11          0.625              1.881              2.451
 Vibration    12          0.646              1.815              1.981
 Vibration    13          0.648              1.809              1.952
 Vibration    14          0.653              1.791              1.859
 Vibration    15          0.675              1.726              1.587
 Vibration    16          0.675              1.725              1.583
 Vibration    17          0.705              1.639              1.319
 Vibration    18          0.739              1.541              1.094
 Vibration    19          0.751              1.509              1.032
 Vibration    20          0.760              1.486              0.991
 Vibration    21          0.786              1.418              0.878
 Vibration    22          0.822              1.330              0.754
 Vibration    23          0.860              1.240              0.647
 Vibration    24          0.873              1.210              0.615
 Vibration    25          0.902              1.147              0.551
 Vibration    26          0.948              1.052              0.467
 Vibration    27          0.950              1.048              0.463

                           ! Non-Optimized Parameters !
 Normal termination of Gaussian 16 at Mon Dec 14 14:01:19 2020.

 ----------------------------------------------------------------------
 # B3LYP/6-311++G(d,p) empiricaldispersion=gd3bj scf=xqc pop=npa geom=c
 heck
 ----------------------------------------------------------------------

 ---------------------------------------
 CID_102880293_JID_9917_Energie_neutraal
 ---------------------------------------
 Structure from the checkpoint file:  "JID_9917.chk"
 Charge =  0 Multiplicity = 1

 SCF Done:  E(RB3LYP) =  -1249.67190177     A.U. after   17 cycles
 Normal termination of Gaussian 16 at Mon Dec 14 14:09:50 2020.

 ----------------------------------------------------------------------
 # B3LYP/6-311++G(d,p) empiricaldispersion=gd3bj scf=xqc pop=npa geom=c
 heck
 ----------------------------------------------------------------------

 -------------------------------------
 CID_102880293_JID_9917_Energie_kation
 -------------------------------------
 Structure from the checkpoint file:  "JID_9917.chk"
 Charge =  1 Multiplicity = 2

 SCF Done:  E(UB3LYP) =  -1249.34623080     A.U. after   33 cycles
 SCF Done:  E(UB3LYP) =  -1249.34623080     a.u. after    1 cycles
 Normal termination of Gaussian 16 at Mon Dec 14 14:34:13 2020.
 Gaussian 16:  ES64L-G16RevA.03 25-Dec-2016

 ----------------------------------------------------------------------
 # B3LYP/6-311++G(d,p) empiricaldispersion=gd3bj scf=xqc pop=npa geom=c
 heck
 ----------------------------------------------------------------------

 ------------------------------------
 CID_102880293_JID_9917_Energie_anion
 ------------------------------------
 Structure from the checkpoint file:  "JID_9917.chk"
 Charge = -1 Multiplicity = 2

                         Standard orientation:
 ---------------------------------------------------------------------
 Center     Atomic      Atomic             Coordinates (Angstroms)
 Number     Number       Type             X           Y           Z
 ---------------------------------------------------------------------
      1          6           0       -3.488790    0.637667    1.903214
      2          6           0       -2.925130   -0.184976    0.774823
      3          6           0       -2.343525    0.419447   -0.343522
      4          6           0       -1.772413   -0.366302   -1.346308
      5          6           0       -1.844074   -1.758448   -1.199249
      6          7           0       -2.409075   -2.363286   -0.152926
      7          6           0       -2.924572   -1.583716    0.807687
      8          6           0       -0.998028    0.257218   -2.466636
      9         16           0        0.814232    0.425259   -2.023837
     10          6           0        0.592294    1.288059   -0.510060
     11          7           0        0.262033    2.559979   -0.347952
     12          7           0        0.113172    2.742808    0.989652
     13          7           0        0.343830    1.642097    1.639850
     14          7           0        0.638687    0.707452    0.713753
     15          6           0        0.917732   -0.662890    1.088206
     16          6           0        2.356376   -1.112069    0.859661
     17          8           0        2.719820   -2.237800    1.104944
     18          8           0        3.131605   -0.135306    0.370265
     19          6           0        4.499434   -0.507474    0.111580
     20          1           0       -3.896590    0.001171    2.694084
     21          1           0       -2.710960    1.273161    2.342353
     22          1           0       -4.290288    1.298413    1.553118
     23          1           0       -2.301246    1.503492   -0.414241
     24          1           0       -1.412606   -2.409345   -1.959272
     25          1           0       -3.361956   -2.104124    1.658657
     26          1           0       -0.990840   -0.364395   -3.366241
     27          1           0       -1.366959    1.252003   -2.722990
     28          1           0        0.685508   -0.756366    2.150403
     29          1           0        0.259988   -1.336987    0.534301
     30          1           0        4.981027   -0.834928    1.035620
     31          1           0        4.535536   -1.316207   -0.621733
     32          1           0        4.973928    0.392359   -0.277353
 ---------------------------------------------------------------------

 SCF Done:  E(UB3LYP) =  -1249.68190290     A.U. after   33 cycles
 SCF Done:  E(UB3LYP) =  -1249.68190290     a.u. after    1 cycles

 The electronic state is 2-A.
 Alpha  occ. eigenvalues --  -88.72805 -19.08676 -19.02659 -14.27732 -14.24802
 Alpha  occ. eigenvalues --  -14.24045 -14.20450 -14.17511 -10.21721 -10.14460
 Alpha  occ. eigenvalues --  -10.12943 -10.12830 -10.07772 -10.07704 -10.06412
 Alpha  occ. eigenvalues --  -10.06211 -10.05982 -10.05176 -10.04063  -7.81382
 Alpha  occ. eigenvalues --   -5.77783  -5.77423  -5.76754  -1.02807  -1.00656
 Alpha  occ. eigenvalues --   -0.93997  -0.82961  -0.81253  -0.76563  -0.69950
 Alpha  occ. eigenvalues --   -0.68156  -0.67544  -0.63525  -0.62256  -0.58034
 Alpha  occ. eigenvalues --   -0.55774  -0.52805  -0.50481  -0.49501  -0.48152
 Alpha  occ. eigenvalues --   -0.46346  -0.43173  -0.41336  -0.40676  -0.38935
 Alpha  occ. eigenvalues --   -0.37894  -0.37587  -0.36467  -0.34869  -0.33232
 Alpha  occ. eigenvalues --   -0.32687  -0.31715  -0.31137  -0.29674  -0.29310
 Alpha  occ. eigenvalues --   -0.29069  -0.28040  -0.27750  -0.27048  -0.26652
 Alpha  occ. eigenvalues --   -0.24951  -0.24148  -0.22850  -0.22153  -0.21369
 Alpha  occ. eigenvalues --   -0.18436  -0.18109  -0.16762  -0.16248  -0.15419
 Alpha  occ. eigenvalues --   -0.13609  -0.13021  -0.11529   0.04247
 Alpha virt. eigenvalues --    0.06491   0.08154   0.08635   0.08741   0.09212
 Alpha virt. eigenvalues --    0.09746   0.09968   0.10366   0.10644   0.11128
 Alpha virt. eigenvalues --    0.11737   0.11971   0.12542   0.13005   0.13773

  Beta  occ. eigenvalues --  -88.72751 -19.08667 -19.02657 -14.27455 -14.24613
  Beta  occ. eigenvalues --  -14.24100 -14.20366 -14.17380 -10.21701 -10.14447
  Beta  occ. eigenvalues --  -10.12956 -10.12694 -10.07740 -10.07547 -10.06303
  Beta  occ. eigenvalues --  -10.06187 -10.05976 -10.05044 -10.03787  -7.81323
  Beta  occ. eigenvalues --   -5.77680  -5.77355  -5.76716  -1.02783  -1.00418
  Beta  occ. eigenvalues --   -0.93985  -0.82658  -0.80978  -0.76245  -0.69523
  Beta  occ. eigenvalues --   -0.68019  -0.67394  -0.63301  -0.62037  -0.57876
  Beta  occ. eigenvalues --   -0.55376  -0.52601  -0.50291  -0.49207  -0.48046
  Beta  occ. eigenvalues --   -0.46175  -0.43014  -0.41152  -0.40633  -0.38752
  Beta  occ. eigenvalues --   -0.37759  -0.37417  -0.36153  -0.34724  -0.32974
  Beta  occ. eigenvalues --   -0.32530  -0.31413  -0.31019  -0.29472  -0.29213
  Beta  occ. eigenvalues --   -0.28967  -0.27991  -0.27648  -0.26562  -0.26460
  Beta  occ. eigenvalues --   -0.24415  -0.23926  -0.22801  -0.21795  -0.21083
  Beta  occ. eigenvalues --   -0.18192  -0.17517  -0.16223  -0.15822  -0.14239
  Beta  occ. eigenvalues --   -0.13307  -0.12638  -0.11156
  Beta virt. eigenvalues --    0.06465   0.08220   0.08629   0.08803   0.09280
  Beta virt. eigenvalues --    0.09542   0.09763   0.10326   0.10586   0.11162
  Beta virt. eigenvalues --    0.11190   0.11813   0.12021   0.12665   0.13364

 Mulliken charges and spin densities:
               1          2
     1  C   -0.682284   0.014724
     2  C    0.454147  -0.074674
     3  C   -0.911220   0.363343
     4  C    1.167010   0.183376
     5  C   -0.533554  -0.071230
     6  N   -0.070610   0.057328
     7  C   -0.548265   0.157404
     8  C   -0.686573  -0.173932
     9  S    0.097388   0.118982
    10  C   -0.803837   0.143988
    11  N    0.046472   0.025700
    12  N   -0.074444  -0.036267
    13  N   -0.046291   0.106679
    14  N    0.512637   0.028723
    15  C   -0.237683  -0.040956
    16  C   -0.295272   0.045346
    17  O   -0.244727   0.001555
    18  O   -0.009127   0.018109
    19  C   -0.073510  -0.203835
    20  H    0.115289  -0.000564
    21  H    0.163531   0.000264
    22  H    0.149711  -0.000251
    23  H    0.166062  -0.013392
    24  H    0.123561   0.008557
    25  H    0.123505  -0.012581
    26  H    0.125263   0.078619
    27  H    0.222922  -0.014152
    28  H    0.194102   0.014814
    29  H    0.324125   0.005864
    30  H    0.074467   0.088979
    31  H    0.107364   0.072284
    32  H    0.049840   0.107199
 Sum of Mulliken charges =  -1.00000   1.00000

 Dipole moment (field-independent basis, Debye):
    X=              2.4246    Y=             -1.2757    Z=             -0.0474  Tot=              2.7401
 Quadrupole moment (field-independent basis, Debye-Ang):
   XX=           -142.7421   YY=           -165.2125   ZZ=           -134.4093
   XY=             -7.1703   XZ=             -2.2316   YZ=             -0.1205

 Summary of Natural Population Analysis:

                                       Natural Population
                Natural  -----------------------------------------------
    Atom  No    Charge         Core      Valence    Rydberg      Total
 -----------------------------------------------------------------------
      C    1   -0.29112      0.99964     2.28673    0.00475     3.29112
      C    2   -0.05146      0.99951     2.04394    0.00801     3.05146
      C    3   -0.03931      0.99947     2.02890    0.01094     3.03931
      C    4   -0.03236      0.99949     2.02169    0.01118     3.03236
      C    5    0.01122      0.99953     1.97220    0.01705     2.98878
      N    6   -0.22543      0.99971     2.71410    0.01161     3.72543
      C    7    0.05383      0.99954     1.93344    0.01320     2.94617
      C    8   -0.21200      0.99955     2.20031    0.01214     3.21200
      S    9    0.11681      4.99955     2.86447    0.01917     7.88319
      C   10    0.12446      0.99954     1.85019    0.02581     2.87554
      N   11   -0.16126      0.99966     2.64842    0.01318     3.66126
      N   12   -0.06572      0.99981     2.54841    0.01750     3.56572
      N   13   -0.02745      0.99977     2.50944    0.01824     3.52745
      N   14   -0.09183      0.99957     2.57464    0.01762     3.59183
      C   15   -0.13939      0.99956     2.12672    0.01311     3.13939
      C   16    0.41177      0.99971     1.56484    0.02368     2.58823
      O   17   -0.30710      0.99987     3.30170    0.00554     4.30710
      O   18   -0.26709      0.99986     3.25899    0.00824     4.26709
      C   19   -0.10435      0.99960     2.09667    0.00808     3.10435
      H   20    0.09600      0.00000     0.40307    0.00093     0.40400
      H   21    0.10954      0.00000     0.38939    0.00107     0.39046
      H   22    0.09823      0.00000     0.40072    0.00105     0.40177
      H   23    0.10030      0.00000     0.39821    0.00149     0.39970
      H   24    0.08393      0.00000     0.41457    0.00150     0.41607
      H   25    0.07899      0.00000     0.41983    0.00118     0.42101
      H   26    0.10031      0.00000     0.39829    0.00140     0.39969
      H   27    0.10320      0.00000     0.39576    0.00104     0.39680
      H   28    0.12136      0.00000     0.37758    0.00106     0.37864
      H   29    0.13109      0.00000     0.36766    0.00125     0.36891
      H   30    0.08926      0.00000     0.40935    0.00138     0.41074
      H   31    0.09220      0.00000     0.40627    0.00153     0.40780
      H   32    0.09337      0.00000     0.40550    0.00113     0.40663
 =======================================================================
   * Total *   -0.00000     22.99293    49.73201    0.27506    73.00000

 Normal termination of Gaussian 16 at Mon Dec 14 14:58:12 2020.
