 Gaussian 16, Revision A.03,

 -----------------------------------------------------------
 # opt freq B3LYP/6-31G(d) empiricaldispersion=gd3bj scf=xqc
 -----------------------------------------------------------

 ------------------------------
 CID_152773082_JID_706_neutraal
 ------------------------------
 Symbolic Z-matrix:
 Charge =  0 Multiplicity = 1

 SCF Done:  E(RB3LYP) =  -511.865522596     A.U. after   15 cycles
 SCF Done:  E(RB3LYP) =  -511.869824200     A.U. after   13 cycles
 SCF Done:  E(RB3LYP) =  -511.868359112     A.U. after   12 cycles
 SCF Done:  E(RB3LYP) =  -511.871961338     A.U. after   12 cycles
 SCF Done:  E(RB3LYP) =  -511.872709926     A.U. after   11 cycles
 SCF Done:  E(RB3LYP) =  -511.872749390     A.U. after    9 cycles
 SCF Done:  E(RB3LYP) =  -511.872750452     A.U. after    8 cycles
 SCF Done:  E(RB3LYP) =  -511.872750635     A.U. after    7 cycles
 SCF Done:  E(RB3LYP) =  -511.872750708     A.U. after    7 cycles
 SCF Done:  E(RB3LYP) =  -511.872750815     A.U. after    7 cycles
 SCF Done:  E(RB3LYP) =  -511.887889453     A.U. after   11 cycles
 SCF Done:  E(RB3LYP) =  -511.887922887     A.U. after   11 cycles
 SCF Done:  E(RB3LYP) =  -511.887947075     A.U. after   11 cycles
 SCF Done:  E(RB3LYP) =  -511.887959338     A.U. after   10 cycles
 SCF Done:  E(RB3LYP) =  -511.887964708     A.U. after   10 cycles
 SCF Done:  E(RB3LYP) =  -511.887966875     A.U. after    9 cycles
 Optimization completed.
    -- Stationary point found.
 Normal termination of Gaussian 16 at Tue Dec  8 12:50:50 2020.

 --------------------------------------------------------------------
 #N Geom=AllCheck Guess=TCheck SCRF=Check GenChk RB3LYP/6-31G(d) Freq
 --------------------------------------------------------------------

 Structure from the checkpoint file:  "JID_706.chk"
 ------------------------------
 CID_152773082_JID_706_neutraal
 ------------------------------
 Charge =  0 Multiplicity = 1

 SCF Done:  E(RB3LYP) =  -511.887966875     A.U. after    1 cycles

  Exact polarizability:  94.586  -5.148  83.033   5.515  -1.126  59.709
 Approx polarizability: 125.643  -5.439 121.331  12.976   1.629  87.012

                      1                      2                      3
                      A                      A                      A
 Frequencies --     50.6538                67.9484                93.3687
 Red. masses --      4.2101                 3.9826                 3.0623
 Frc consts  --      0.0064                 0.0108                 0.0157
 IR Inten    --      0.8476                 1.1122                 1.4557

                      4                      5                      6
                      A                      A                      A
 Frequencies --    109.8604               149.3096               170.4613
 Red. masses --      1.3658                 2.5311                 1.2632
 Frc consts  --      0.0097                 0.0332                 0.0216
 IR Inten    --      0.4614                 4.8852                 0.1451

                      7                      8                      9
                      A                      A                      A
 Frequencies --    201.4410               212.5352               248.0965
 Red. masses --      3.0017                 1.2511                 1.9915
 Frc consts  --      0.0718                 0.0333                 0.0722
 IR Inten    --      9.2179                 1.2374                 5.1559

                     10                     11                     12
                      A                      A                      A
 Frequencies --    304.3180               342.0334               386.2400
 Red. masses --      3.6735                 3.3936                 3.0186
 Frc consts  --      0.2004                 0.2339                 0.2653
 IR Inten    --      3.1496                17.3015                 4.4658

                     13                     14                     15
                      A                      A                      A
 Frequencies --    424.9718               481.6834               552.1551
 Red. masses --      3.3237                 3.7731                 1.9629
 Frc consts  --      0.3537                 0.5158                 0.3526
 IR Inten    --     10.2975                13.8616                41.3920

                     16                     17                     18
                      A                      A                      A
 Frequencies --    650.9382               687.4695               745.2052
 Red. masses --      4.6237                 6.0651                 4.8946
 Frc consts  --      1.1543                 1.6889                 1.6015
 IR Inten    --      6.9035                15.8815                44.3381

                     19                     20                     21
                      A                      A                      A
 Frequencies --    771.7203               802.1077               817.4495
 Red. masses --      2.7619                 1.9800                 2.3216
 Frc consts  --      0.9691                 0.7506                 0.9140
 IR Inten    --     25.3858                67.1328                24.6473

                     22                     23                     24
                      A                      A                      A
 Frequencies --    919.6705              1043.9708              1097.5562
 Red. masses --      3.9477                 2.1524                 1.3735
 Frc consts  --      1.9672                 1.3821                 0.9748
 IR Inten    --     26.3751                18.7655                 7.1692

                     25                     26                     27
                      A                      A                      A
 Frequencies --   1117.4784              1132.8565              1142.8697
 Red. masses --      5.2756                 1.4913                 1.2227
 Frc consts  --      3.8815                 1.1276                 0.9409
 IR Inten    --     59.1624               156.2671                 2.3758

                     28                     29                     30
                      A                      A                      A
 Frequencies --   1185.8315              1190.0690              1223.5214
 Red. masses --      1.3958                 1.2698                 1.9161
 Frc consts  --      1.1564                 1.0596                 1.6900
 IR Inten    --     11.0136                 0.9971               105.4994

                     31                     32                     33
                      A                      A                      A
 Frequencies --   1234.9638              1302.5486              1389.5824
 Red. masses --      2.2407                 5.6407                 2.7060
 Frc consts  --      2.0134                 5.6386                 3.0786
 IR Inten    --    159.1210                90.0872               341.3443

                     34                     35                     36
                      A                      A                      A
 Frequencies --   1449.7160              1458.7726              1463.4936
 Red. masses --      1.3893                 1.2947                 1.6458
 Frc consts  --      1.7203                 1.6233                 2.0769
 IR Inten    --     39.2749                28.7352                85.5185

                     37                     38                     39
                      A                      A                      A
 Frequencies --   1493.2781              1505.2667              1508.5982
 Red. masses --      1.2045                 1.1112                 1.4185
 Frc consts  --      1.5824                 1.4835                 1.9020
 IR Inten    --     56.9976                12.2263                32.2804

                     40                     41                     42
                      A                      A                      A
 Frequencies --   1520.1837              1526.4805              1527.6231
 Red. masses --      1.0498                 1.0574                 1.0587
 Frc consts  --      1.4294                 1.4517                 1.4556
 IR Inten    --      8.4371                 7.8692                14.3415

                     43                     44                     45
                      A                      A                      A
 Frequencies --   1534.0666              1564.8810              1743.8238
 Red. masses --      1.0487                 1.3359                 7.1635
 Frc consts  --      1.4541                 1.9275                12.8346
 IR Inten    --     30.7033                65.8826               363.8175

                     46                     47                     48
                      A                      A                      A
 Frequencies --   1796.6471              3033.8112              3045.5386
 Red. masses --      7.4376                 1.0391                 1.0395
 Frc consts  --     14.1452                 5.6349                 5.6808
 IR Inten    --    438.7426                41.5548                71.0078

                     49                     50                     51
                      A                      A                      A
 Frequencies --   3075.8031              3082.5080              3094.3893
 Red. masses --      1.0287                 1.1041                 1.1043
 Frc consts  --      5.7337                 6.1810                 6.2300
 IR Inten    --     32.4325                45.2063                28.9580

                     52                     53                     54
                      A                      A                      A
 Frequencies --   3152.5680              3177.0825              3181.1288
 Red. masses --      1.1071                 1.1081                 1.0973
 Frc consts  --      6.4831                 6.5897                 6.5427
 IR Inten    --     19.4543                16.7727                 8.9649

                     55                     56                     57
                      A                      A                      A
 Frequencies --   3195.6601              3505.8930              3593.0968
 Red. masses --      1.0963                 1.0758                 1.0751
 Frc consts  --      6.5960                 7.7910                 8.1779
 IR Inten    --      1.2727                 3.6069                36.5576

 - Thermochemistry -
 -------------------
 Temperature   298.150 Kelvin.  Pressure   1.00000 Atm.
 Atom     1 has atomic number  6 and mass  12.00000

 Molecular mass:   145.08513 amu.
 Principal axes and moments of inertia in atomic units:
                           1         2         3
     Eigenvalues --   853.301581901.018792303.92989
           X            0.99979  -0.01891  -0.00736
           Y            0.01879   0.99968  -0.01688
           Z            0.00768   0.01674   0.99983
 This molecule is an asymmetric top.
 Rotational symmetry number  1.
 Warning -- assumption of classical behavior for rotation
           may cause significant error
 Rotational temperatures (Kelvin)      0.10150     0.04556     0.03759
 Rotational constants (GHZ):           2.11501     0.94935     0.78333
 Zero-point vibrational energy     463440.5 (Joules/Mol)
                                  110.76493 (Kcal/Mol)
 Warning -- explicit consideration of  15 degrees of freedom as
           vibrations may cause significant error
 Vibrational temperatures:     72.88    97.76   134.34   158.06   214.82
          (Kelvin)            245.26   289.83   305.79   356.96   437.85
                              492.11   555.71   611.44   693.03   794.43
                              936.55   989.12  1072.18  1110.33  1154.05
                             1176.13  1323.20  1502.04  1579.14  1607.80
                             1629.93  1644.33  1706.15  1712.24  1760.37
                             1776.84  1874.08  1999.30  2085.82  2098.85
                             2105.64  2148.49  2165.74  2170.54  2187.21
                             2196.27  2197.91  2207.18  2251.51  2508.97
                             2584.97  4364.98  4381.85  4425.39  4435.04
                             4452.14  4535.84  4571.11  4576.93  4597.84
                             5044.20  5169.66

 Zero-point correction=                           0.176515 (Hartree/Particle)
 Thermal correction to Energy=                    0.188003
 Thermal correction to Enthalpy=                  0.188948
 Thermal correction to Gibbs Free Energy=         0.138832
 Sum of electronic and zero-point Energies=           -511.711452
 Sum of electronic and thermal Energies=              -511.699963
 Sum of electronic and thermal Enthalpies=            -511.699019
 Sum of electronic and thermal Free Energies=         -511.749135

                     E (Thermal)             CV                S
                      KCal/Mol        Cal/Mol-Kelvin    Cal/Mol-Kelvin
 Total                  117.974             39.882            105.478
 Electronic               0.000              0.000              0.000
 Translational            0.889              2.981             40.827
 Rotational               0.889              2.981             29.704
 Vibrational            116.196             33.921             34.947
 Vibration     1          0.595              1.977              4.792
 Vibration     2          0.598              1.969              4.212
 Vibration     3          0.602              1.954              3.588
 Vibration     4          0.606              1.941              3.271
 Vibration     5          0.618              1.903              2.681
 Vibration     6          0.626              1.879              2.430
 Vibration     7          0.638              1.838              2.120
 Vibration     8          0.644              1.822              2.022
 Vibration     9          0.662              1.766              1.744
 Vibration    10          0.695              1.666              1.393
 Vibration    11          0.721              1.591              1.203
 Vibration    12          0.755              1.500              1.015
 Vibration    13          0.787              1.416              0.875
 Vibration    14          0.838              1.291              0.706
 Vibration    15          0.908              1.135              0.540

                           ! Non-Optimized Parameters !
 Normal termination of Gaussian 16 at Tue Dec  8 13:06:13 2020.

 ----------------------------------------------------------------------
 # B3LYP/6-311++G(d,p) empiricaldispersion=gd3bj scf=xqc pop=npa geom=c
 heck
 ----------------------------------------------------------------------

 --------------------------------------
 CID_152773082_JID_706_Energie_neutraal
 --------------------------------------
 Structure from the checkpoint file:  "JID_706.chk"
 Charge =  0 Multiplicity = 1

 SCF Done:  E(RB3LYP) =  -512.048616312     A.U. after   13 cycles
 Normal termination of Gaussian 16 at Tue Dec  8 13:08:32 2020.

 ----------------------------------------------------------------------
 # B3LYP/6-311++G(d,p) empiricaldispersion=gd3bj scf=xqc pop=npa geom=c
 heck
 ----------------------------------------------------------------------

 ------------------------------------
 CID_152773082_JID_706_Energie_kation
 ------------------------------------
 Structure from the checkpoint file:  "JID_706.chk"
 Charge =  1 Multiplicity = 2

 SCF Done:  E(UB3LYP) =  -511.723686900     A.U. after   24 cycles
 Normal termination of Gaussian 16 at Tue Dec  8 13:17:19 2020.
 Gaussian 16:  ES64L-G16RevA.03 25-Dec-2016

 ----------------------------------------------------------------------
 # B3LYP/6-311++G(d,p) empiricaldispersion=gd3bj scf=xqc pop=npa geom=c
 heck
 ----------------------------------------------------------------------

 -----------------------------------
 CID_152773082_JID_706_Energie_anion
 -----------------------------------
 Structure from the checkpoint file:  "JID_706.chk"
 Charge = -1 Multiplicity = 2

                         Standard orientation:
 ---------------------------------------------------------------------
 Center     Atomic      Atomic             Coordinates (Angstroms)
 Number     Number       Type             X           Y           Z
 ---------------------------------------------------------------------
      1          6           0       -2.746121    0.839276   -0.415586
      2          7           0       -1.522120    0.381827    0.219883
      3          6           0       -0.952182    1.261385    1.224033
      4          6           0       -1.044534   -0.852097   -0.106523
      5          8           0       -1.666337   -1.683517   -0.755789
      6          7           0        0.234220   -1.195445    0.427306
      7          6           0        1.444545   -0.533879    0.163589
      8          7           0        2.610162   -0.914764    0.510529
      9          8           0        1.246316    0.603642   -0.529924
     10          6           0        2.418683    1.387556   -0.779872
     11          1           0       -2.585354    1.823290   -0.873563
     12          1           0       -3.556590    0.926433    0.320183
     13          1           0       -3.034960    0.119033   -1.179049
     14          1           0       -0.228133    0.720880    1.832405
     15          1           0       -0.458280    2.127180    0.768128
     16          1           0       -1.756168    1.619397    1.879138
     17          1           0        0.333524   -2.203484    0.399341
     18          1           0        2.570639   -1.771085    1.062680
     19          1           0        2.900872    1.668311    0.160228
     20          1           0        3.132506    0.825104   -1.386294
     21          1           0        2.063923    2.269172   -1.315359
 ---------------------------------------------------------------------

 SCF Done:  E(UB3LYP) =  -512.035226772     A.U. after   28 cycles

 The electronic state is 2-A.
 Alpha  occ. eigenvalues --  -19.06406 -18.98656 -14.24503 -14.24315 -14.18048
 Alpha  occ. eigenvalues --  -10.20075 -10.19950 -10.11780 -10.09307 -10.09221
 Alpha  occ. eigenvalues --   -0.99711  -0.95170  -0.84493  -0.83319  -0.77048
 Alpha  occ. eigenvalues --   -0.62707  -0.62009  -0.60001  -0.50932  -0.47436
 Alpha  occ. eigenvalues --   -0.45161  -0.42069  -0.38873  -0.37991  -0.37438
 Alpha  occ. eigenvalues --   -0.36026  -0.33623  -0.32495  -0.30857  -0.30013
 Alpha  occ. eigenvalues --   -0.29751  -0.27904  -0.26786  -0.25725  -0.20612
 Alpha  occ. eigenvalues --   -0.19460  -0.17197  -0.15060  -0.14219   0.04574
 Alpha virt. eigenvalues --    0.06859   0.07499   0.08556   0.09603   0.10720
 Alpha virt. eigenvalues --    0.11239   0.11535   0.11745   0.12491   0.13238
 Alpha virt. eigenvalues --    0.13391   0.14090   0.14677   0.15506   0.17549

  Beta  occ. eigenvalues --  -19.06396 -18.98650 -14.24481 -14.24312 -14.18018
  Beta  occ. eigenvalues --  -10.20076 -10.19947 -10.11741 -10.09269 -10.09167
  Beta  occ. eigenvalues --   -0.99695  -0.95159  -0.84473  -0.83294  -0.77008
  Beta  occ. eigenvalues --   -0.62651  -0.61943  -0.59938  -0.50882  -0.47377
  Beta  occ. eigenvalues --   -0.45110  -0.42001  -0.38818  -0.37948  -0.37404
  Beta  occ. eigenvalues --   -0.35986  -0.33570  -0.32457  -0.30826  -0.29962
  Beta  occ. eigenvalues --   -0.29703  -0.27861  -0.26758  -0.25695  -0.20591
  Beta  occ. eigenvalues --   -0.19432  -0.17172  -0.15032  -0.14192
  Beta virt. eigenvalues --    0.07114   0.08028   0.08301   0.09435   0.10339
  Beta virt. eigenvalues --    0.11205   0.11571   0.11944   0.12154   0.13094
  Beta virt. eigenvalues --    0.13712   0.13756   0.14508   0.14903   0.15657

 Mulliken charges and spin densities:
               1          2
     1  C    1.032929  -1.312165
     2  N   -0.313206   0.256767
     3  C    1.000031  -1.451440
     4  C    0.197420  -0.106343
     5  O   -0.379399   0.012254
     6  N   -0.361969   0.111633
     7  C    0.369820  -0.395445
     8  N   -0.541248   0.200394
     9  O   -0.124338   0.025657
    10  C    0.925409  -1.197050
    11  H   -0.313337   0.465674
    12  H   -0.251289   0.404389
    13  H    0.040565   0.131514
    14  H   -0.471282   0.660742
    15  H   -0.204324   0.398461
    16  H   -0.623552   0.781310
    17  H   -0.136138   0.453034
    18  H   -0.193048   0.412455
    19  H   -0.192479   0.376538
    20  H   -0.069756   0.232980
    21  H   -0.390810   0.538642
 Sum of Mulliken charges =  -1.00000   1.00000

 Dipole moment (field-independent basis, Debye):
    X=              0.6035    Y=             -2.1794    Z=             -1.6749  Tot=              2.8141
 Quadrupole moment (field-independent basis, Debye-Ang):
   XX=           -111.2009   YY=           -105.7441   ZZ=            -93.4037
   XY=              3.9066   XZ=              0.0388   YZ=             -2.2092

 Summary of Natural Population Analysis:

                                       Natural Population
                Natural  -----------------------------------------------
    Atom  No    Charge         Core      Valence    Rydberg      Total
 -----------------------------------------------------------------------
      C    1   -0.17543      0.99964     2.16784    0.00795     3.17543
      N    2   -0.24841      0.99965     2.73803    0.01072     3.74841
      C    3   -0.17527      0.99963     2.16677    0.00887     3.17527
      C    4    0.41459      0.99964     1.56255    0.02322     2.58541
      O    5   -0.33427      0.99987     3.32903    0.00536     4.33427
      N    6   -0.34788      0.99965     2.83707    0.01117     3.84788
      C    7    0.37242      0.99961     1.60831    0.01966     2.62758
      N    8   -0.38367      0.99969     2.87559    0.00838     3.88367
      O    9   -0.27954      0.99986     3.26922    0.01046     4.27954
      C   10   -0.09767      0.99959     2.08983    0.00825     3.09767
      H   11    0.09603      0.00000     0.40244    0.00153     0.40397
      H   12    0.09330      0.00000     0.40539    0.00132     0.40670
      H   13    0.11246      0.00000     0.38649    0.00105     0.38754
      H   14    0.10627      0.00000     0.39148    0.00225     0.39373
      H   15    0.10033      0.00000     0.39682    0.00285     0.39967
      H   16    0.09652      0.00000     0.40121    0.00227     0.40348
      H   17    0.20117      0.00000     0.29601    0.00282     0.29883
      H   18    0.17284      0.00000     0.32440    0.00275     0.32716
      H   19    0.09297      0.00000     0.40527    0.00176     0.40703
      H   20    0.09075      0.00000     0.40773    0.00152     0.40925
      H   21    0.09248      0.00000     0.40573    0.00179     0.40752
 =======================================================================
   * Total *    0.00000      9.99683    28.86722    0.13594    39.00000

 Normal termination of Gaussian 16 at Tue Dec  8 13:23:56 2020.
