 Gaussian 16, Revision A.03,

 -----------------------------------------------------------
 # opt freq B3LYP/6-31G(d) empiricaldispersion=gd3bj scf=xqc
 -----------------------------------------------------------

 ------------------------------
 CID_16752088_JID_6060_neutraal
 ------------------------------
 Symbolic Z-matrix:
 Charge =  0 Multiplicity = 1

 SCF Done:  E(RB3LYP) =  -698.399598694     A.U. after   13 cycles
 SCF Done:  E(RB3LYP) =  -698.407784708     A.U. after   11 cycles
 SCF Done:  E(RB3LYP) =  -698.409046266     A.U. after   11 cycles
 SCF Done:  E(RB3LYP) =  -698.409343520     A.U. after   10 cycles
 SCF Done:  E(RB3LYP) =  -698.409471273     A.U. after   10 cycles
 SCF Done:  E(RB3LYP) =  -698.409534068     A.U. after    9 cycles
 SCF Done:  E(RB3LYP) =  -698.409567419     A.U. after   10 cycles
 SCF Done:  E(RB3LYP) =  -698.409592085     A.U. after    9 cycles
 SCF Done:  E(RB3LYP) =  -698.409603846     A.U. after    9 cycles
 SCF Done:  E(RB3LYP) =  -698.409606691     A.U. after    9 cycles
 SCF Done:  E(RB3LYP) =  -698.409607332     A.U. after    7 cycles
 SCF Done:  E(RB3LYP) =  -698.409607420     A.U. after    6 cycles
 SCF Done:  E(RB3LYP) =  -698.409607458     A.U. after    6 cycles
 SCF Done:  E(RB3LYP) =  -698.409607465     A.U. after    6 cycles
 SCF Done:  E(RB3LYP) =  -698.409607467     A.U. after    5 cycles
 Optimization completed.
    -- Stationary point found.
 Normal termination of Gaussian 16 at Thu Dec 10 21:14:17 2020.

 --------------------------------------------------------------------
 #N Geom=AllCheck Guess=TCheck SCRF=Check GenChk RB3LYP/6-31G(d) Freq
 --------------------------------------------------------------------

 Structure from the checkpoint file:  "JID_6060.chk"
 ------------------------------
 CID_16752088_JID_6060_neutraal
 ------------------------------
 Charge =  0 Multiplicity = 1

 SCF Done:  E(RB3LYP) =  -698.409607467     A.U. after    1 cycles

  Exact polarizability: 177.120  -5.771 143.531   5.513  -1.357 125.818
 Approx polarizability: 225.174 -14.910 203.409  12.471  -5.428 198.855

                      1                      2                      3
                      A                      A                      A
 Frequencies --     28.3512                39.7594                58.0568
 Red. masses --      3.3346                 2.9976                 3.7382
 Frc consts  --      0.0016                 0.0028                 0.0074
 IR Inten    --      0.3300                 0.3746                 0.0424

                      4                      5                      6
                      A                      A                      A
 Frequencies --     74.0221               105.7842               154.8243
 Red. masses --      2.0619                 2.8136                 2.0587
 Frc consts  --      0.0067                 0.0186                 0.0291
 IR Inten    --      1.4388                 1.7075                 0.1862

                      7                      8                      9
                      A                      A                      A
 Frequencies --    171.7725               184.4407               198.2410
 Red. masses --      1.7587                 1.6112                 1.6154
 Frc consts  --      0.0306                 0.0323                 0.0374
 IR Inten    --      0.1764                 0.2523                 0.7816

                     10                     11                     12
                      A                      A                      A
 Frequencies --    225.6976               237.9526               239.9418
 Red. masses --      2.0458                 1.2571                 1.5374
 Frc consts  --      0.0614                 0.0419                 0.0521
 IR Inten    --      1.1970                 0.7224                 1.0268

                     13                     14                     15
                      A                      A                      A
 Frequencies --    258.7265               270.5466               283.8424
 Red. masses --      1.9147                 2.0235                 1.7750
 Frc consts  --      0.0755                 0.0873                 0.0843
 IR Inten    --      0.8359                 1.2146                 0.7655

                     16                     17                     18
                      A                      A                      A
 Frequencies --    293.3405               304.2418               332.6107
 Red. masses --      1.9895                 1.7889                 2.1869
 Frc consts  --      0.1009                 0.0976                 0.1425
 IR Inten    --      2.8841                 2.3130                 0.8645

                     19                     20                     21
                      A                      A                      A
 Frequencies --    341.1611               378.4320               392.2767
 Red. masses --      2.3365                 2.5354                 2.8373
 Frc consts  --      0.1602                 0.2139                 0.2572
 IR Inten    --      3.4058                 0.7457                 4.0083

                     22                     23                     24
                      A                      A                      A
 Frequencies --    405.4898               422.9558               461.6394
 Red. masses --      3.3677                 2.5261                 3.9677
 Frc consts  --      0.3262                 0.2662                 0.4982
 IR Inten    --      2.3472                 6.1783                 2.2194

                     25                     26                     27
                      A                      A                      A
 Frequencies --    489.8893               518.6379               543.6712
 Red. masses --      3.3674                 3.1896                 3.1541
 Frc consts  --      0.4761                 0.5055                 0.5493
 IR Inten    --      1.5405                 2.5850                 0.8597

                     28                     29                     30
                      A                      A                      A
 Frequencies --    590.0056               615.9905               659.0925
 Red. masses --      3.3450                 3.2569                 3.8501
 Frc consts  --      0.6861                 0.7281                 0.9854
 IR Inten    --      9.7246                 2.5402                11.6114

                     31                     32                     33
                      A                      A                      A
 Frequencies --    687.4799               779.7351               820.1031
 Red. masses --      2.5697                 2.1221                 2.5543
 Frc consts  --      0.7156                 0.7602                 1.0122
 IR Inten    --      3.9021                 1.2975                 3.9206

                     34                     35                     36
                      A                      A                      A
 Frequencies --    827.4239               847.8716               884.1435
 Red. masses --      2.9587                 1.5345                 2.1206
 Frc consts  --      1.1935                 0.6499                 0.9767
 IR Inten    --     10.8737                 4.0197                 3.7008

                     37                     38                     39
                      A                      A                      A
 Frequencies --    902.2728               919.0829               928.2594
 Red. masses --      2.2168                 2.4921                 1.7552
 Frc consts  --      1.0633                 1.2403                 0.8911
 IR Inten    --      1.6854                16.4956                 8.5615

                     40                     41                     42
                      A                      A                      A
 Frequencies --    947.5246               961.2308               968.4975
 Red. masses --      2.4802                 2.0028                 1.6196
 Frc consts  --      1.3120                 1.0903                 0.8951
 IR Inten    --      8.6451                15.2720                 3.4766

                     43                     44                     45
                      A                      A                      A
 Frequencies --   1000.0993              1031.9651              1037.7904
 Red. masses --      1.8680                 1.6405                 1.8486
 Frc consts  --      1.1008                 1.0294                 1.1730
 IR Inten    --      8.9767                 6.3044                12.6985

                     46                     47                     48
                      A                      A                      A
 Frequencies --   1047.2918              1061.3908              1073.5884
 Red. masses --      1.9394                 1.9835                 1.8747
 Frc consts  --      1.2533                 1.3165                 1.2731
 IR Inten    --      3.0849                27.4350                 0.7436

                     49                     50                     51
                      A                      A                      A
 Frequencies --   1087.0106              1106.0477              1121.1356
 Red. masses --      1.5235                 1.5793                 2.2122
 Frc consts  --      1.0606                 1.1383                 1.6383
 IR Inten    --      1.1447                 7.1478                14.4050

                     52                     53                     54
                      A                      A                      A
 Frequencies --   1144.4452              1161.7600              1171.7989
 Red. masses --      2.1940                 1.9133                 1.5788
 Frc consts  --      1.6931                 1.5215                 1.2772
 IR Inten    --     27.1430                 7.3117                 2.5957

                     55                     56                     57
                      A                      A                      A
 Frequencies --   1181.8413              1190.8268              1219.5331
 Red. masses --      2.9574                 1.2980                 1.8337
 Frc consts  --      2.4338                 1.0845                 1.6068
 IR Inten    --    146.7821                 4.0264                 1.8761

                     58                     59                     60
                      A                      A                      A
 Frequencies --   1233.3827              1238.0385              1255.0784
 Red. masses --      1.5157                 2.5174                 2.0971
 Frc consts  --      1.3585                 2.2734                 1.9463
 IR Inten    --     14.9572                14.6737                 8.7707

                     61                     62                     63
                      A                      A                      A
 Frequencies --   1266.4441              1270.6337              1330.2375
 Red. masses --      1.4222                 1.8253                 1.5067
 Frc consts  --      1.3439                 1.7363                 1.5708
 IR Inten    --      4.8954                 2.3377                13.4241

                     64                     65                     66
                      A                      A                      A
 Frequencies --   1339.7187              1351.1618              1391.7063
 Red. masses --      1.4667                 1.8769                 1.5772
 Frc consts  --      1.5510                 2.0189                 1.7998
 IR Inten    --      5.9934                 2.5263                 1.5324

                     67                     68                     69
                      A                      A                      A
 Frequencies --   1394.0725              1398.4923              1406.4811
 Red. masses --      1.5624                 1.3320                 1.8579
 Frc consts  --      1.7891                 1.5349                 2.1654
 IR Inten    --      3.1996                 7.9630                 1.9980

                     70                     71                     72
                      A                      A                      A
 Frequencies --   1416.1675              1424.8739              1437.7090
 Red. masses --      1.2366                 1.2875                 1.2906
 Frc consts  --      1.4612                 1.5401                 1.5717
 IR Inten    --      4.5044                 5.4288                18.3640

                     73                     74                     75
                      A                      A                      A
 Frequencies --   1445.8759              1449.6655              1475.1150
 Red. masses --      1.2257                 1.2404                 2.0693
 Frc consts  --      1.5097                 1.5358                 2.6530
 IR Inten    --     12.5348                 6.8348                 5.3233

                     76                     77                     78
                      A                      A                      A
 Frequencies --   1501.8029              1504.2035              1505.3951
 Red. masses --      1.1294                 1.0877                 1.0743
 Frc consts  --      1.5008                 1.4500                 1.4344
 IR Inten    --      0.3359                 0.5724                 1.8577

                     79                     80                     81
                      A                      A                      A
 Frequencies --   1515.6879              1519.6329              1524.7697
 Red. masses --      1.0676                 1.0599                 1.0573
 Frc consts  --      1.4450                 1.4420                 1.4482
 IR Inten    --      2.8226                 3.2670                 2.9488

                     82                     83                     84
                      A                      A                      A
 Frequencies --   1525.2752              1526.2788              1530.9420
 Red. masses --      1.0517                 1.0781                 1.0517
 Frc consts  --      1.4416                 1.4798                 1.4524
 IR Inten    --      6.7182                 4.1976                 2.5567

                     85                     86                     87
                      A                      A                      A
 Frequencies --   1534.4127              1537.6519              1539.6690
 Red. masses --      1.0617                 1.0568                 1.0567
 Frc consts  --      1.4728                 1.4721                 1.4759
 IR Inten    --      2.3835                 3.8717                 2.3684

                     88                     89                     90
                      A                      A                      A
 Frequencies --   1546.4024              1552.1448              1740.2559
 Red. masses --      1.0735                 1.0565                 6.9084
 Frc consts  --      1.5125                 1.4996                12.3270
 IR Inten    --     15.0271                 7.3610                 0.6769

                     91                     92                     93
                      A                      A                      A
 Frequencies --   3008.4241              3010.3834              3032.0825
 Red. masses --      1.0366                 1.0690                 1.0675
 Frc consts  --      5.5275                 5.7080                 5.7823
 IR Inten    --     43.7519                31.5621                12.8989

                     94                     95                     96
                      A                      A                      A
 Frequencies --   3047.4664              3049.1035              3049.9850
 Red. masses --      1.0784                 1.0663                 1.0402
 Frc consts  --      5.9010                 5.8410                 5.7009
 IR Inten    --     41.5018                10.4873                36.9048

                     97                     98                     99
                      A                      A                      A
 Frequencies --   3056.0855              3056.7844              3058.4096
 Red. masses --      1.0389                 1.0522                 1.0425
 Frc consts  --      5.7168                 5.7927                 5.7453
 IR Inten    --     27.9166                43.3041                23.4861

                    100                    101                    102
                      A                      A                      A
 Frequencies --   3062.1967              3076.3611              3094.3080
 Red. masses --      1.0833                 1.1036                 1.0855
 Frc consts  --      5.9848                 6.1536                 6.1236
 IR Inten    --     47.5877                39.4105                 7.0130

                    103                    104                    105
                      A                      A                      A
 Frequencies --   3112.2158              3115.2616              3117.4748
 Red. masses --      1.1013                 1.0980                 1.1016
 Frc consts  --      6.2847                 6.2785                 6.3076
 IR Inten    --     29.5678                 6.0793                24.9447

                    106                    107                    108
                      A                      A                      A
 Frequencies --   3120.7533              3124.1753              3129.7105
 Red. masses --      1.0965                 1.0986                 1.1023
 Frc consts  --      6.2918                 6.3179                 6.3614
 IR Inten    --     27.2149                36.1717                25.1307

                    109                    110                    111
                      A                      A                      A
 Frequencies --   3131.9031              3134.0385              3137.8357
 Red. masses --      1.0983                 1.1028                 1.1000
 Frc consts  --      6.3472                 6.3819                 6.3814
 IR Inten    --     34.7773                24.9234                12.1977

                    112                    113                    114
                      A                      A                      A
 Frequencies --   3142.1453              3154.4184              3155.8009
 Red. masses --      1.1000                 1.0894                 1.0880
 Frc consts  --      6.3986                 6.3866                 6.3842
 IR Inten    --     22.3335                37.4547                27.4741

 - Thermochemistry -
 -------------------
 Temperature   298.150 Kelvin.  Pressure   1.00000 Atm.
 Atom     1 has atomic number  6 and mass  12.00000

 Molecular mass:   224.17763 amu.
 Principal axes and moments of inertia in atomic units:
                           1         2         3
     Eigenvalues --  1897.715485816.313026515.90992
           X            0.99998  -0.00137  -0.00586
           Y            0.00148   0.99983   0.01839
           Z            0.00584  -0.01840   0.99981
 This molecule is an asymmetric top.
 Rotational symmetry number  1.
 Warning -- assumption of classical behavior for rotation
           may cause significant error
 Rotational temperatures (Kelvin)      0.04564     0.01489     0.01329
 Rotational constants (GHZ):           0.95101     0.31029     0.27697
 Zero-point vibrational energy     946235.7 (Joules/Mol)
                                  226.15575 (Kcal/Mol)
 Warning -- explicit consideration of  29 degrees of freedom as
           vibrations may cause significant error
 Vibrational temperatures:     40.79    57.20    83.53   106.50   152.20
          (Kelvin)            222.76   247.14   265.37   285.22   324.73
                              342.36   345.22   372.25   389.26   408.39
                              422.05   437.74   478.55   490.85   544.48
                              564.40   583.41   608.54   664.20   704.84
                              746.20   782.22   848.89   886.27   948.29
                              989.13  1121.86  1179.95  1190.48  1219.90
                             1272.09  1298.17  1322.36  1335.56  1363.28
                             1383.00  1393.45  1438.92  1484.77  1493.15
                             1506.82  1527.10  1544.65  1563.97  1591.36
                             1613.06  1646.60  1671.51  1685.96  1700.41
                             1713.33  1754.64  1774.56  1781.26  1805.78
                             1822.13  1828.16  1913.92  1927.56  1944.02
                             2002.35  2005.76  2012.12  2023.61  2037.55
                             2050.08  2068.54  2080.29  2085.75  2122.36
                             2160.76  2164.21  2165.93  2180.74  2186.41
                             2193.80  2194.53  2195.97  2202.68  2207.68
                             2212.34  2215.24  2224.93  2233.19  2503.84
                             4328.45  4331.27  4362.49  4384.62  4386.98
                             4388.25  4397.03  4398.03  4400.37  4405.82
                             4426.20  4452.02  4477.78  4482.17  4485.35
                             4490.07  4494.99  4502.96  4506.11  4509.18
                             4514.65  4520.85  4538.50  4540.49

 Zero-point correction=                           0.360402 (Hartree/Particle)
 Thermal correction to Energy=                    0.378112
 Thermal correction to Enthalpy=                  0.379056
 Thermal correction to Gibbs Free Energy=         0.315324
 Sum of electronic and zero-point Energies=           -698.049205
 Sum of electronic and thermal Energies=              -698.031495
 Sum of electronic and thermal Enthalpies=            -698.030551
 Sum of electronic and thermal Free Energies=         -698.094283

                     E (Thermal)             CV                S
                      KCal/Mol        Cal/Mol-Kelvin    Cal/Mol-Kelvin
 Total                  237.269             68.145            134.136
 Electronic               0.000              0.000              0.000
 Translational            0.889              2.981             42.124
 Rotational               0.889              2.981             32.642
 Vibrational            235.492             62.184             59.370
 Vibration     1          0.593              1.984              5.942
 Vibration     2          0.594              1.981              5.271
 Vibration     3          0.596              1.974              4.522
 Vibration     4          0.599              1.966              4.043
 Vibration     5          0.605              1.945              3.345
 Vibration     6          0.620              1.897              2.612
 Vibration     7          0.626              1.877              2.416
 Vibration     8          0.631              1.861              2.283
 Vibration     9          0.637              1.842              2.149
 Vibration    10          0.650              1.802              1.913
 Vibration    11          0.656              1.783              1.818
 Vibration    12          0.657              1.779              1.803
 Vibration    13          0.668              1.748              1.670
 Vibration    14          0.674              1.727              1.593
 Vibration    15          0.682              1.704              1.510
 Vibration    16          0.688              1.686              1.455
 Vibration    17          0.695              1.666              1.393
 Vibration    18          0.715              1.610              1.247
 Vibration    19          0.721              1.593              1.207
 Vibration    20          0.749              1.516              1.045
 Vibration    21          0.760              1.487              0.991
 Vibration    22          0.770              1.458              0.943
 Vibration    23          0.785              1.420              0.882
 Vibration    24          0.819              1.335              0.761
 Vibration    25          0.846              1.272              0.684
 Vibration    26          0.874              1.209              0.613
 Vibration    27          0.899              1.154              0.557
 Vibration    28          0.947              1.053              0.467
 Vibration    29          0.976              0.998              0.423

                           ! Non-Optimized Parameters !
 Normal termination of Gaussian 16 at Thu Dec 10 21:29:58 2020.

 ----------------------------------------------------------------------
 # B3LYP/6-311++G(d,p) empiricaldispersion=gd3bj scf=xqc pop=npa geom=c
 heck
 ----------------------------------------------------------------------

 --------------------------------------
 CID_16752088_JID_6060_Energie_neutraal
 --------------------------------------
 Structure from the checkpoint file:  "JID_6060.chk"
 Charge =  0 Multiplicity = 1

 SCF Done:  E(RB3LYP) =  -698.602482537     A.U. after   14 cycles
 Normal termination of Gaussian 16 at Thu Dec 10 21:37:05 2020.

 ----------------------------------------------------------------------
 # B3LYP/6-311++G(d,p) empiricaldispersion=gd3bj scf=xqc pop=npa geom=c
 heck
 ----------------------------------------------------------------------

 ------------------------------------
 CID_16752088_JID_6060_Energie_kation
 ------------------------------------
 Structure from the checkpoint file:  "JID_6060.chk"
 Charge =  1 Multiplicity = 2

 SCF Done:  E(UB3LYP) =  -698.303671811     A.U. after   23 cycles
 Normal termination of Gaussian 16 at Thu Dec 10 21:54:29 2020.
 Gaussian 16:  ES64L-G16RevA.03 25-Dec-2016

 ----------------------------------------------------------------------
 # B3LYP/6-311++G(d,p) empiricaldispersion=gd3bj scf=xqc pop=npa geom=c
 heck
 ----------------------------------------------------------------------

 -----------------------------------
 CID_16752088_JID_6060_Energie_anion
 -----------------------------------
 Structure from the checkpoint file:  "JID_6060.chk"
 Charge = -1 Multiplicity = 2

                         Standard orientation:
 ---------------------------------------------------------------------
 Center     Atomic      Atomic             Coordinates (Angstroms)
 Number     Number       Type             X           Y           Z
 ---------------------------------------------------------------------
      1          6           0       -0.137305    2.015722    1.405303
      2          6           0       -1.030583    1.339171    0.396151
      3          6           0       -1.997424    2.007750   -0.248669
      4          6           0       -3.052549    1.369181   -1.108144
      5          6           0       -2.826471   -0.134111   -1.322557
      6          6           0       -2.247242   -0.850677   -0.083112
      7          6           0       -0.909734   -0.150275    0.212757
      8          6           0        0.368744   -0.750793   -0.243053
      9          8           0       -0.023054   -0.804636    1.144832
     10          6           0        1.607392    0.036028   -0.623637
     11          6           0        2.769064   -0.202496    0.357144
     12          6           0        3.249925   -1.654670    0.362653
     13          8           0        3.826285    0.738301    0.161693
     14          6           0        4.533907    0.642527   -1.057506
     15          6           0       -3.168999   -0.715519    1.143979
     16          6           0       -2.082410   -2.345560   -0.392164
     17          1           0       -0.374894    3.082014    1.468127
     18          1           0        0.928882    1.918356    1.182191
     19          1           0       -0.284548    1.567885    2.394904
     20          1           0       -2.088705    3.081286   -0.086581
     21          1           0       -3.120089    1.880134   -2.078501
     22          1           0       -4.027864    1.537800   -0.625871
     23          1           0       -2.122104   -0.279927   -2.152388
     24          1           0       -3.765660   -0.617094   -1.620073
     25          1           0        0.307461   -1.728182   -0.717478
     26          1           0        1.893335   -0.277508   -1.635268
     27          1           0        1.403864    1.108602   -0.671809
     28          1           0        2.401665    0.036860    1.359192
     29          1           0        3.521675   -2.005587   -0.639635
     30          1           0        4.122354   -1.759754    1.015436
     31          1           0        2.456750   -2.306490    0.742870
     32          1           0        5.047043   -0.322990   -1.172822
     33          1           0        3.889474    0.800271   -1.934976
     34          1           0        5.287616    1.434137   -1.037498
     35          1           0       -4.152574   -1.150692    0.932335
     36          1           0       -2.736388   -1.250390    1.996308
     37          1           0       -3.311554    0.326862    1.439803
     38          1           0       -1.592221   -2.515632   -1.356748
     39          1           0       -1.500244   -2.843376    0.389936
     40          1           0       -3.067013   -2.823573   -0.438525
 ---------------------------------------------------------------------

 SCF Done:  E(UB3LYP) =  -698.588858857     A.U. after   33 cycles
 SCF Done:  E(UB3LYP) =  -698.588858857     a.u. after    1 cycles

 The electronic state is 2-A.
 Alpha  occ. eigenvalues --  -19.03867 -19.02940 -10.13794 -10.13052 -10.12868
 Alpha  occ. eigenvalues --  -10.11546 -10.09352 -10.08612 -10.07713 -10.07544
 Alpha  occ. eigenvalues --  -10.07503 -10.07324 -10.07170 -10.06825 -10.06283
 Alpha  occ. eigenvalues --  -10.06246  -0.97975  -0.94036  -0.75381  -0.70280
 Alpha  occ. eigenvalues --   -0.69804  -0.65791  -0.62906  -0.59871  -0.59511
 Alpha  occ. eigenvalues --   -0.58885  -0.58115  -0.52993  -0.50617  -0.47878
 Alpha  occ. eigenvalues --   -0.46902  -0.42212  -0.41335  -0.38959  -0.38163
 Alpha  occ. eigenvalues --   -0.37472  -0.36917  -0.35826  -0.35332  -0.33691
 Alpha  occ. eigenvalues --   -0.32828  -0.32304  -0.32129  -0.31215  -0.30456
 Alpha  occ. eigenvalues --   -0.30189  -0.29468  -0.29130  -0.28419  -0.28317
 Alpha  occ. eigenvalues --   -0.27099  -0.26628  -0.26378  -0.25872  -0.24178
 Alpha  occ. eigenvalues --   -0.23269  -0.22198  -0.21275  -0.20520  -0.17844
 Alpha  occ. eigenvalues --   -0.16653  -0.14330   0.04173
 Alpha virt. eigenvalues --    0.05830   0.06797   0.07319   0.07827   0.08228
 Alpha virt. eigenvalues --    0.08660   0.09133   0.09304   0.09665   0.10097
 Alpha virt. eigenvalues --    0.10693   0.10822   0.11376   0.11747   0.12306

  Beta  occ. eigenvalues --  -19.03864 -19.02935 -10.13792 -10.13043 -10.12866
  Beta  occ. eigenvalues --  -10.11513 -10.09351 -10.08613 -10.07691 -10.07528
  Beta  occ. eigenvalues --  -10.07493 -10.07319 -10.07149 -10.06804 -10.06261
  Beta  occ. eigenvalues --  -10.06225  -0.97971  -0.94023  -0.75365  -0.70264
  Beta  occ. eigenvalues --   -0.69786  -0.65761  -0.62877  -0.59821  -0.59475
  Beta  occ. eigenvalues --   -0.58860  -0.58080  -0.52960  -0.50577  -0.47844
  Beta  occ. eigenvalues --   -0.46861  -0.42186  -0.41312  -0.38936  -0.38133
  Beta  occ. eigenvalues --   -0.37440  -0.36893  -0.35800  -0.35307  -0.33666
  Beta  occ. eigenvalues --   -0.32796  -0.32274  -0.32111  -0.31198  -0.30431
  Beta  occ. eigenvalues --   -0.30163  -0.29440  -0.29106  -0.28393  -0.28295
  Beta  occ. eigenvalues --   -0.27079  -0.26601  -0.26352  -0.25848  -0.24154
  Beta  occ. eigenvalues --   -0.23246  -0.22168  -0.21252  -0.20505  -0.17833
  Beta  occ. eigenvalues --   -0.16638  -0.14317
  Beta virt. eigenvalues --    0.06240   0.06753   0.07302   0.07701   0.08352
  Beta virt. eigenvalues --    0.08617   0.08932   0.09342   0.09585   0.10015
  Beta virt. eigenvalues --    0.10560   0.10997   0.11210   0.11612   0.12027

 Mulliken charges and spin densities:
               1          2
     1  C   -0.122958  -0.373490
     2  C    1.202237  -0.008042
     3  C   -0.533319   0.002690
     4  C    1.087228  -1.964608
     5  C   -0.320860  -0.224162
     6  C   -1.085989   1.736635
     7  C   -0.553573   0.343070
     8  C   -0.711102   0.730391
     9  O   -0.071074   0.010051
    10  C    0.788619  -1.844409
    11  C   -1.526584   1.230519
    12  C    0.560672  -1.102610
    13  O   -0.090744   0.019267
    14  C    0.774938  -1.024941
    15  C    0.368518  -1.019319
    16  C    0.392345  -0.754839
    17  H    0.049578   0.105109
    18  H    0.179088   0.017869
    19  H    0.144383   0.029960
    20  H   -0.276802   0.432221
    21  H   -0.397578   0.585712
    22  H   -0.036713   0.204484
    23  H    0.007441   0.153986
    24  H   -0.216234   0.386786
    25  H    0.439927  -0.195896
    26  H   -0.400298   0.568185
    27  H    0.347653  -0.108298
    28  H    0.154419   0.061818
    29  H   -0.300682   0.455100
    30  H    0.044863   0.116350
    31  H    0.104496   0.059782
    32  H   -0.269599   0.405586
    33  H   -0.264182   0.399256
    34  H   -0.038941   0.185378
    35  H   -0.188588   0.351443
    36  H    0.097224   0.073539
    37  H    0.129992   0.020535
    38  H   -0.318066   0.451257
    39  H    0.032796   0.137067
    40  H   -0.182533   0.346568
 Sum of Mulliken charges =  -1.00000   1.00000

 Dipole moment (field-independent basis, Debye):
    X=              0.0956    Y=              1.0727    Z=              4.5484  Tot=              4.6742
 Quadrupole moment (field-independent basis, Debye-Ang):
   XX=           -192.2247   YY=           -144.5094   ZZ=           -144.1393
   XY=              1.4754   XZ=              2.3214   YZ=             -0.4387

 Summary of Natural Population Analysis:

                                       Natural Population
                Natural  -----------------------------------------------
    Atom  No    Charge         Core      Valence    Rydberg      Total
 -----------------------------------------------------------------------
      C    1   -0.29279      0.99962     2.28753    0.00564     3.29279
      C    2   -0.02380      0.99943     2.01316    0.01121     3.02380
      C    3   -0.08136      0.99946     2.07228    0.00962     3.08136
      C    4   -0.20606      0.99961     2.19717    0.00928     3.20606
      C    5   -0.18383      0.99959     2.17417    0.01008     3.18383
      C    6   -0.04752      0.99953     2.03400    0.01399     3.04752
      C    7    0.11912      0.99939     1.86297    0.01853     2.88088
      C    8    0.05179      0.99947     1.93440    0.01434     2.94821
      O    9   -0.29371      0.99992     3.28788    0.00591     4.29371
      C   10   -0.22004      0.99959     2.21060    0.00985     3.22004
      C   11    0.06783      0.99954     1.91844    0.01418     2.93217
      C   12   -0.30368      0.99964     2.29877    0.00527     3.30368
      O   13   -0.30211      0.99989     3.29262    0.00960     4.30211
      C   14   -0.10209      0.99960     2.09266    0.00983     3.10209
      C   15   -0.28743      0.99962     2.28064    0.00717     3.28743
      C   16   -0.28746      0.99963     2.28034    0.00749     3.28746
      H   17    0.09943      0.00000     0.39971    0.00085     0.40057
      H   18    0.10455      0.00000     0.39411    0.00133     0.39545
      H   19    0.10616      0.00000     0.39277    0.00107     0.39384
      H   20    0.09466      0.00000     0.40429    0.00105     0.40534
      H   21    0.10628      0.00000     0.39239    0.00133     0.39372
      H   22    0.10189      0.00000     0.39679    0.00132     0.39811
      H   23    0.10061      0.00000     0.39771    0.00168     0.39939
      H   24    0.10283      0.00000     0.39571    0.00145     0.39717
      H   25    0.09455      0.00000     0.40375    0.00170     0.40545
      H   26    0.10590      0.00000     0.39237    0.00173     0.39410
      H   27    0.10801      0.00000     0.39042    0.00156     0.39199
      H   28    0.09440      0.00000     0.40373    0.00187     0.40560
      H   29    0.09985      0.00000     0.39895    0.00121     0.40015
      H   30    0.10195      0.00000     0.39723    0.00081     0.39805
      H   31    0.10638      0.00000     0.39284    0.00078     0.39362
      H   32    0.08022      0.00000     0.41828    0.00150     0.41978
      H   33    0.08086      0.00000     0.41766    0.00148     0.41914
      H   34    0.08861      0.00000     0.41043    0.00096     0.41139
      H   35    0.10020      0.00000     0.39894    0.00086     0.39980
      H   36    0.10273      0.00000     0.39636    0.00091     0.39727
      H   37    0.10365      0.00000     0.39546    0.00089     0.39635
      H   38    0.10152      0.00000     0.39728    0.00120     0.39848
      H   39    0.10537      0.00000     0.39347    0.00115     0.39463
      H   40    0.10249      0.00000     0.39658    0.00093     0.39751
 =======================================================================
   * Total *    0.00000     15.99353    45.81484    0.19162    62.00000

 Normal termination of Gaussian 16 at Thu Dec 10 22:22:50 2020.
