 Gaussian 16, Revision A.03,

 -----------------------------------------------------------
 # opt freq B3LYP/6-31G(d) empiricaldispersion=gd3bj scf=xqc
 -----------------------------------------------------------

 -------------------------------
 CID_140152237_JID_5119_neutraal
 -------------------------------
 Symbolic Z-matrix:
 Charge =  0 Multiplicity = 1

 SCF Done:  E(RB3LYP) =  -683.724065154     A.U. after   15 cycles
 SCF Done:  E(RB3LYP) =  -683.728883881     A.U. after   13 cycles
 SCF Done:  E(RB3LYP) =  -683.729541457     A.U. after   12 cycles
 SCF Done:  E(RB3LYP) =  -683.729750219     A.U. after   12 cycles
 SCF Done:  E(RB3LYP) =  -683.730184002     A.U. after   13 cycles
 SCF Done:  E(RB3LYP) =  -683.728302018     A.U. after   15 cycles
 SCF Done:  E(RB3LYP) =  -683.731241789     A.U. after   12 cycles
 SCF Done:  E(RB3LYP) =  -683.727345931     A.U. after   13 cycles
 SCF Done:  E(RB3LYP) =  -683.730424934     A.U. after   13 cycles
 SCF Done:  E(RB3LYP) =  -683.731844075     A.U. after   10 cycles
 SCF Done:  E(RB3LYP) =  -683.733344900     A.U. after   11 cycles
 SCF Done:  E(RB3LYP) =  -683.733379430     A.U. after   11 cycles
 SCF Done:  E(RB3LYP) =  -683.733387648     A.U. after   10 cycles
 SCF Done:  E(RB3LYP) =  -683.733388704     A.U. after    9 cycles
 SCF Done:  E(RB3LYP) =  -683.733389074     A.U. after    8 cycles
 Optimization completed.
    -- Stationary point found.
 Normal termination of Gaussian 16 at Thu Dec 10 14:50:51 2020.

 --------------------------------------------------------------------
 #N Geom=AllCheck Guess=TCheck SCRF=Check GenChk RB3LYP/6-31G(d) Freq
 --------------------------------------------------------------------

 Structure from the checkpoint file:  "JID_5119.chk"
 -------------------------------
 CID_140152237_JID_5119_neutraal
 -------------------------------
 Charge =  0 Multiplicity = 1

 SCF Done:  E(RB3LYP) =  -683.733389074     A.U. after    1 cycles

  Exact polarizability: 205.600 -12.359 130.490  12.823  10.150  77.830
 Approx polarizability: 302.329 -20.914 214.020  27.800  26.795 123.516

                      1                      2                      3
                      A                      A                      A
 Frequencies --     31.4993                48.4288                73.4050
 Red. masses --      4.1364                 3.8400                 4.0382
 Frc consts  --      0.0024                 0.0053                 0.0128
 IR Inten    --      0.1758                 0.3173                 0.6331

                      4                      5                      6
                      A                      A                      A
 Frequencies --    111.7708               139.9058               151.4348
 Red. masses --      3.9735                 2.7401                 3.2998
 Frc consts  --      0.0292                 0.0316                 0.0446
 IR Inten    --      0.7933                 4.5865                 9.4553

                      7                      8                      9
                      A                      A                      A
 Frequencies --    197.0507               220.4100               254.6632
 Red. masses --      2.5727                 3.7598                 1.7628
 Frc consts  --      0.0589                 0.1076                 0.0674
 IR Inten    --      1.6124                 2.7783                12.2178

                     10                     11                     12
                      A                      A                      A
 Frequencies --    269.4096               323.0303               347.2422
 Red. masses --      2.4560                 2.3219                 3.3009
 Frc consts  --      0.1050                 0.1428                 0.2345
 IR Inten    --      7.6784                 0.4282                 6.8520

                     13                     14                     15
                      A                      A                      A
 Frequencies --    364.9934               413.4556               432.9829
 Red. masses --      5.8034                 3.2359                 3.2963
 Frc consts  --      0.4555                 0.3259                 0.3641
 IR Inten    --      1.8483                 6.0900                 1.1794

                     16                     17                     18
                      A                      A                      A
 Frequencies --    472.9035               512.6896               560.8662
 Red. masses --      3.0365                 1.7296                 2.5654
 Frc consts  --      0.4001                 0.2679                 0.4755
 IR Inten    --      5.7452                69.5985                 9.7036

                     19                     20                     21
                      A                      A                      A
 Frequencies --    594.4554               643.5502               651.7844
 Red. masses --      3.2942                 3.8961                 3.5689
 Frc consts  --      0.6859                 0.9507                 0.8933
 IR Inten    --     25.2732                 0.4996                14.3238

                     22                     23                     24
                      A                      A                      A
 Frequencies --    677.9822               728.5198               746.8065
 Red. masses --      3.8899                 1.3506                 6.5732
 Frc consts  --      1.0535                 0.4223                 2.1600
 IR Inten    --     16.2587                24.4740                 6.7676

                     25                     26                     27
                      A                      A                      A
 Frequencies --    765.4939               794.7695               816.1666
 Red. masses --      5.7492                 2.4409                 2.6942
 Frc consts  --      1.9849                 0.9084                 1.0574
 IR Inten    --      6.8651                 4.8653                 0.4715

                     28                     29                     30
                      A                      A                      A
 Frequencies --    851.8399               867.9308               881.9988
 Red. masses --      1.4867                 1.3317                 2.9328
 Frc consts  --      0.6356                 0.5910                 1.3442
 IR Inten    --     35.6440                13.8772                 3.4838

                     31                     32                     33
                      A                      A                      A
 Frequencies --    930.0030               939.3367               963.0142
 Red. masses --      4.6739                 2.3286                 3.2765
 Frc consts  --      2.3817                 1.2106                 1.7903
 IR Inten    --      7.0949                20.4933                17.5047

                     34                     35                     36
                      A                      A                      A
 Frequencies --   1001.5881              1032.0328              1088.2637
 Red. masses --      1.2471                 1.9664                 1.4813
 Frc consts  --      0.7371                 1.2340                 1.0336
 IR Inten    --      1.6994                 9.6162                 3.2978

                     37                     38                     39
                      A                      A                      A
 Frequencies --   1097.6486              1112.1586              1138.5535
 Red. masses --      1.8960                 2.4195                 2.2296
 Frc consts  --      1.3459                 1.7632                 1.7029
 IR Inten    --     13.3195                 3.7678                 7.5060

                     40                     41                     42
                      A                      A                      A
 Frequencies --   1160.7624              1170.8267              1194.3023
 Red. masses --      5.1039                 1.6486                 1.2826
 Frc consts  --      4.0517                 1.3315                 1.0778
 IR Inten    --    115.7190                10.8651                 0.3448

                     43                     44                     45
                      A                      A                      A
 Frequencies --   1196.1347              1225.8586              1246.2744
 Red. masses --      1.8963                 1.5331                 2.8116
 Frc consts  --      1.5985                 1.3574                 2.5730
 IR Inten    --     50.0689                23.7242                54.2492

                     46                     47                     48
                      A                      A                      A
 Frequencies --   1264.6838              1277.5435              1332.8395
 Red. masses --      1.2242                 1.4415                 1.2286
 Frc consts  --      1.1536                 1.3862                 1.2859
 IR Inten    --      9.8693                62.5315                17.8696

                     49                     50                     51
                      A                      A                      A
 Frequencies --   1335.9055              1343.8690              1364.9517
 Red. masses --      4.4999                 1.9968                 2.2295
 Frc consts  --      4.7315                 2.1247                 2.4473
 IR Inten    --    102.7795                 1.8477               124.0680

                     52                     53                     54
                      A                      A                      A
 Frequencies --   1400.3274              1412.4194              1438.4404
 Red. masses --      1.3847                 1.4747                 1.8033
 Frc consts  --      1.5998                 1.7334                 2.1983
 IR Inten    --     22.5620                10.8809                63.8136

                     55                     56                     57
                      A                      A                      A
 Frequencies --   1449.7820              1468.9568              1472.1890
 Red. masses --      1.6157                 4.7920                 3.8238
 Frc consts  --      2.0008                 6.0924                 4.8828
 IR Inten    --      4.6417                 3.4005                32.6457

                     58                     59                     60
                      A                      A                      A
 Frequencies --   1498.1543              1501.5978              1503.5040
 Red. masses --      1.1641                 1.5488                 1.9388
 Frc consts  --      1.5394                 2.0575                 2.5823
 IR Inten    --      5.5606                 0.2342                 6.4973

                     61                     62                     63
                      A                      A                      A
 Frequencies --   1516.8633              1529.7792              1532.0497
 Red. masses --      1.0477                 1.0987                 1.0618
 Frc consts  --      1.4204                 1.5149                 1.4684
 IR Inten    --      5.9448                 5.6346                 5.0007

                     64                     65                     66
                      A                      A                      A
 Frequencies --   1556.4318              1567.3701              1613.6431
 Red. masses --      1.0867                 2.7079                 4.5128
 Frc consts  --      1.5510                 3.9195                 6.9233
 IR Inten    --      5.2205                35.9349               214.9432

                     67                     68                     69
                      A                      A                      A
 Frequencies --   1683.9765              2990.7480              3002.4555
 Red. masses --      6.2863                 1.0498                 1.0422
 Frc consts  --     10.5030                 5.5326                 5.5357
 IR Inten    --    189.6775                22.8205                75.3250

                     70                     71                     72
                      A                      A                      A
 Frequencies --   3024.9997              3047.6534              3050.0692
 Red. masses --      1.1034                 1.1045                 1.0666
 Frc consts  --      5.9490                 6.0445                 5.8461
 IR Inten    --     59.7152                73.9782                18.8648

                     73                     74                     75
                      A                      A                      A
 Frequencies --   3059.7449              3093.5454              3129.7686
 Red. masses --      1.0663                 1.1036                 1.0968
 Frc consts  --      5.8819                 6.2229                 6.3302
 IR Inten    --     77.3436                32.4168                17.1781

                     76                     77                     78
                      A                      A                      A
 Frequencies --   3140.3897              3226.5646              3241.0110
 Red. masses --      1.0978                 1.0895                 1.0959
 Frc consts  --      6.3791                 6.6829                 6.7821
 IR Inten    --     26.5349                 9.6997                17.3787

                     79                     80                     81
                      A                      A                      A
 Frequencies --   3253.6006              3308.8320              3599.8528
 Red. masses --      1.0943                 1.1001                 1.0755
 Frc consts  --      6.8253                 7.0966                 8.2116
 IR Inten    --     12.7298                 0.5532                26.4345

 - Thermochemistry -
 -------------------
 Temperature   298.150 Kelvin.  Pressure   1.00000 Atm.
 Atom     1 has atomic number  6 and mass  12.00000

 Molecular mass:   206.11676 amu.
 Principal axes and moments of inertia in atomic units:
                           1         2         3
     Eigenvalues --  1382.222335468.209456526.48775
           X            0.99998   0.00611  -0.00220
           Y           -0.00613   0.99994  -0.00905
           Z            0.00215   0.00906   0.99996
 This molecule is an asymmetric top.
 Rotational symmetry number  1.
 Warning -- assumption of classical behavior for rotation
           may cause significant error
 Rotational temperatures (Kelvin)      0.06266     0.01584     0.01327
 Rotational constants (GHZ):           1.30568     0.33004     0.27653
 Zero-point vibrational energy     638080.4 (Joules/Mol)
                                  152.50487 (Kcal/Mol)
 Warning -- explicit consideration of  19 degrees of freedom as
           vibrations may cause significant error
 Vibrational temperatures:     45.32    69.68   105.61   160.81   201.29
          (Kelvin)            217.88   283.51   317.12   366.40   387.62
                              464.77   499.60   525.14   594.87   622.97
                              680.40   737.65   806.96   855.29   925.93
                              937.77   975.47  1048.18  1074.49  1101.37
                             1143.50  1174.28  1225.61  1248.76  1269.00
                             1338.07  1351.50  1385.56  1441.06  1484.87
                             1565.77  1579.27  1600.15  1638.12  1670.08
                             1684.56  1718.33  1720.97  1763.74  1793.11
                             1819.60  1838.10  1917.66  1922.07  1933.53
                             1963.86  2014.76  2032.16  2069.59  2085.91
                             2113.50  2118.15  2155.51  2160.46  2163.21
                             2182.43  2201.01  2204.28  2239.36  2255.10
                             2321.67  2422.87  4303.02  4319.86  4352.30
                             4384.89  4388.37  4402.29  4450.92  4503.04
                             4518.32  4642.31  4663.09  4681.21  4760.67
                             5179.39

 Zero-point correction=                           0.243032 (Hartree/Particle)
 Thermal correction to Energy=                    0.256457
 Thermal correction to Enthalpy=                  0.257401
 Thermal correction to Gibbs Free Energy=         0.201956
 Sum of electronic and zero-point Energies=           -683.490357
 Sum of electronic and thermal Energies=              -683.476932
 Sum of electronic and thermal Enthalpies=            -683.475988
 Sum of electronic and thermal Free Energies=         -683.531433

                     E (Thermal)             CV                S
                      KCal/Mol        Cal/Mol-Kelvin    Cal/Mol-Kelvin
 Total                  160.929             51.363            116.694
 Electronic               0.000              0.000              0.000
 Translational            0.889              2.981             41.874
 Rotational               0.889              2.981             32.267
 Vibrational            159.152             45.402             42.553
 Vibration     1          0.594              1.983              5.733
 Vibration     2          0.595              1.978              4.881
 Vibration     3          0.599              1.967              4.060
 Vibration     4          0.607              1.940              3.238
 Vibration     5          0.615              1.913              2.805
 Vibration     6          0.619              1.901              2.654
 Vibration     7          0.636              1.844              2.160
 Vibration     8          0.647              1.810              1.956
 Vibration     9          0.665              1.755              1.698
 Vibration    10          0.674              1.729              1.600
 Vibration    11          0.708              1.629              1.295
 Vibration    12          0.725              1.581              1.179
 Vibration    13          0.738              1.544              1.101
 Vibration    14          0.777              1.441              0.914
 Vibration    15          0.794              1.398              0.849
 Vibration    16          0.830              1.310              0.729
 Vibration    17          0.868              1.222              0.627
 Vibration    18          0.917              1.116              0.522
 Vibration    19          0.952              1.044              0.459

 Optimization completed.
    -- Stationary point found.
 Normal termination of Gaussian 16 at Thu Dec 10 14:58:37 2020.

 ----------------------------------------------------------------------
 # B3LYP/6-311++G(d,p) empiricaldispersion=gd3bj scf=xqc pop=npa geom=c
 heck
 ----------------------------------------------------------------------

 ---------------------------------------
 CID_140152237_JID_5119_Energie_neutraal
 ---------------------------------------
 Structure from the checkpoint file:  "JID_5119.chk"
 Charge =  0 Multiplicity = 1

 SCF Done:  E(RB3LYP) =  -683.921133302     A.U. after   14 cycles
 Normal termination of Gaussian 16 at Thu Dec 10 15:01:28 2020.

 ----------------------------------------------------------------------
 # B3LYP/6-311++G(d,p) empiricaldispersion=gd3bj scf=xqc pop=npa geom=c
 heck
 ----------------------------------------------------------------------

 -------------------------------------
 CID_140152237_JID_5119_Energie_kation
 -------------------------------------
 Structure from the checkpoint file:  "JID_5119.chk"
 Charge =  1 Multiplicity = 2

 SCF Done:  E(UB3LYP) =  -683.636675911     A.U. after   31 cycles
 Normal termination of Gaussian 16 at Thu Dec 10 15:10:50 2020.
 Gaussian 16:  ES64L-G16RevA.03 25-Dec-2016

 ----------------------------------------------------------------------
 # B3LYP/6-311++G(d,p) empiricaldispersion=gd3bj scf=xqc pop=npa geom=c
 heck
 ----------------------------------------------------------------------

 ------------------------------------
 CID_140152237_JID_5119_Energie_anion
 ------------------------------------
 Structure from the checkpoint file:  "JID_5119.chk"
 Charge = -1 Multiplicity = 2

                         Standard orientation:
 ---------------------------------------------------------------------
 Center     Atomic      Atomic             Coordinates (Angstroms)
 Number     Number       Type             X           Y           Z
 ---------------------------------------------------------------------
      1          6           0        3.022457    2.402083   -0.347320
      2          8           0        3.180827    1.108820    0.202134
      3          6           0        3.210266    0.098533   -0.796666
      4          6           0        3.347319   -1.254103   -0.116227
      5          6           0        2.145514   -1.615916    0.767385
      6          7           0        0.900956   -1.729100    0.015614
      7          6           0       -0.172066   -0.871408    0.130032
      8          7           0       -1.340726   -1.387632   -0.218789
      9          7           0       -2.381968   -0.522041   -0.175546
     10          6           0       -3.678658   -0.802363   -0.503214
     11          6           0       -4.369574    0.381076   -0.279793
     12          7           0       -3.552551    1.372022    0.170549
     13          6           0       -2.340556    0.814681    0.233325
     14          6           0       -1.079120    1.317237    0.610892
     15          6           0        0.008771    0.489020    0.558225
     16          1           0        3.031406    3.110313    0.484889
     17          1           0        2.069195    2.494462   -0.890686
     18          1           0        3.843949    2.648158   -1.037666
     19          1           0        2.286747    0.129517   -1.396598
     20          1           0        4.057381    0.272401   -1.479608
     21          1           0        3.472430   -2.020767   -0.891159
     22          1           0        4.255918   -1.257073    0.498834
     23          1           0        2.339699   -2.572119    1.268145
     24          1           0        2.029135   -0.869184    1.556556
     25          1           0        0.620276   -2.661740   -0.258294
     26          1           0       -3.971249   -1.780718   -0.848747
     27          1           0       -5.427751    0.552082   -0.429125
     28          1           0       -1.001724    2.352941    0.922935
     29          1           0        1.001875    0.845390    0.800811
 ---------------------------------------------------------------------

 SCF Done:  E(UB3LYP) =  -683.919173218     A.U. after   33 cycles
 SCF Done:  E(UB3LYP) =  -683.919173218     a.u. after    1 cycles

 The electronic state is 2-A.
 Alpha  occ. eigenvalues --  -19.03208 -14.26255 -14.20323 -14.18664 -14.15736
 Alpha  occ. eigenvalues --  -10.12013 -10.11616 -10.10907 -10.09541 -10.09003
 Alpha  occ. eigenvalues --  -10.06729 -10.06512 -10.06016 -10.03658 -10.03310
 Alpha  occ. eigenvalues --   -0.94387  -0.92213  -0.83461  -0.79412  -0.70532
 Alpha  occ. eigenvalues --   -0.67796  -0.66052  -0.61143  -0.59432  -0.55810
 Alpha  occ. eigenvalues --   -0.51746  -0.50434  -0.47874  -0.46715  -0.42416
 Alpha  occ. eigenvalues --   -0.40444  -0.39435  -0.38893  -0.36838  -0.35655
 Alpha  occ. eigenvalues --   -0.34545  -0.33884  -0.32585  -0.31839  -0.30678
 Alpha  occ. eigenvalues --   -0.29639  -0.28121  -0.27573  -0.26612  -0.26098
 Alpha  occ. eigenvalues --   -0.24486  -0.23936  -0.22807  -0.19618  -0.17760
 Alpha  occ. eigenvalues --   -0.16869  -0.16087  -0.13283  -0.09108  -0.08778
 Alpha  occ. eigenvalues --    0.04577
 Alpha virt. eigenvalues --    0.06271   0.06996   0.08403   0.08923   0.09317
 Alpha virt. eigenvalues --    0.10131   0.10907   0.11068   0.11726   0.12651
 Alpha virt. eigenvalues --    0.12873   0.13328   0.13867   0.14519   0.14987

  Beta  occ. eigenvalues --  -19.03202 -14.26045 -14.20338 -14.18295 -14.15653
  Beta  occ. eigenvalues --  -10.12003 -10.11609 -10.10881 -10.09519 -10.09073
  Beta  occ. eigenvalues --  -10.06709 -10.06541 -10.05985 -10.03312 -10.03168
  Beta  occ. eigenvalues --   -0.94377  -0.91836  -0.83323  -0.79235  -0.70294
  Beta  occ. eigenvalues --   -0.67630  -0.65619  -0.61025  -0.59316  -0.55756
  Beta  occ. eigenvalues --   -0.51267  -0.50302  -0.47754  -0.46624  -0.42306
  Beta  occ. eigenvalues --   -0.40365  -0.39372  -0.38771  -0.36795  -0.35587
  Beta  occ. eigenvalues --   -0.34417  -0.33185  -0.32429  -0.31736  -0.30609
  Beta  occ. eigenvalues --   -0.29559  -0.28027  -0.27360  -0.26512  -0.25962
  Beta  occ. eigenvalues --   -0.24357  -0.23574  -0.22633  -0.18472  -0.17485
  Beta  occ. eigenvalues --   -0.16821  -0.15370  -0.13041  -0.08445  -0.07751
  Beta virt. eigenvalues --    0.06644   0.07523   0.08605   0.08929   0.09559
  Beta virt. eigenvalues --    0.09707   0.10336   0.10933   0.11061   0.11769
  Beta virt. eigenvalues --    0.12655   0.12912   0.13498   0.14102   0.14528

 Mulliken charges and spin densities:
               1          2
     1  C   -0.000011  -0.264306
     2  O   -0.141825   0.017892
     3  C   -0.611562   0.347758
     4  C    0.963740  -1.390761
     5  C   -0.184349  -0.025410
     6  N   -0.111880  -0.000728
     7  C   -0.897641   0.294420
     8  N   -0.171295   0.228185
     9  N    0.084926   0.033129
    10  C   -0.083190   0.014104
    11  C   -0.017396   0.028771
    12  N   -0.155312   0.029437
    13  C   -0.354026  -0.081152
    14  C   -0.133522   0.144853
    15  C    0.370716  -0.079042
    16  H    0.010128   0.129111
    17  H    0.096060   0.052457
    18  H   -0.061613   0.170395
    19  H    0.152395   0.003199
    20  H   -0.078963   0.217528
    21  H   -0.122927   0.263876
    22  H   -0.175249   0.325278
    23  H   -0.347654   0.521254
    24  H    0.128172   0.079128
    25  H    0.218125   0.058837
    26  H    0.126671   0.004845
    27  H    0.129840  -0.002757
    28  H    0.139353  -0.000991
    29  H    0.228292  -0.119310
 Sum of Mulliken charges =  -1.00000   1.00000

 Dipole moment (field-independent basis, Debye):
    X=              1.3214    Y=              0.1485    Z=             -0.8617  Tot=              1.5845
 Quadrupole moment (field-independent basis, Debye-Ang):
   XX=           -155.7616   YY=           -117.2619   ZZ=           -107.5268
   XY=             14.6150   XZ=              0.1437   YZ=              1.0391

 Summary of Natural Population Analysis:

                                       Natural Population
                Natural  -----------------------------------------------
    Atom  No    Charge         Core      Valence    Rydberg      Total
 -----------------------------------------------------------------------
      C    1   -0.09834      0.99962     2.09081    0.00791     3.09834
      O    2   -0.30157      0.99988     3.29255    0.00914     4.30157
      C    3   -0.01365      0.99958     2.00057    0.01350     3.01365
      C    4   -0.20157      0.99962     2.19162    0.01034     3.20157
      C    5   -0.08814      0.99961     2.07625    0.01228     3.08814
      N    6   -0.32555      0.99967     2.81502    0.01086     3.82555
      C    7    0.19615      0.99957     1.78884    0.01544     2.80385
      N    8   -0.13051      0.99966     2.61877    0.01208     3.63051
      N    9   -0.06516      0.99959     2.55406    0.01150     3.56516
      C   10   -0.06063      0.99958     2.04788    0.01316     3.06063
      C   11   -0.02435      0.99962     2.01160    0.01314     3.02435
      N   12   -0.26116      0.99971     2.74945    0.01200     3.76116
      C   13    0.14499      0.99957     1.83719    0.01825     2.85501
      C   14   -0.02692      0.99953     2.01807    0.00933     3.02692
      C   15   -0.12848      0.99953     2.12144    0.00751     3.12848
      H   16    0.08871      0.00000     0.41027    0.00102     0.41129
      H   17    0.08412      0.00000     0.41441    0.00146     0.41588
      H   18    0.07563      0.00000     0.42269    0.00167     0.42437
      H   19    0.08700      0.00000     0.41111    0.00189     0.41300
      H   20    0.07859      0.00000     0.42010    0.00131     0.42141
      H   21    0.09829      0.00000     0.40034    0.00137     0.40171
      H   22    0.09854      0.00000     0.39939    0.00207     0.40146
      H   23    0.09286      0.00000     0.40578    0.00136     0.40714
      H   24    0.10199      0.00000     0.39623    0.00179     0.39801
      H   25    0.18824      0.00000     0.30868    0.00308     0.31176
      H   26    0.10050      0.00000     0.39869    0.00082     0.39950
      H   27    0.08697      0.00000     0.41210    0.00093     0.41303
      H   28    0.09757      0.00000     0.40100    0.00143     0.40243
      H   29    0.10588      0.00000     0.39126    0.00286     0.39412
 =======================================================================
   * Total *    0.00000     14.99433    39.80617    0.19950    55.00000

 Normal termination of Gaussian 16 at Thu Dec 10 15:20:37 2020.
