 Gaussian 16, Revision A.03,

 -----------------------------------------------------------
 # opt freq B3LYP/6-31G(d) empiricaldispersion=gd3bj scf=xqc
 -----------------------------------------------------------

 ------------------------------
 CID_64947795_JID_7170_neutraal
 ------------------------------
 Symbolic Z-matrix:
 Charge =  0 Multiplicity = 1

 SCF Done:  E(RB3LYP) =  -732.707697746     A.U. after   14 cycles
 SCF Done:  E(RB3LYP) =  -732.712963772     A.U. after   12 cycles
 SCF Done:  E(RB3LYP) =  -732.713863877     A.U. after   12 cycles
 SCF Done:  E(RB3LYP) =  -732.714784193     A.U. after   11 cycles
 SCF Done:  E(RB3LYP) =  -732.715015704     A.U. after   12 cycles
 SCF Done:  E(RB3LYP) =  -732.715342861     A.U. after   12 cycles
 SCF Done:  E(RB3LYP) =  -732.715863009     A.U. after   11 cycles
 SCF Done:  E(RB3LYP) =  -732.716491021     A.U. after   12 cycles
 SCF Done:  E(RB3LYP) =  -732.716957245     A.U. after   12 cycles
 SCF Done:  E(RB3LYP) =  -732.717448725     A.U. after   12 cycles
 SCF Done:  E(RB3LYP) =  -732.718817422     A.U. after   11 cycles
 SCF Done:  E(RB3LYP) =  -732.718835204     A.U. after   11 cycles
 SCF Done:  E(RB3LYP) =  -732.718835627     A.U. after    7 cycles
 SCF Done:  E(RB3LYP) =  -732.718835802     A.U. after    7 cycles
 SCF Done:  E(RB3LYP) =  -732.718835875     A.U. after    7 cycles
 Optimization completed.
    -- Stationary point found.
 Normal termination of Gaussian 16 at Sun Dec 13 20:21:24 2020.

 --------------------------------------------------------------------
 #N Geom=AllCheck Guess=TCheck SCRF=Check GenChk RB3LYP/6-31G(d) Freq
 --------------------------------------------------------------------

 Structure from the checkpoint file:  "JID_7170.chk"
 ------------------------------
 CID_64947795_JID_7170_neutraal
 ------------------------------
 Charge =  0 Multiplicity = 1

 SCF Done:  E(RB3LYP) =  -732.718835875     A.U. after    1 cycles

  Exact polarizability: 182.386  -7.974 157.277  12.393   3.108 137.123
 Approx polarizability: 229.756 -10.473 238.247  22.925  11.405 208.626

                      1                      2                      3
                      A                      A                      A
 Frequencies --     26.5234                48.1168                57.5871
 Red. masses --      3.7375                 3.1979                 3.8206
 Frc consts  --      0.0015                 0.0044                 0.0075
 IR Inten    --      0.0058                 0.0256                 0.0783

                      4                      5                      6
                      A                      A                      A
 Frequencies --     85.6570               105.2506               124.7165
 Red. masses --      2.3842                 2.6240                 1.7561
 Frc consts  --      0.0103                 0.0171                 0.0161
 IR Inten    --      0.1842                 0.4763                 0.3903

                      7                      8                      9
                      A                      A                      A
 Frequencies --    135.9275               158.2650               165.0513
 Red. masses --      1.4093                 2.7201                 2.2044
 Frc consts  --      0.0153                 0.0401                 0.0354
 IR Inten    --      0.4489                 0.4585                 0.3282

                     10                     11                     12
                      A                      A                      A
 Frequencies --    209.2977               214.2024               222.1594
 Red. masses --      1.8486                 1.5543                 1.9111
 Frc consts  --      0.0477                 0.0420                 0.0556
 IR Inten    --      2.4761                 2.4288                 0.2155

                     13                     14                     15
                      A                      A                      A
 Frequencies --    257.3855               270.7702               279.9251
 Red. masses --      1.5844                 2.6117                 1.6181
 Frc consts  --      0.0618                 0.1128                 0.0747
 IR Inten    --      0.7956                 2.6227                 1.8680

                     16                     17                     18
                      A                      A                      A
 Frequencies --    301.8241               310.4003               346.8960
 Red. masses --      3.4696                 1.7950                 2.6287
 Frc consts  --      0.1862                 0.1019                 0.1864
 IR Inten    --      0.5336                 1.2236                 0.6458

                     19                     20                     21
                      A                      A                      A
 Frequencies --    362.1484               364.9697               412.2713
 Red. masses --      2.6357                 2.6506                 3.1149
 Frc consts  --      0.2037                 0.2080                 0.3119
 IR Inten    --      0.4523                 3.5432                 2.8815

                     22                     23                     24
                      A                      A                      A
 Frequencies --    445.7103               458.2795               496.6764
 Red. masses --      2.5354                 3.1787                 2.4128
 Frc consts  --      0.2968                 0.3933                 0.3507
 IR Inten    --      4.9029                 0.6971                 2.7687

                     25                     26                     27
                      A                      A                      A
 Frequencies --    537.2083               553.7762               622.9336
 Red. masses --      3.3760                 3.3166                 2.8960
 Frc consts  --      0.5740                 0.5993                 0.6621
 IR Inten    --     10.0244                 4.3728                 2.7620

                     28                     29                     30
                      A                      A                      A
 Frequencies --    632.4662               652.8825               696.4579
 Red. masses --      3.8089                 3.3696                 4.2291
 Frc consts  --      0.8977                 0.8462                 1.2086
 IR Inten    --      0.1410                 1.1039                 2.4205

                     31                     32                     33
                      A                      A                      A
 Frequencies --    728.9329               770.6948               797.8149
 Red. masses --      3.1401                 2.3483                 1.3109
 Frc consts  --      0.9830                 0.8218                 0.4916
 IR Inten    --      3.1690                17.3423                 8.4675

                     34                     35                     36
                      A                      A                      A
 Frequencies --    802.1112               827.3174               845.9844
 Red. masses --      1.2546                 2.0507                 1.3482
 Frc consts  --      0.4756                 0.8270                 0.5685
 IR Inten    --     25.1328                81.3098                 0.7228

                     37                     38                     39
                      A                      A                      A
 Frequencies --    883.9077               916.9747               942.8311
 Red. masses --      1.7247                 1.6976                 1.9251
 Frc consts  --      0.7939                 0.8410                 1.0083
 IR Inten    --     20.0875                56.1458                 0.1441

                     40                     41                     42
                      A                      A                      A
 Frequencies --    950.5579               962.3687               984.4199
 Red. masses --      1.7023                 2.8997                 2.5136
 Frc consts  --      0.9062                 1.5823                 1.4352
 IR Inten    --      2.6125                 6.2366                 7.5691

                     43                     44                     45
                      A                      A                      A
 Frequencies --    990.4995              1004.0948              1020.6530
 Red. masses --      1.7403                 2.1631                 1.7269
 Frc consts  --      1.0059                 1.2849                 1.0600
 IR Inten    --     14.9935                 1.8940                 1.5506

                     46                     47                     48
                      A                      A                      A
 Frequencies --   1047.4455              1049.8676              1054.2106
 Red. masses --      2.2079                 1.4310                 1.9578
 Frc consts  --      1.4272                 0.9293                 1.2820
 IR Inten    --      2.9001                19.1203                16.7162

                     49                     50                     51
                      A                      A                      A
 Frequencies --   1072.7651              1081.5348              1091.3886
 Red. masses --      2.9662                 1.4569                 1.6950
 Frc consts  --      2.0112                 1.0041                 1.1896
 IR Inten    --      8.5121                 2.3410                 6.2158

                     52                     53                     54
                      A                      A                      A
 Frequencies --   1114.2959              1117.7981              1148.6958
 Red. masses --      2.0206                 3.0158                 2.5128
 Frc consts  --      1.4782                 2.2201                 1.9535
 IR Inten    --     43.3375                16.3602                 4.0599

                     55                     56                     57
                      A                      A                      A
 Frequencies --   1153.2763              1169.0508              1189.8151
 Red. masses --      2.2503                 2.6323                 2.1141
 Frc consts  --      1.7634                 2.1196                 1.7633
 IR Inten    --     17.0850                40.1407                20.6823

                     58                     59                     60
                      A                      A                      A
 Frequencies --   1195.5757              1216.0675              1237.9835
 Red. masses --      2.3735                 2.1071                 1.7780
 Frc consts  --      1.9989                 1.8359                 1.6055
 IR Inten    --      4.0872                15.2587                 2.6581

                     61                     62                     63
                      A                      A                      A
 Frequencies --   1251.7750              1268.3960              1272.1383
 Red. masses --      5.4190                 1.7804                 2.4843
 Frc consts  --      5.0029                 1.6876                 2.3687
 IR Inten    --      5.1379                 9.0426                17.5106

                     64                     65                     66
                      A                      A                      A
 Frequencies --   1286.0409              1332.9525              1339.9280
 Red. masses --      1.2986                 1.2520                 1.2132
 Frc consts  --      1.2655                 1.3106                 1.2834
 IR Inten    --      4.6357                10.5084                 0.5983

                     67                     68                     69
                      A                      A                      A
 Frequencies --   1347.6494              1363.4447              1375.4250
 Red. masses --      1.6073                 1.2862                 1.3214
 Frc consts  --      1.7199                 1.4088                 1.4728
 IR Inten    --     28.3067                 8.4741                 9.8670

                     70                     71                     72
                      A                      A                      A
 Frequencies --   1389.5448              1406.1085              1411.9247
 Red. masses --      1.3296                 1.3977                 1.7375
 Frc consts  --      1.5126                 1.6282                 2.0408
 IR Inten    --      9.6766                 4.4229                 1.3102

                     73                     74                     75
                      A                      A                      A
 Frequencies --   1417.5264              1425.4974              1429.7963
 Red. masses --      1.6076                 1.3408                 1.2913
 Frc consts  --      1.9032                 1.6053                 1.5553
 IR Inten    --      3.7682                 1.0827                 6.9195

                     76                     77                     78
                      A                      A                      A
 Frequencies --   1438.2277              1443.7310              1445.4247
 Red. masses --      1.2597                 1.2592                 1.2944
 Frc consts  --      1.5352                 1.5464                 1.5933
 IR Inten    --     12.1684                 2.5846                 0.0623

                     79                     80                     81
                      A                      A                      A
 Frequencies --   1454.6595              1502.4536              1502.9278
 Red. masses --      1.3419                 1.0900                 1.0445
 Frc consts  --      1.6730                 1.4497                 1.3901
 IR Inten    --      2.9349                 3.9252                 6.4509

                     82                     83                     84
                      A                      A                      A
 Frequencies --   1508.6589              1516.3286              1520.2649
 Red. masses --      1.1882                 1.0485                 1.0654
 Frc consts  --      1.5935                 1.4204                 1.4508
 IR Inten    --     15.5168                 2.3541                 1.5757

                     85                     86                     87
                      A                      A                      A
 Frequencies --   1521.8115              1522.8387              1525.6861
 Red. masses --      1.1044                 1.0596                 1.1085
 Frc consts  --      1.5070                 1.4477                 1.5202
 IR Inten    --      4.4841                 3.1843                 7.9535

                     88                     89                     90
                      A                      A                      A
 Frequencies --   1532.8553              1537.8380              1539.2626
 Red. masses --      1.0509                 1.0497                 1.0622
 Frc consts  --      1.4549                 1.4626                 1.4828
 IR Inten    --      2.6061                 2.8423                 5.4146

                     91                     92                     93
                      A                      A                      A
 Frequencies --   1560.1211              1603.0520              1667.1828
 Red. masses --      1.0507                 7.0237                 6.0587
 Frc consts  --      1.5067                10.6344                 9.9219
 IR Inten    --      5.8903                15.0265                 7.5880

                     94                     95                     96
                      A                      A                      A
 Frequencies --   2906.1912              2916.8176              3017.3807
 Red. masses --      1.0742                 1.0780                 1.0724
 Frc consts  --      5.3453                 5.4035                 5.7526
 IR Inten    --     15.6554                73.7101                 8.1273

                     97                     98                     99
                      A                      A                      A
 Frequencies --   3030.9909              3040.8819              3043.4985
 Red. masses --      1.0776                 1.0605                 1.0382
 Frc consts  --      5.8326                 5.7776                 5.6662
 IR Inten    --     33.6870                40.3874                34.9337

                    100                    101                    102
                      A                      A                      A
 Frequencies --   3047.8112              3058.0254              3058.6133
 Red. masses --      1.0372                 1.0430                 1.0815
 Frc consts  --      5.6766                 5.7464                 5.9612
 IR Inten    --     22.3600                45.5378                 4.2500

                    103                    104                    105
                      A                      A                      A
 Frequencies --   3069.0310              3077.8901              3082.4196
 Red. masses --      1.0453                 1.0886                 1.0914
 Frc consts  --      5.8011                 6.0761                 6.1095
 IR Inten    --     21.4196                42.7126                32.9093

                    106                    107                    108
                      A                      A                      A
 Frequencies --   3090.4944              3092.4802              3113.2371
 Red. masses --      1.1040                 1.1015                 1.1020
 Frc consts  --      6.2127                 6.2067                 6.2932
 IR Inten    --     24.3415                18.2734                39.6475

                    109                    110                    111
                      A                      A                      A
 Frequencies --   3117.6761              3118.9054              3134.4829
 Red. masses --      1.1000                 1.1013                 1.1000
 Frc consts  --      6.2994                 6.3120                 6.3673
 IR Inten    --     37.2135                55.6944                26.0457

                    112                    113                    114
                      A                      A                      A
 Frequencies --   3141.2146              3173.7937              3186.7761
 Red. masses --      1.0992                 1.0990                 1.0961
 Frc consts  --      6.3903                 6.5223                 6.5582
 IR Inten    --     12.0216                 8.5685                16.8227

                    115                    116                    117
                      A                      A                      A
 Frequencies --   3259.0152              3272.1262              3440.2869
 Red. masses --      1.0928                 1.1008                 1.0729
 Frc consts  --      6.8388                 6.9444                 7.4814
 IR Inten    --     10.2114                 2.1117                 3.1886

 - Thermochemistry -
 -------------------
 Temperature   298.150 Kelvin.  Pressure   1.00000 Atm.
 Atom     1 has atomic number  6 and mass  12.00000

 Molecular mass:   236.18886 amu.
 Principal axes and moments of inertia in atomic units:
                           1         2         3
     Eigenvalues --  2434.284226462.125277068.32092
           X            0.99970  -0.02376   0.00601
           Y            0.02372   0.99970   0.00686
           Z           -0.00617  -0.00671   0.99996
 This molecule is an asymmetric top.
 Rotational symmetry number  1.
 Warning -- assumption of classical behavior for rotation
           may cause significant error
 Rotational temperatures (Kelvin)      0.03558     0.01340     0.01225
 Rotational constants (GHZ):           0.74138     0.27928     0.25533
 Zero-point vibrational energy     969430.9 (Joules/Mol)
                                  231.69954 (Kcal/Mol)
 Warning -- explicit consideration of  26 degrees of freedom as
           vibrations may cause significant error
 Vibrational temperatures:     38.16    69.23    82.85   123.24   151.43
          (Kelvin)            179.44   195.57   227.71   237.47   301.13
                              308.19   319.64   370.32   389.58   402.75
                              434.26   446.60   499.11   521.05   525.11
                              593.17   641.28   659.36   714.61   772.92
                              796.76   896.26   909.98   939.35  1002.05
                             1048.77  1108.86  1147.88  1154.06  1190.33
                             1217.18  1271.75  1319.32  1356.52  1367.64
                             1384.63  1416.36  1425.11  1444.67  1468.49
                             1507.04  1510.53  1516.77  1543.47  1556.09
                             1570.26  1603.22  1608.26  1652.72  1659.31
                             1682.00  1711.88  1720.17  1749.65  1781.18
                             1801.02  1824.94  1830.32  1850.33  1917.82
                             1927.86  1938.97  1961.69  1978.93  1999.24
                             2023.08  2031.44  2039.50  2050.97  2057.16
                             2069.29  2077.21  2079.64  2092.93  2161.70
                             2162.38  2170.62  2181.66  2187.32  2189.55
                             2191.03  2195.12  2205.44  2212.61  2214.66
                             2244.67  2306.43  2398.70  4181.36  4196.65
                             4341.34  4360.92  4375.15  4378.92  4385.12
                             4399.82  4400.66  4415.65  4428.40  4434.91
                             4446.53  4449.39  4479.25  4485.64  4487.41
                             4509.82  4519.51  4566.38  4585.06  4689.00
                             4707.86  4949.81

 Zero-point correction=                           0.369237 (Hartree/Particle)
 Thermal correction to Energy=                    0.386985
 Thermal correction to Enthalpy=                  0.387929
 Thermal correction to Gibbs Free Energy=         0.323639
 Sum of electronic and zero-point Energies=           -732.349599
 Sum of electronic and thermal Energies=              -732.331851
 Sum of electronic and thermal Enthalpies=            -732.330907
 Sum of electronic and thermal Free Energies=         -732.395197

                     E (Thermal)             CV                S
                      KCal/Mol        Cal/Mol-Kelvin    Cal/Mol-Kelvin
 Total                  242.837             68.325            135.309
 Electronic               0.000              0.000              0.000
 Translational            0.889              2.981             42.280
 Rotational               0.889              2.981             33.075
 Vibrational            241.059             62.363             59.955
 Vibration     1          0.593              1.984              6.074
 Vibration     2          0.595              1.978              4.893
 Vibration     3          0.596              1.974              4.538
 Vibration     4          0.601              1.959              3.757
 Vibration     5          0.605              1.945              3.355
 Vibration     6          0.610              1.928              3.026
 Vibration     7          0.614              1.917              2.860
 Vibration     8          0.621              1.893              2.570
 Vibration     9          0.623              1.885              2.491
 Vibration    10          0.642              1.827              2.050
 Vibration    11          0.644              1.819              2.008
 Vibration    12          0.648              1.807              1.941
 Vibration    13          0.667              1.750              1.679
 Vibration    14          0.674              1.727              1.591
 Vibration    15          0.680              1.711              1.534
 Vibration    16          0.694              1.670              1.407
 Vibration    17          0.699              1.654              1.360
 Vibration    18          0.725              1.582              1.180
 Vibration    19          0.736              1.550              1.113
 Vibration    20          0.738              1.544              1.101
 Vibration    21          0.776              1.444              0.919
 Vibration    22          0.805              1.370              0.809
 Vibration    23          0.816              1.343              0.771
 Vibration    24          0.852              1.257              0.666
 Vibration    25          0.892              1.168              0.571
 Vibration    26          0.909              1.131              0.536

                           ! Non-Optimized Parameters !
 Normal termination of Gaussian 16 at Sun Dec 13 20:41:52 2020.

 ----------------------------------------------------------------------
 # B3LYP/6-311++G(d,p) empiricaldispersion=gd3bj scf=xqc pop=npa geom=c
 heck
 ----------------------------------------------------------------------

 --------------------------------------
 CID_64947795_JID_7170_Energie_neutraal
 --------------------------------------
 Structure from the checkpoint file:  "JID_7170.chk"
 Charge =  0 Multiplicity = 1

 SCF Done:  E(RB3LYP) =  -732.920312707     A.U. after   14 cycles
 Normal termination of Gaussian 16 at Sun Dec 13 20:51:03 2020.

 ----------------------------------------------------------------------
 # B3LYP/6-311++G(d,p) empiricaldispersion=gd3bj scf=xqc pop=npa geom=c
 heck
 ----------------------------------------------------------------------

 ------------------------------------
 CID_64947795_JID_7170_Energie_kation
 ------------------------------------
 Structure from the checkpoint file:  "JID_7170.chk"
 Charge =  1 Multiplicity = 2

 SCF Done:  E(UB3LYP) =  -732.651348627     A.U. after   23 cycles
 Normal termination of Gaussian 16 at Sun Dec 13 21:12:10 2020.
 Gaussian 16:  ES64L-G16RevA.03 25-Dec-2016

 ----------------------------------------------------------------------
 # B3LYP/6-311++G(d,p) empiricaldispersion=gd3bj scf=xqc pop=npa geom=c
 heck
 ----------------------------------------------------------------------

 -----------------------------------
 CID_64947795_JID_7170_Energie_anion
 -----------------------------------
 Structure from the checkpoint file:  "JID_7170.chk"
 Charge = -1 Multiplicity = 2

                         Standard orientation:
 ---------------------------------------------------------------------
 Center     Atomic      Atomic             Coordinates (Angstroms)
 Number     Number       Type             X           Y           Z
 ---------------------------------------------------------------------
      1          6           0        4.372725   -1.905524    0.375114
      2          6           0        3.849756   -0.982636   -0.728818
      3          6           0        2.864249    0.086583   -0.249143
      4          6           0        1.572120   -0.513058    0.314212
      5          7           0        0.625952    0.519993    0.756343
      6          6           0        0.281970    1.413391   -0.368091
      7          6           0        1.586790    2.000582   -0.940980
      8          7           0        2.592179    1.023759   -1.343352
      9          6           0       -0.638991    2.572902    0.015627
     10          6           0       -0.506401   -0.117070    1.484744
     11          6           0       -1.111703    0.780006    2.573613
     12          6           0       -1.539417   -0.747108    0.595033
     13          6           0       -1.645921   -1.985805    0.032707
     14          6           0       -2.819964   -1.971576   -0.793047
     15          6           0       -3.358463   -0.724339   -0.684377
     16          8           0       -2.586815    0.032329    0.160037
     17          6           0       -4.555344   -0.061128   -1.265903
     18          1           0        4.824886   -1.327110    1.189810
     19          1           0        5.137907   -2.585283   -0.015026
     20          1           0        3.576847   -2.522141    0.807022
     21          1           0        4.686174   -0.460414   -1.207733
     22          1           0        3.368915   -1.585076   -1.514293
     23          1           0        3.336442    0.671535    0.553428
     24          1           0        1.126255   -1.173294   -0.458658
     25          1           0        1.805837   -1.142164    1.179884
     26          1           0       -0.205927    0.832030   -1.176358
     27          1           0        2.034224    2.650599   -0.177241
     28          1           0        1.343191    2.628313   -1.805880
     29          1           0        2.228605    0.489318   -2.135044
     30          1           0       -0.676363    3.289128   -0.813673
     31          1           0       -1.659693    2.244681    0.209959
     32          1           0       -0.253793    3.094634    0.897916
     33          1           0       -0.040976   -0.955453    2.014212
     34          1           0       -1.721771    0.171031    3.249943
     35          1           0       -0.301979    1.242166    3.144972
     36          1           0       -1.749315    1.567598    2.173766
     37          1           0       -0.971128   -2.814588    0.195915
     38          1           0       -3.215133   -2.785100   -1.385590
     39          1           0       -5.249349    0.274376   -0.485327
     40          1           0       -4.278651    0.819138   -1.859455
     41          1           0       -5.086041   -0.760137   -1.917929
 ---------------------------------------------------------------------

 SCF Done:  E(UB3LYP) =  -732.906188613     A.U. after   33 cycles
 SCF Done:  E(UB3LYP) =  -732.906188613     a.u. after    1 cycles

 The electronic state is 2-A.
 Alpha  occ. eigenvalues --  -19.08732 -14.21709 -14.20963 -10.13041 -10.12443
 Alpha  occ. eigenvalues --  -10.12124 -10.10808 -10.10576 -10.10217 -10.09667
 Alpha  occ. eigenvalues --  -10.07995 -10.07840 -10.07258 -10.07182 -10.07105
 Alpha  occ. eigenvalues --  -10.06984 -10.06911  -1.01161  -0.85330  -0.80763
 Alpha  occ. eigenvalues --   -0.70963  -0.70329  -0.70154  -0.67082  -0.65958
 Alpha  occ. eigenvalues --   -0.60619  -0.59309  -0.57159  -0.54550  -0.52830
 Alpha  occ. eigenvalues --   -0.50718  -0.49207  -0.48076  -0.45259  -0.41655
 Alpha  occ. eigenvalues --   -0.39899  -0.39202  -0.37886  -0.36783  -0.35870
 Alpha  occ. eigenvalues --   -0.35587  -0.35237  -0.33883  -0.33366  -0.32692
 Alpha  occ. eigenvalues --   -0.31514  -0.31283  -0.30924  -0.30754  -0.29720
 Alpha  occ. eigenvalues --   -0.29124  -0.28677  -0.28309  -0.27622  -0.27139
 Alpha  occ. eigenvalues --   -0.26784  -0.25611  -0.25127  -0.24830  -0.23995
 Alpha  occ. eigenvalues --   -0.23538  -0.18510  -0.14691  -0.13495  -0.11970
 Alpha  occ. eigenvalues --    0.04132
 Alpha virt. eigenvalues --    0.05598   0.06791   0.06853   0.07360   0.08143
 Alpha virt. eigenvalues --    0.08360   0.08648   0.09061   0.09609   0.09989
 Alpha virt. eigenvalues --    0.10163   0.10506   0.11214   0.11568   0.11879

  Beta  occ. eigenvalues --  -19.08721 -14.21702 -14.20959 -10.13041 -10.12441
  Beta  occ. eigenvalues --  -10.12119 -10.10803 -10.10575 -10.10214 -10.09656
  Beta  occ. eigenvalues --  -10.07948 -10.07829 -10.07247 -10.07151 -10.07096
  Beta  occ. eigenvalues --  -10.06966 -10.06903  -1.01143  -0.85319  -0.80752
  Beta  occ. eigenvalues --   -0.70947  -0.70308  -0.70134  -0.67058  -0.65930
  Beta  occ. eigenvalues --   -0.60592  -0.59262  -0.57140  -0.54513  -0.52796
  Beta  occ. eigenvalues --   -0.50687  -0.49175  -0.48050  -0.45226  -0.41628
  Beta  occ. eigenvalues --   -0.39878  -0.39184  -0.37863  -0.36765  -0.35844
  Beta  occ. eigenvalues --   -0.35561  -0.35211  -0.33855  -0.33341  -0.32668
  Beta  occ. eigenvalues --   -0.31495  -0.31239  -0.30906  -0.30719  -0.29699
  Beta  occ. eigenvalues --   -0.29091  -0.28648  -0.28292  -0.27595  -0.27115
  Beta  occ. eigenvalues --   -0.26764  -0.25595  -0.25109  -0.24806  -0.23975
  Beta  occ. eigenvalues --   -0.23518  -0.18495  -0.14671  -0.13476  -0.11952
  Beta virt. eigenvalues --    0.06109   0.06519   0.07011   0.07209   0.07876
  Beta virt. eigenvalues --    0.08465   0.08697   0.08860   0.09241   0.10025
  Beta virt. eigenvalues --    0.10175   0.10457   0.10678   0.11457   0.11761

 Mulliken charges and spin densities:
               1          2
     1  C    0.747549  -1.415022
     2  C   -0.665335   0.591578
     3  C    0.029580  -0.458012
     4  C   -0.766695   0.204273
     5  N    0.541612  -0.034835
     6  C    0.052309  -0.017449
     7  C   -0.276040  -0.183550
     8  N    0.015262   0.022659
     9  C   -0.471150  -0.134022
    10  C   -0.598452   0.020276
    11  C    0.006391  -0.530443
    12  C    1.277080  -1.045020
    13  C   -0.874993   0.676113
    14  C   -0.608271   0.372504
    15  C   -1.506649   1.784883
    16  O    0.029848   0.040478
    17  C    3.458829  -4.103808
    18  H   -0.029414   0.154673
    19  H   -0.347178   0.494666
    20  H   -0.326960   0.475080
    21  H    0.079901   0.098526
    22  H   -0.058689   0.185781
    23  H    0.099092   0.084796
    24  H    0.388909  -0.256971
    25  H    0.356500  -0.165629
    26  H    0.234965  -0.101289
    27  H    0.169954  -0.012334
    28  H    0.046533   0.108128
    29  H    0.103537   0.136817
    30  H    0.014756   0.116703
    31  H    0.161678   0.018781
    32  H    0.114142   0.029889
    33  H   -0.180501   0.343277
    34  H    0.006054   0.135604
    35  H    0.120736   0.036163
    36  H    0.093989   0.054519
    37  H   -0.619312   0.787303
    38  H   -0.824271   1.001161
    39  H   -0.207804   0.369347
    40  H   -0.253681   0.407199
    41  H   -0.533812   0.707206
 Sum of Mulliken charges =  -1.00000   1.00000

 Dipole moment (field-independent basis, Debye):
    X=              3.4490    Y=              5.6811    Z=              2.1558  Tot=              6.9870
 Quadrupole moment (field-independent basis, Debye-Ang):
   XX=           -211.8666   YY=           -159.5780   ZZ=           -145.3341
   XY=              2.5602   XZ=            -13.0204   YZ=              0.5609

 Summary of Natural Population Analysis:

                                       Natural Population
                Natural  -----------------------------------------------
    Atom  No    Charge         Core      Valence    Rydberg      Total
 -----------------------------------------------------------------------
      C    1   -0.28596      0.99967     2.28128    0.00501     3.28596
      C    2   -0.19226      0.99962     2.18290    0.00975     3.19226
      C    3   -0.01252      0.99958     2.00060    0.01234     3.01252
      C    4   -0.09512      0.99958     2.08369    0.01186     3.09512
      N    5   -0.27875      0.99970     2.76740    0.01165     3.77875
      C    6   -0.01779      0.99959     2.00590    0.01230     3.01779
      C    7   -0.08636      0.99960     2.07603    0.01073     3.08636
      N    8   -0.33526      0.99975     2.82396    0.01156     3.83526
      C    9   -0.29402      0.99964     2.28759    0.00679     3.29402
      C   10   -0.02978      0.99954     2.01588    0.01436     3.02978
      C   11   -0.28228      0.99964     2.27788    0.00476     3.28228
      C   12    0.13892      0.99942     1.84577    0.01588     2.86108
      C   13   -0.14042      0.99948     2.13208    0.00886     3.14042
      C   14   -0.14937      0.99949     2.14043    0.00945     3.14937
      C   15    0.15363      0.99947     1.83241    0.01449     2.84637
      O   16   -0.24916      0.99985     3.24008    0.00924     4.24916
      C   17   -0.30569      0.99963     2.30012    0.00594     3.30569
      H   18    0.09528      0.00000     0.40377    0.00095     0.40472
      H   19    0.10063      0.00000     0.39838    0.00099     0.39937
      H   20    0.09937      0.00000     0.39925    0.00139     0.40063
      H   21    0.10078      0.00000     0.39792    0.00130     0.39922
      H   22    0.09406      0.00000     0.40475    0.00119     0.40594
      H   23    0.09013      0.00000     0.40794    0.00194     0.40987
      H   24    0.08391      0.00000     0.41388    0.00221     0.41609
      H   25    0.09856      0.00000     0.39937    0.00208     0.40144
      H   26    0.08298      0.00000     0.41472    0.00230     0.41702
      H   27    0.09082      0.00000     0.40788    0.00130     0.40918
      H   28    0.09424      0.00000     0.40491    0.00084     0.40576
      H   29    0.16784      0.00000     0.32950    0.00266     0.33216
      H   30    0.09866      0.00000     0.40054    0.00080     0.40134
      H   31    0.10975      0.00000     0.38886    0.00139     0.39025
      H   32    0.09870      0.00000     0.40037    0.00093     0.40130
      H   33    0.10528      0.00000     0.39273    0.00199     0.39472
      H   34    0.10079      0.00000     0.39846    0.00075     0.39921
      H   35    0.10189      0.00000     0.39699    0.00112     0.39811
      H   36    0.10186      0.00000     0.39683    0.00131     0.39814
      H   37    0.11066      0.00000     0.38795    0.00139     0.38934
      H   38    0.11030      0.00000     0.38822    0.00148     0.38970
      H   39    0.10690      0.00000     0.39168    0.00142     0.39310
      H   40    0.10723      0.00000     0.39121    0.00156     0.39277
      H   41    0.11161      0.00000     0.38644    0.00195     0.38839
 =======================================================================
   * Total *   -0.00000     16.99323    47.79658    0.21020    65.00000

 Normal termination of Gaussian 16 at Sun Dec 13 21:39:18 2020.
