 Gaussian 16, Revision A.03,

 -----------------------------------------------------------
 # opt freq B3LYP/6-31G(d) empiricaldispersion=gd3bj scf=xqc
 -----------------------------------------------------------

 ------------------------------
 CID_81774561_JID_6841_neutraal
 ------------------------------
 Symbolic Z-matrix:
 Charge =  0 Multiplicity = 1

 SCF Done:  E(RB3LYP) =  -707.028889069     A.U. after   14 cycles
 SCF Done:  E(RB3LYP) =  -707.031422271     A.U. after   12 cycles
 SCF Done:  E(RB3LYP) =  -707.029940320     A.U. after   13 cycles
 SCF Done:  E(RB3LYP) =  -707.031974290     A.U. after   12 cycles
 SCF Done:  E(RB3LYP) =  -707.032435844     A.U. after   13 cycles
 SCF Done:  E(RB3LYP) =  -707.033398493     A.U. after   12 cycles
 SCF Done:  E(RB3LYP) =  -707.033594763     A.U. after   11 cycles
 SCF Done:  E(RB3LYP) =  -707.033652455     A.U. after   11 cycles
 SCF Done:  E(RB3LYP) =  -707.033673891     A.U. after    9 cycles
 SCF Done:  E(RB3LYP) =  -707.033696952     A.U. after   10 cycles
 SCF Done:  E(RB3LYP) =  -707.033720955     A.U. after   10 cycles
 SCF Done:  E(RB3LYP) =  -707.033722685     A.U. after    9 cycles
 SCF Done:  E(RB3LYP) =  -707.033723016     A.U. after    8 cycles
 SCF Done:  E(RB3LYP) =  -707.033723098     A.U. after    7 cycles
 Optimization completed.
    -- Stationary point found.
 Normal termination of Gaussian 16 at Fri Dec 11 00:52:35 2020.

 --------------------------------------------------------------------
 #N Geom=AllCheck Guess=TCheck SCRF=Check GenChk RB3LYP/6-31G(d) Freq
 --------------------------------------------------------------------

 Structure from the checkpoint file:  "JID_6841.chk"
 ------------------------------
 CID_81774561_JID_6841_neutraal
 ------------------------------
 Charge =  0 Multiplicity = 1

 SCF Done:  E(RB3LYP) =  -707.033723098     A.U. after    1 cycles

  Exact polarizability: 170.926  -7.634 128.896  -3.483 -15.701 125.636
 Approx polarizability: 225.936 -18.075 199.245  -8.815 -41.445 214.648

                      1                      2                      3
                      A                      A                      A
 Frequencies --     21.9958                32.7223                47.1839
 Red. masses --      4.8153                 3.9488                 5.2262
 Frc consts  --      0.0014                 0.0025                 0.0069
 IR Inten    --      1.2615                 0.2092                 0.7299

                      4                      5                      6
                      A                      A                      A
 Frequencies --     59.4902                70.5615                82.3457
 Red. masses --      5.6211                 3.5322                 4.2287
 Frc consts  --      0.0117                 0.0104                 0.0169
 IR Inten    --      1.0120                 0.7813                 0.2575

                      7                      8                      9
                      A                      A                      A
 Frequencies --    101.8397               128.2143               192.3707
 Red. masses --      2.9191                 4.2044                 2.7352
 Frc consts  --      0.0178                 0.0407                 0.0596
 IR Inten    --      0.0738                 0.5209                 0.8116

                     10                     11                     12
                      A                      A                      A
 Frequencies --    197.4255               259.3326               281.4192
 Red. masses --      4.1382                 3.0728                 1.5465
 Frc consts  --      0.0950                 0.1218                 0.0722
 IR Inten    --      0.6963                 5.0502                24.2788

                     13                     14                     15
                      A                      A                      A
 Frequencies --    301.8091               326.0452               352.2709
 Red. masses --      1.9833                 2.6448                 2.7092
 Frc consts  --      0.1064                 0.1657                 0.1981
 IR Inten    --     14.7764                22.1358                 7.1956

                     16                     17                     18
                      A                      A                      A
 Frequencies --    386.0003               391.0583               416.8438
 Red. masses --      2.4329                 2.5346                 2.4616
 Frc consts  --      0.2136                 0.2284                 0.2520
 IR Inten    --      3.3915                 0.3637                 2.9412

                     19                     20                     21
                      A                      A                      A
 Frequencies --    449.0490               507.3917               544.3535
 Red. masses --      2.6230                 4.6753                 4.0899
 Frc consts  --      0.3116                 0.7092                 0.7140
 IR Inten    --      2.6492                 5.6677                23.2612

                     22                     23                     24
                      A                      A                      A
 Frequencies --    589.4456               612.5460               629.4175
 Red. masses --      3.2141                 2.0601                 1.7585
 Frc consts  --      0.6580                 0.4554                 0.4105
 IR Inten    --     16.2800                13.0242                33.7142

                     25                     26                     27
                      A                      A                      A
 Frequencies --    666.8598               688.4328               756.9572
 Red. masses --      1.4256                 6.5101                 2.7805
 Frc consts  --      0.3735                 1.8179                 0.9387
 IR Inten    --     74.9002                 0.6834                23.2874

                     28                     29                     30
                      A                      A                      A
 Frequencies --    763.6616               776.4872               795.8142
 Red. masses --      3.7813                 3.8602                 3.6450
 Frc consts  --      1.2992                 1.3713                 1.3601
 IR Inten    --      0.0791                 5.3084                14.9290

                     31                     32                     33
                      A                      A                      A
 Frequencies --    827.8023               892.4131               904.8527
 Red. masses --      1.3534                 1.2874                 1.8994
 Frc consts  --      0.5464                 0.6041                 0.9163
 IR Inten    --     13.8278                 0.5210                 7.9017

                     34                     35                     36
                      A                      A                      A
 Frequencies --    930.6471               942.8772               956.7509
 Red. masses --      1.6220                 1.3479                 2.2077
 Frc consts  --      0.8277                 0.7060                 1.1906
 IR Inten    --    109.1408                38.9173                 5.3908

                     37                     38                     39
                      A                      A                      A
 Frequencies --    975.7179               979.6789               983.8819
 Red. masses --      1.6199                 1.3156                 2.2792
 Frc consts  --      0.9086                 0.7439                 1.2999
 IR Inten    --     87.7418                 0.0512                13.3301

                     40                     41                     42
                      A                      A                      A
 Frequencies --    994.1177              1014.9452              1025.7944
 Red. masses --      1.4563                 7.4815                 2.7354
 Frc consts  --      0.8480                 4.5407                 1.6959
 IR Inten    --      0.0235                 4.9479                59.5118

                     43                     44                     45
                      A                      A                      A
 Frequencies --   1042.4242              1046.0657              1103.2214
 Red. masses --      1.7183                 1.2023                 1.9638
 Frc consts  --      1.1001                 0.7751                 1.4082
 IR Inten    --      4.4834                14.9806                 0.9383

                     46                     47                     48
                      A                      A                      A
 Frequencies --   1119.7289              1124.2762              1142.2483
 Red. masses --      1.4005                 1.5248                 3.1601
 Frc consts  --      1.0346                 1.1356                 2.4293
 IR Inten    --     10.3435                 3.1706                 2.2782

                     49                     50                     51
                      A                      A                      A
 Frequencies --   1154.2775              1209.0214              1221.9437
 Red. masses --      2.2820                 1.2871                 1.5396
 Frc consts  --      1.7914                 1.1085                 1.3545
 IR Inten    --     15.1007                13.6867                 4.1087

                     52                     53                     54
                      A                      A                      A
 Frequencies --   1244.1779              1258.3023              1262.4087
 Red. masses --      2.4558                 1.3146                 1.3522
 Frc consts  --      2.2398                 1.2263                 1.2697
 IR Inten    --      0.4810                 4.7634                 7.4794

                     55                     56                     57
                      A                      A                      A
 Frequencies --   1280.1130              1307.2726              1316.7209
 Red. masses --      1.5034                 1.4596                 4.2150
 Frc consts  --      1.4515                 1.4697                 4.3056
 IR Inten    --     50.7834                64.1740                 8.7637

                     58                     59                     60
                      A                      A                      A
 Frequencies --   1337.2353              1362.1639              1373.5667
 Red. masses --      1.2411                 1.3817                 1.4034
 Frc consts  --      1.3076                 1.5105                 1.5600
 IR Inten    --      3.6127                 2.6456                15.5777

                     61                     62                     63
                      A                      A                      A
 Frequencies --   1381.3425              1385.4386              1421.4960
 Red. masses --      1.4131                 1.3678                 1.4307
 Frc consts  --      1.5886                 1.5469                 1.7033
 IR Inten    --     22.9851                49.2667                 9.9704

                     64                     65                     66
                      A                      A                      A
 Frequencies --   1455.6420              1462.9214              1474.4586
 Red. masses --      1.4194                 2.0475                 1.1811
 Frc consts  --      1.7720                 2.5818                 1.5129
 IR Inten    --      7.4118                18.3829                 1.9704

                     67                     68                     69
                      A                      A                      A
 Frequencies --   1508.2567              1512.7999              1514.7636
 Red. masses --      1.3080                 1.2181                 1.3102
 Frc consts  --      1.7532                 1.6425                 1.7713
 IR Inten    --     12.8931                33.0256                55.4412

                     70                     71                     72
                      A                      A                      A
 Frequencies --   1524.6152              1545.5731              1621.0464
 Red. masses --      1.1348                 2.1527                 6.6336
 Frc consts  --      1.5541                 3.0298                10.2705
 IR Inten    --     14.4608                 2.0459                15.9924

                     73                     74                     75
                      A                      A                      A
 Frequencies --   1657.3195              1709.6135              1731.4542
 Red. masses --      5.3867                 1.0882                 4.4035
 Frc consts  --      8.7174                 1.8739                 7.7781
 IR Inten    --     56.2593                26.0238                 9.2839

                     76                     77                     78
                      A                      A                      A
 Frequencies --   1768.5469              3029.5418              3045.6182
 Red. masses --      7.5672                 1.0733                 1.0648
 Frc consts  --     13.9450                 5.8039                 5.8195
 IR Inten    --    329.0457                37.2650                14.0205

                     79                     80                     81
                      A                      A                      A
 Frequencies --   3064.5476              3092.1321              3113.4463
 Red. masses --      1.0628                 1.0849                 1.0981
 Frc consts  --      5.8806                 6.1114                 6.2716
 IR Inten    --     19.2202                24.9990                11.1009

                     82                     83                     84
                      A                      A                      A
 Frequencies --   3119.2643              3149.5101              3158.4978
 Red. masses --      1.1012                 1.0702                 1.0793
 Frc consts  --      6.3126                 6.2547                 6.3437
 IR Inten    --     19.4868                23.3488                 5.9711

                     85                     86                     87
                      A                      A                      A
 Frequencies --   3167.2552              3171.9487              3175.0221
 Red. masses --      1.0901                 1.0872                 1.0891
 Frc consts  --      6.4431                 6.4449                 6.4686
 IR Inten    --     12.6596                20.2831                20.9621

                     88                     89                     90
                      A                      A                      A
 Frequencies --   3194.5078              3200.4166              3234.4011
 Red. masses --      1.0941                 1.0947                 1.1159
 Frc consts  --      6.5785                 6.6064                 6.8782
 IR Inten    --     27.9934                 7.5054                19.1732

                     91                     92                     93
                      A                      A                      A
 Frequencies --   3445.7331              3527.3766              3564.1615
 Red. masses --      1.0502                 1.0905                 1.0749
 Frc consts  --      7.3464                 7.9946                 8.0448
 IR Inten    --      3.1706                 2.7843                27.8685

 - Thermochemistry -
 -------------------
 Temperature   298.150 Kelvin.  Pressure   1.00000 Atm.
 Atom     1 has atomic number  6 and mass  12.00000

 Molecular mass:   219.13716 amu.
 Principal axes and moments of inertia in atomic units:
                           1         2         3
     Eigenvalues --  1826.134136935.564547628.11669
           X            0.99999  -0.00477  -0.00172
           Y            0.00478   0.99998   0.00372
           Z            0.00170  -0.00373   0.99999
 This molecule is an asymmetric top.
 Rotational symmetry number  1.
 Warning -- assumption of classical behavior for rotation
           may cause significant error
 Rotational temperatures (Kelvin)      0.04743     0.01249     0.01135
 Rotational constants (GHZ):           0.98829     0.26022     0.23659
 Zero-point vibrational energy     741042.7 (Joules/Mol)
                                  177.11345 (Kcal/Mol)
 Warning -- explicit consideration of  23 degrees of freedom as
           vibrations may cause significant error
 Vibrational temperatures:     31.65    47.08    67.89    85.59   101.52
          (Kelvin)            118.48   146.52   184.47   276.78   284.05
                              373.12   404.90   434.24   469.11   506.84
                              555.37   562.65   599.75   646.08   730.02
                              783.20   848.08   881.32   905.59   959.46
                              990.50  1089.09  1098.74  1117.19  1145.00
                             1191.02  1283.98  1301.88  1338.99  1356.59
                             1376.55  1403.84  1409.54  1415.59  1430.31
                             1460.28  1475.89  1499.82  1505.06  1587.29
                             1611.04  1617.58  1643.44  1660.75  1739.51
                             1758.10  1790.09  1810.42  1816.32  1841.80
                             1880.87  1894.47  1923.98  1959.85  1976.26
                             1987.44  1993.34  2045.22  2094.34  2104.82
                             2121.42  2170.04  2176.58  2179.41  2193.58
                             2223.73  2332.32  2384.51  2459.75  2491.18
                             2544.54  4358.83  4381.97  4409.20  4448.89
                             4479.55  4487.93  4531.44  4544.37  4556.97
                             4563.73  4568.15  4596.18  4604.69  4653.58
                             4957.64  5075.11  5128.03

 Zero-point correction=                           0.282248 (Hartree/Particle)
 Thermal correction to Energy=                    0.298284
 Thermal correction to Enthalpy=                  0.299229
 Thermal correction to Gibbs Free Energy=         0.236330
 Sum of electronic and zero-point Energies=           -706.751475
 Sum of electronic and thermal Energies=              -706.735439
 Sum of electronic and thermal Enthalpies=            -706.734494
 Sum of electronic and thermal Free Energies=         -706.797393

                     E (Thermal)             CV                S
                      KCal/Mol        Cal/Mol-Kelvin    Cal/Mol-Kelvin
 Total                  187.176             59.439            132.381
 Electronic               0.000              0.000              0.000
 Translational            0.889              2.981             42.057
 Rotational               0.889              2.981             32.935
 Vibrational            185.399             53.477             57.390
 Vibration     1          0.593              1.985              6.445
 Vibration     2          0.594              1.983              5.657
 Vibration     3          0.595              1.979              4.932
 Vibration     4          0.597              1.974              4.474
 Vibration     5          0.598              1.968              4.138
 Vibration     6          0.600              1.961              3.834
 Vibration     7          0.604              1.948              3.419
 Vibration     8          0.611              1.925              2.973
 Vibration     9          0.634              1.850              2.205
 Vibration    10          0.637              1.843              2.157
 Vibration    11          0.668              1.747              1.666
 Vibration    12          0.681              1.708              1.525
 Vibration    13          0.694              1.670              1.407
 Vibration    14          0.710              1.623              1.280
 Vibration    15          0.729              1.571              1.156
 Vibration    16          0.755              1.500              1.016
 Vibration    17          0.759              1.489              0.996
 Vibration    18          0.780              1.434              0.903
 Vibration    19          0.808              1.363              0.799
 Vibration    20          0.863              1.234              0.640
 Vibration    21          0.899              1.152              0.556
 Vibration    22          0.947              1.054              0.468
 Vibration    23          0.972              1.005              0.429

                           ! Non-Optimized Parameters !
 Normal termination of Gaussian 16 at Fri Dec 11 01:02:51 2020.

 ----------------------------------------------------------------------
 # B3LYP/6-311++G(d,p) empiricaldispersion=gd3bj scf=xqc pop=npa geom=c
 heck
 ----------------------------------------------------------------------

 --------------------------------------
 CID_81774561_JID_6841_Energie_neutraal
 --------------------------------------
 Structure from the checkpoint file:  "JID_6841.chk"
 Charge =  0 Multiplicity = 1

 SCF Done:  E(RB3LYP) =  -707.240063570     A.U. after   15 cycles
 Normal termination of Gaussian 16 at Fri Dec 11 01:07:13 2020.

 ----------------------------------------------------------------------
 # B3LYP/6-311++G(d,p) empiricaldispersion=gd3bj scf=xqc pop=npa geom=c
 heck
 ----------------------------------------------------------------------

 ------------------------------------
 CID_81774561_JID_6841_Energie_kation
 ------------------------------------
 Structure from the checkpoint file:  "JID_6841.chk"
 Charge =  1 Multiplicity = 2

 SCF Done:  E(UB3LYP) =  -706.924218743     A.U. after   33 cycles
 SCF Done:  E(UB3LYP) =  -706.924218743     a.u. after    1 cycles
 Normal termination of Gaussian 16 at Fri Dec 11 01:19:58 2020.
 Gaussian 16:  ES64L-G16RevA.03 25-Dec-2016

 ----------------------------------------------------------------------
 # B3LYP/6-311++G(d,p) empiricaldispersion=gd3bj scf=xqc pop=npa geom=c
 heck
 ----------------------------------------------------------------------

 -----------------------------------
 CID_81774561_JID_6841_Energie_anion
 -----------------------------------
 Structure from the checkpoint file:  "JID_6841.chk"
 Charge = -1 Multiplicity = 2

                         Standard orientation:
 ---------------------------------------------------------------------
 Center     Atomic      Atomic             Coordinates (Angstroms)
 Number     Number       Type             X           Y           Z
 ---------------------------------------------------------------------
      1          6           0       -2.544704    2.808157    0.515672
      2          6           0       -2.458472    1.533426    0.899230
      3          6           0       -3.443113    0.458857    0.533524
      4          6           0       -2.915472   -0.563180   -0.502457
      5          6           0       -1.626656   -1.218577    0.028156
      6          8           0       -1.708721   -2.158764    0.815508
      7          7           0       -0.408378   -0.744458   -0.367894
      8          6           0       -0.069674    0.364390   -1.243414
      9          6           0        0.931700    1.334159   -0.582753
     10          6           0        2.216321    0.649911   -0.189303
     11          6           0        3.252149    0.457470   -1.110022
     12          6           0        4.396669   -0.232537   -0.715015
     13          7           0        4.576103   -0.740023    0.511541
     14          6           0        3.583325   -0.556069    1.389378
     15          6           0        2.400554    0.123197    1.093690
     16          7           0       -3.958192   -1.562445   -0.736694
     17          1           0       -3.371957    3.163419   -0.095583
     18          1           0       -1.803346    3.547337    0.807535
     19          1           0       -1.616184    1.222400    1.517542
     20          1           0       -3.720355   -0.109061    1.431830
     21          1           0       -4.359845    0.892618    0.122568
     22          1           0       -2.736125   -0.040318   -1.445995
     23          1           0        0.367477   -1.260334    0.034467
     24          1           0        0.357022   -0.012768   -2.183436
     25          1           0       -0.975237    0.919837   -1.483997
     26          1           0        1.138605    2.141395   -1.295258
     27          1           0        0.453840    1.781440    0.293934
     28          1           0        3.171278    0.845077   -2.122317
     29          1           0        5.213261   -0.384925   -1.418569
     30          1           0        3.740087   -0.971380    2.383237
     31          1           0        1.635132    0.244125    1.855345
     32          1           0       -3.691836   -2.136620   -1.536672
     33          1           0       -3.934537   -2.198863    0.062524
 ---------------------------------------------------------------------

 SCF Done:  E(UB3LYP) =  -707.237555177     A.U. after   33 cycles
 SCF Done:  E(UB3LYP) =  -707.237555177     a.u. after    1 cycles

 The electronic state is 2-A.
 Alpha  occ. eigenvalues --  -18.99522 -14.24209 -14.20883 -14.17935 -10.17743
 Alpha  occ. eigenvalues --  -10.11990 -10.11021 -10.08771 -10.08766 -10.08733
 Alpha  occ. eigenvalues --  -10.08647 -10.07631 -10.07066 -10.06624 -10.06171
 Alpha  occ. eigenvalues --  -10.06045  -0.94700  -0.82972  -0.82171  -0.80521
 Alpha  occ. eigenvalues --   -0.71107  -0.70849  -0.64652  -0.64355  -0.63155
 Alpha  occ. eigenvalues --   -0.56241  -0.55164  -0.51523  -0.49354  -0.48226
 Alpha  occ. eigenvalues --   -0.45696  -0.43278  -0.40331  -0.39865  -0.38495
 Alpha  occ. eigenvalues --   -0.37318  -0.36958  -0.36001  -0.35423  -0.34323
 Alpha  occ. eigenvalues --   -0.32665  -0.32194  -0.31351  -0.31280  -0.30601
 Alpha  occ. eigenvalues --   -0.27836  -0.27669  -0.27155  -0.26574  -0.25740
 Alpha  occ. eigenvalues --   -0.25033  -0.23958  -0.18217  -0.17795  -0.17092
 Alpha  occ. eigenvalues --   -0.15883  -0.15722  -0.15128  -0.14154   0.04225
 Alpha virt. eigenvalues --    0.06620   0.07399   0.07612   0.07900   0.08217
 Alpha virt. eigenvalues --    0.08960   0.09157   0.09401   0.09981   0.10512
 Alpha virt. eigenvalues --    0.10554   0.11313   0.11796   0.12296   0.12738

  Beta  occ. eigenvalues --  -18.99520 -14.24210 -14.20878 -14.17645 -10.17742
  Beta  occ. eigenvalues --  -10.11971 -10.10969 -10.08751 -10.08749 -10.08725
  Beta  occ. eigenvalues --  -10.08615 -10.07611 -10.07071 -10.06343 -10.06160
  Beta  occ. eigenvalues --  -10.06033  -0.94696  -0.82944  -0.81800  -0.80503
  Beta  occ. eigenvalues --   -0.70907  -0.70642  -0.64514  -0.64188  -0.63112
  Beta  occ. eigenvalues --   -0.56194  -0.55003  -0.51445  -0.49243  -0.48016
  Beta  occ. eigenvalues --   -0.45648  -0.43241  -0.40250  -0.39786  -0.38441
  Beta  occ. eigenvalues --   -0.37286  -0.36824  -0.35935  -0.35304  -0.34259
  Beta  occ. eigenvalues --   -0.32637  -0.32074  -0.31274  -0.31237  -0.30404
  Beta  occ. eigenvalues --   -0.27777  -0.27112  -0.27010  -0.26512  -0.25695
  Beta  occ. eigenvalues --   -0.24886  -0.23866  -0.18167  -0.17679  -0.16515
  Beta  occ. eigenvalues --   -0.15709  -0.15242  -0.14696  -0.13833
  Beta virt. eigenvalues --    0.06807   0.07525   0.07766   0.08128   0.08369
  Beta virt. eigenvalues --    0.08988   0.09151   0.09270   0.09551   0.10136
  Beta virt. eigenvalues --    0.10572   0.10891   0.11468   0.12183   0.12399

 Mulliken charges and spin densities:
               1          2
     1  C    0.176459  -0.746687
     2  C   -0.400971   0.820388
     3  C    0.078679  -0.572589
     4  C    0.109954  -0.566996
     5  C   -0.266399   0.156584
     6  O   -0.319237  -0.000292
     7  N   -0.184559   0.035368
     8  C    0.632687  -0.918932
     9  C    0.719603  -1.671927
    10  C   -0.349936   1.088483
    11  C    0.277210  -0.005513
    12  C   -0.172718  -0.414990
    13  N   -0.122532   0.130632
    14  C   -0.388274  -0.252745
    15  C   -0.506978   0.742032
    16  N   -0.260995   0.065062
    17  H   -0.211609   0.349517
    18  H   -0.033581   0.156400
    19  H    0.116395   0.052569
    20  H    0.138254   0.016264
    21  H    0.162386   0.027547
    22  H   -0.269334   0.506590
    23  H    0.330638   0.006538
    24  H    0.014570   0.188439
    25  H   -0.058970   0.162328
    26  H   -0.704454   0.918749
    27  H    0.123890   0.013421
    28  H   -0.291202   0.463737
    29  H    0.099602   0.034754
    30  H    0.140641  -0.000972
    31  H    0.033789   0.130745
    32  H    0.145498   0.081414
    33  H    0.241495   0.004081
 Sum of Mulliken charges =  -1.00000   1.00000

 Dipole moment (field-independent basis, Debye):
    X=             -3.1386    Y=             -2.3587    Z=              2.2135  Tot=              4.5071
 Quadrupole moment (field-independent basis, Debye-Ang):
   XX=           -174.6545   YY=           -137.1666   ZZ=           -125.0756
   XY=              1.4862   XZ=             -5.7245   YZ=             12.4388

 Summary of Natural Population Analysis:

                                       Natural Population
                Natural  -----------------------------------------------
    Atom  No    Charge         Core      Valence    Rydberg      Total
 -----------------------------------------------------------------------
      C    1   -0.18685      0.99956     2.17977    0.00752     3.18685
      C    2   -0.08868      0.99957     2.07927    0.00984     3.08868
      C    3   -0.20821      0.99959     2.19713    0.01149     3.20821
      C    4   -0.04694      0.99956     2.03505    0.01234     3.04694
      C    5    0.33472      0.99965     1.64128    0.02435     2.66528
      O    6   -0.33887      0.99988     3.33331    0.00568     4.33887
      N    7   -0.31443      0.99966     2.80574    0.00903     3.81443
      C    8   -0.08200      0.99960     2.07123    0.01117     3.08200
      C    9   -0.20408      0.99959     2.19384    0.01064     3.20408
      C   10    0.03776      0.99950     1.95260    0.01014     2.96224
      C   11   -0.12545      0.99950     2.11644    0.00951     3.12545
      C   12    0.02509      0.99960     1.95750    0.01782     2.97491
      N   13   -0.20577      0.99971     2.69568    0.01037     3.70577
      C   14    0.02784      0.99960     1.95858    0.01398     2.97216
      C   15   -0.13447      0.99950     2.12512    0.00985     3.13447
      N   16   -0.41771      0.99978     2.90809    0.00984     3.91771
      H   17    0.09092      0.00000     0.40796    0.00112     0.40908
      H   18    0.09639      0.00000     0.40262    0.00099     0.40361
      H   19    0.09525      0.00000     0.40355    0.00120     0.40475
      H   20    0.10369      0.00000     0.39516    0.00114     0.39631
      H   21    0.10555      0.00000     0.39321    0.00124     0.39445
      H   22    0.10093      0.00000     0.39682    0.00225     0.39907
      H   23    0.19993      0.00000     0.29802    0.00205     0.30007
      H   24    0.09218      0.00000     0.40655    0.00127     0.40782
      H   25    0.10712      0.00000     0.38979    0.00309     0.39288
      H   26    0.11139      0.00000     0.38467    0.00393     0.38861
      H   27    0.10167      0.00000     0.39636    0.00197     0.39833
      H   28    0.10105      0.00000     0.39785    0.00109     0.39895
      H   29    0.08372      0.00000     0.41497    0.00131     0.41628
      H   30    0.08365      0.00000     0.41505    0.00130     0.41635
      H   31    0.10017      0.00000     0.39872    0.00110     0.39983
      H   32    0.17395      0.00000     0.32468    0.00137     0.32605
      H   33    0.18046      0.00000     0.31764    0.00190     0.31954
 =======================================================================
   * Total *    0.00000     15.99384    42.79426    0.21190    59.00000

 Normal termination of Gaussian 16 at Fri Dec 11 01:32:49 2020.
