 Gaussian 16, Revision A.03,

 -----------------------------------------------------------
 # opt freq B3LYP/6-31G(d) empiricaldispersion=gd3bj scf=xqc
 -----------------------------------------------------------

 ----------------------------
 CID_78990746_JID_55_neutraal
 ----------------------------
 Symbolic Z-matrix:
 Charge =  0 Multiplicity = 1

 SCF Done:  E(RB3LYP) =  -860.907111485     A.U. after   14 cycles
 SCF Done:  E(RB3LYP) =  -860.910045586     A.U. after   12 cycles
 SCF Done:  E(RB3LYP) =  -860.909354329     A.U. after   12 cycles
 SCF Done:  E(RB3LYP) =  -860.910805887     A.U. after   11 cycles
 SCF Done:  E(RB3LYP) =  -860.910789889     A.U. after   11 cycles
 SCF Done:  E(RB3LYP) =  -860.910919093     A.U. after   11 cycles
 SCF Done:  E(RB3LYP) =  -860.910932422     A.U. after   10 cycles
 SCF Done:  E(RB3LYP) =  -860.910938653     A.U. after    9 cycles
 SCF Done:  E(RB3LYP) =  -860.910939801     A.U. after    8 cycles
 SCF Done:  E(RB3LYP) =  -860.910940096     A.U. after    7 cycles
 SCF Done:  E(RB3LYP) =  -860.910940153     A.U. after    7 cycles
 Optimization completed.
    -- Stationary point found.
 Normal termination of Gaussian 16 at Tue Dec  8 10:16:30 2020.

 --------------------------------------------------------------------
 #N Geom=AllCheck Guess=TCheck SCRF=Check GenChk RB3LYP/6-31G(d) Freq
 --------------------------------------------------------------------

 Structure from the checkpoint file:  "JID_55.chk"
 ----------------------------
 CID_78990746_JID_55_neutraal
 ----------------------------
 Charge =  0 Multiplicity = 1

 SCF Done:  E(RB3LYP) =  -860.910940153     A.U. after    1 cycles

  Exact polarizability: 100.022  -1.575  85.472  -0.190  -0.456  79.624
 Approx polarizability: 133.002  -1.886 124.573  -2.573   3.848 127.427

                      1                      2                      3
                      A                      A                      A
 Frequencies --     57.2280                98.0235               110.9892
 Red. masses --      5.0952                 2.7959                 3.2213
 Frc consts  --      0.0098                 0.0158                 0.0234
 IR Inten    --      2.1132                 0.1417                 1.4930

                      4                      5                      6
                      A                      A                      A
 Frequencies --    188.2975               205.4699               219.8990
 Red. masses --      2.2580                 1.2746                 2.3485
 Frc consts  --      0.0472                 0.0317                 0.0669
 IR Inten    --      2.6837                 0.3857                 2.2644

                      7                      8                      9
                      A                      A                      A
 Frequencies --    226.2974               243.6462               266.8814
 Red. masses --      1.4021                 1.2950                 4.8499
 Frc consts  --      0.0423                 0.0453                 0.2035
 IR Inten    --      1.5823                 0.5942                 5.8809

                     10                     11                     12
                      A                      A                      A
 Frequencies --    289.7444               336.8279               356.8275
 Red. masses --      2.8049                 3.3581                 2.3965
 Frc consts  --      0.1387                 0.2245                 0.1798
 IR Inten    --      3.8225                 0.9947                 1.6979

                     13                     14                     15
                      A                      A                      A
 Frequencies --    385.0019               406.7456               443.2830
 Red. masses --      2.5935                 2.4069                 3.9723
 Frc consts  --      0.2265                 0.2346                 0.4599
 IR Inten    --      1.9543                 2.8993                30.8024

                     16                     17                     18
                      A                      A                      A
 Frequencies --    469.5098               483.4822               597.1096
 Red. masses --      5.3203                 3.2719                 1.2981
 Frc consts  --      0.6910                 0.4506                 0.2727
 IR Inten    --     21.7748                 2.5391               144.3321

                     19                     20                     21
                      A                      A                      A
 Frequencies --    621.2178               672.5625               739.6109
 Red. masses --      2.8699                 3.7495                 3.8275
 Frc consts  --      0.6525                 0.9993                 1.2336
 IR Inten    --     18.4828                 7.9357                35.1363

                     22                     23                     24
                      A                      A                      A
 Frequencies --    824.4625               887.2109               911.5374
 Red. masses --      2.0441                 2.4651                 2.2079
 Frc consts  --      0.8186                 1.1432                 1.0809
 IR Inten    --      3.4031                16.1199                 8.1007

                     25                     26                     27
                      A                      A                      A
 Frequencies --    949.1422               976.3631               988.3685
 Red. masses --      1.1824                 1.4305                 1.3561
 Frc consts  --      0.6276                 0.8034                 0.7805
 IR Inten    --      1.3780                 1.8839                 3.5490

                     28                     29                     30
                      A                      A                      A
 Frequencies --    992.5231              1017.2461              1073.1410
 Red. masses --      1.4951                 1.7526                 3.9882
 Frc consts  --      0.8678                 1.0685                 2.7061
 IR Inten    --     27.7886                13.3030                29.5369

                     31                     32                     33
                      A                      A                      A
 Frequencies --   1115.7325              1140.4680              1159.2537
 Red. masses --      3.5394                 2.0207                 1.9531
 Frc consts  --      2.5960                 1.5485                 1.5464
 IR Inten    --    163.5393                58.2193                18.4535

                     34                     35                     36
                      A                      A                      A
 Frequencies --   1204.0134              1240.7072              1256.9012
 Red. masses --      1.7192                 1.5481                 1.7834
 Frc consts  --      1.4684                 1.4041                 1.6600
 IR Inten    --      1.8907                22.4152                60.0423

                     37                     38                     39
                      A                      A                      A
 Frequencies --   1307.5599              1319.2818              1354.4030
 Red. masses --      1.4522                 3.2978                 1.3049
 Frc consts  --      1.4628                 3.3818                 1.4104
 IR Inten    --     23.7006               148.4418                 3.0111

                     40                     41                     42
                      A                      A                      A
 Frequencies --   1372.5878              1383.0055              1414.8950
 Red. masses --      1.3246                 1.2620                 1.3990
 Frc consts  --      1.4703                 1.4222                 1.6501
 IR Inten    --      2.1089                 9.6755                 0.9487

                     43                     44                     45
                      A                      A                      A
 Frequencies --   1429.0076              1449.2609              1464.7065
 Red. masses --      1.2555                 1.2250                 1.1022
 Frc consts  --      1.5106                 1.5159                 1.3932
 IR Inten    --      3.7218                10.4316                16.7217

                     46                     47                     48
                      A                      A                      A
 Frequencies --   1480.6721              1484.4675              1487.7592
 Red. masses --      1.1146                 1.0535                 1.1007
 Frc consts  --      1.4398                 1.3678                 1.4354
 IR Inten    --     28.8323                 6.8437                46.3508

                     49                     50                     51
                      A                      A                      A
 Frequencies --   1520.0548              1522.5983              1536.8265
 Red. masses --      1.0482                 1.0452                 1.0503
 Frc consts  --      1.4269                 1.4276                 1.4616
 IR Inten    --      4.6830                 1.4604                 4.5159

                     52                     53                     54
                      A                      A                      A
 Frequencies --   1544.8420              3028.4656              3041.7698
 Red. masses --      1.0523                 1.0818                 1.0765
 Frc consts  --      1.4797                 5.8456                 5.8685
 IR Inten    --      8.1715                 1.0020                16.0162

                     55                     56                     57
                      A                      A                      A
 Frequencies --   3044.5208              3051.5516              3089.6144
 Red. masses --      1.0384                 1.0482                 1.0307
 Frc consts  --      5.6710                 5.7511                 5.7970
 IR Inten    --     21.4425                52.8092                 0.5522

                     58                     59                     60
                      A                      A                      A
 Frequencies --   3094.7535              3106.2755              3111.8994
 Red. masses --      1.0600                 1.0995                 1.0990
 Frc consts  --      5.9816                 6.2507                 6.2707
 IR Inten    --      4.8904                10.9158                56.5184

                     61                     62                     63
                      A                      A                      A
 Frequencies --   3118.9918              3152.2693              3157.2723
 Red. masses --      1.1009                 1.1062                 1.0989
 Frc consts  --      6.3099                 6.4763                 6.4538
 IR Inten    --     42.8068                 2.5008                12.9940

                     64                     65                     66
                      A                      A                      A
 Frequencies --   3185.9656              3205.6449              3630.3471
 Red. masses --      1.1063                 1.1069                 1.0655
 Frc consts  --      6.6163                 6.7018                 8.2738
 IR Inten    --      0.5681                 0.9605               123.2902

 - Thermochemistry -
 -------------------
 Temperature   298.150 Kelvin.  Pressure   1.00000 Atm.
 Atom     1 has atomic number  6 and mass  12.00000

 Molecular mass:   166.06637 amu.
 Principal axes and moments of inertia in atomic units:
                           1         2         3
     Eigenvalues --   963.310522331.253502681.10253
           X            1.00000  -0.00005  -0.00209
           Y            0.00003   0.99996  -0.00910
           Z            0.00209   0.00910   0.99996
 This molecule is an asymmetric top.
 Rotational symmetry number  1.
 Warning -- assumption of classical behavior for rotation
           may cause significant error
 Rotational temperatures (Kelvin)      0.08991     0.03715     0.03231
 Rotational constants (GHZ):           1.87348     0.77415     0.67313
 Zero-point vibrational energy     539796.9 (Joules/Mol)
                                  129.01456 (Kcal/Mol)
 Warning -- explicit consideration of  18 degrees of freedom as
           vibrations may cause significant error
 Vibrational temperatures:     82.34   141.03   159.69   270.92   295.63
          (Kelvin)            316.39   325.59   350.55   383.98   416.88
                              484.62   513.40   553.93   585.22   637.79
                              675.52   695.62   859.11   893.79   967.67
                             1064.14  1186.22  1276.50  1311.50  1365.60
                             1404.77  1422.04  1428.02  1463.59  1544.01
                             1605.29  1640.88  1667.91  1732.31  1785.10
                             1808.40  1881.29  1898.15  1948.68  1974.85
                             1989.84  2035.72  2056.02  2085.16  2107.39
                             2130.36  2135.82  2140.55  2187.02  2190.68
                             2211.15  2222.68  4357.29  4376.43  4380.39
                             4390.50  4445.27  4452.66  4469.24  4477.33
                             4487.53  4535.41  4542.61  4583.89  4612.21
                             5223.26

 Zero-point correction=                           0.205598 (Hartree/Particle)
 Thermal correction to Energy=                    0.217537
 Thermal correction to Enthalpy=                  0.218481
 Thermal correction to Gibbs Free Energy=         0.168414
 Sum of electronic and zero-point Energies=           -860.705342
 Sum of electronic and thermal Energies=              -860.693404
 Sum of electronic and thermal Enthalpies=            -860.692459
 Sum of electronic and thermal Free Energies=         -860.742526

                     E (Thermal)             CV                S
                      KCal/Mol        Cal/Mol-Kelvin    Cal/Mol-Kelvin
 Total                  136.506             44.796            105.374
 Electronic               0.000              0.000              0.000
 Translational            0.889              2.981             41.230
 Rotational               0.889              2.981             30.177
 Vibrational            134.729             38.834             33.967
 Vibration     1          0.596              1.975              4.551
 Vibration     2          0.603              1.951              3.493
 Vibration     3          0.607              1.940              3.252
 Vibration     4          0.633              1.856              2.245
 Vibration     5          0.640              1.832              2.084
 Vibration     6          0.647              1.811              1.960
 Vibration     7          0.650              1.801              1.908
 Vibration     8          0.659              1.773              1.776
 Vibration     9          0.672              1.734              1.616
 Vibration    10          0.686              1.693              1.475
 Vibration    11          0.718              1.602              1.227
 Vibration    12          0.732              1.561              1.136
 Vibration    13          0.754              1.502              1.019
 Vibration    14          0.772              1.456              0.938
 Vibration    15          0.803              1.376              0.816
 Vibration    16          0.827              1.318              0.739
 Vibration    17          0.840              1.287              0.701
 Vibration    18          0.955              1.038              0.455

                           ! Non-Optimized Parameters !
 Normal termination of Gaussian 16 at Tue Dec  8 10:21:00 2020.

 ----------------------------------------------------------------------
 # B3LYP/6-311++G(d,p) empiricaldispersion=gd3bj scf=xqc pop=npa geom=c
 heck
 ----------------------------------------------------------------------

 ------------------------------------
 CID_78990746_JID_55_Energie_neutraal
 ------------------------------------
 Structure from the checkpoint file:  "JID_55.chk"
 Charge =  0 Multiplicity = 1

 SCF Done:  E(RB3LYP) =  -861.085681352     A.U. after   14 cycles
 Normal termination of Gaussian 16 at Tue Dec  8 10:22:41 2020.

 ----------------------------------------------------------------------
 # B3LYP/6-311++G(d,p) empiricaldispersion=gd3bj scf=xqc pop=npa geom=c
 heck
 ----------------------------------------------------------------------

 ----------------------------------
 CID_78990746_JID_55_Energie_kation
 ----------------------------------
 Structure from the checkpoint file:  "JID_55.chk"
 Charge =  1 Multiplicity = 2

 SCF Done:  E(UB3LYP) =  -860.721921166     A.U. after   26 cycles
 Normal termination of Gaussian 16 at Tue Dec  8 10:26:47 2020.
 Gaussian 16:  ES64L-G16RevA.03 25-Dec-2016

 ----------------------------------------------------------------------
 # B3LYP/6-311++G(d,p) empiricaldispersion=gd3bj scf=xqc pop=npa geom=c
 heck
 ----------------------------------------------------------------------

 ---------------------------------
 CID_78990746_JID_55_Energie_anion
 ---------------------------------
 Structure from the checkpoint file:  "JID_55.chk"
 Charge = -1 Multiplicity = 2

                         Standard orientation:
 ---------------------------------------------------------------------
 Center     Atomic      Atomic             Coordinates (Angstroms)
 Number     Number       Type             X           Y           Z
 ---------------------------------------------------------------------
      1          6           0        1.969914    1.717169    0.489800
      2          6           0        1.785358    0.367059   -0.216696
      3          6           0        3.142967   -0.194655   -0.655857
      4          6           0        1.063876   -0.659854    0.682839
      5          6           0       -0.326872   -0.235219    1.197538
      6         16           0       -1.604503   -0.035781   -0.089331
      7          8           0       -1.206372   -0.851200   -1.261065
      8          8           0       -2.912501   -0.245227    0.546104
      9          6           0       -1.530646    1.694990   -0.601411
     10          8           0        0.986890   -1.943354    0.092370
     11          1           0        2.538098    1.590689    1.420130
     12          1           0        1.022774    2.204555    0.744980
     13          1           0        2.532481    2.409664   -0.145449
     14          1           0        1.176580    0.508865   -1.120535
     15          1           0        3.802409   -0.331953    0.210844
     16          1           0        3.023425   -1.164579   -1.142582
     17          1           0        3.639741    0.492336   -1.349677
     18          1           0        1.678251   -0.790722    1.584483
     19          1           0       -0.736468   -1.037799    1.817350
     20          1           0       -0.317753    0.685809    1.786901
     21          1           0       -1.756677    2.332181    0.255620
     22          1           0       -0.549355    1.920015   -1.018566
     23          1           0       -2.302955    1.806088   -1.365912
     24          1           0        0.349784   -1.871355   -0.644857
 ---------------------------------------------------------------------

 SCF Done:  E(UB3LYP) =  -861.077226690     A.U. after   25 cycles

 The electronic state is 2-A.
 Alpha  occ. eigenvalues --  -88.95142 -19.02212 -19.01995 -19.01816 -10.13786
 Alpha  occ. eigenvalues --  -10.11327 -10.10552 -10.08007 -10.05908 -10.05717
 Alpha  occ. eigenvalues --   -8.01644  -5.97910  -5.97793  -5.97736  -1.01244
 Alpha  occ. eigenvalues --   -0.93121  -0.90836  -0.72088  -0.68907  -0.65592
 Alpha  occ. eigenvalues --   -0.58554  -0.56735  -0.50525  -0.48362  -0.41270
 Alpha  occ. eigenvalues --   -0.39793  -0.39403  -0.38678  -0.36713  -0.35694
 Alpha  occ. eigenvalues --   -0.34491  -0.33495  -0.31682  -0.31117  -0.29998
 Alpha  occ. eigenvalues --   -0.28430  -0.27040  -0.25133  -0.24564  -0.23804
 Alpha  occ. eigenvalues --   -0.23071  -0.22455  -0.21264  -0.19127  -0.18034
 Alpha  occ. eigenvalues --    0.04413
 Alpha virt. eigenvalues --    0.07392   0.07665   0.08918   0.09675   0.10150
 Alpha virt. eigenvalues --    0.11301   0.11402   0.11766   0.12306   0.13116
 Alpha virt. eigenvalues --    0.13558   0.14453   0.14582   0.15206   0.15776

  Beta  occ. eigenvalues --  -88.95137 -19.02195 -19.01991 -19.01808 -10.13775
  Beta  occ. eigenvalues --  -10.11291 -10.10473 -10.07996 -10.05890 -10.05655
  Beta  occ. eigenvalues --   -8.01638  -5.97906  -5.97790  -5.97730  -1.01212
  Beta  occ. eigenvalues --   -0.93110  -0.90803  -0.72048  -0.68851  -0.65511
  Beta  occ. eigenvalues --   -0.58472  -0.56677  -0.50454  -0.48300  -0.41220
  Beta  occ. eigenvalues --   -0.39748  -0.39361  -0.38639  -0.36669  -0.35643
  Beta  occ. eigenvalues --   -0.34434  -0.33435  -0.31631  -0.31074  -0.29947
  Beta  occ. eigenvalues --   -0.28385  -0.27008  -0.25100  -0.24523  -0.23756
  Beta  occ. eigenvalues --   -0.23037  -0.22433  -0.21247  -0.19091  -0.18018
  Beta virt. eigenvalues --    0.07212   0.08311   0.08467   0.09528   0.10434
  Beta virt. eigenvalues --    0.10830   0.11660   0.11959   0.12185   0.12649
  Beta virt. eigenvalues --    0.13382   0.14044   0.14633   0.14943   0.15459

 Mulliken charges and spin densities:
               1          2
     1  C    2.018772  -2.645728
     2  C   -1.532066   1.717472
     3  C   -0.102540  -0.369174
     4  C    0.728300  -1.023632
     5  C   -0.226977  -0.498203
     6  S   -0.364699   0.774815
     7  O   -0.279053   0.019282
     8  O   -0.181978   0.021166
     9  C    1.508139  -2.108195
    10  O   -0.185103   0.009244
    11  H   -0.393541   0.547080
    12  H   -0.455414   0.593017
    13  H   -0.401403   0.555204
    14  H    0.293320  -0.115516
    15  H    0.036835   0.094282
    16  H    0.015106   0.128416
    17  H   -0.111544   0.249291
    18  H   -0.150230   0.368484
    19  H    0.106222   0.170931
    20  H   -0.257739   0.509607
    21  H   -0.563503   0.795964
    22  H   -0.531453   0.752624
    23  H   -0.203701   0.426323
    24  H    0.234248   0.027245
 Sum of Mulliken charges =  -1.00000   1.00000

 Dipole moment (field-independent basis, Debye):
    X=              0.2455    Y=             -5.4690    Z=             -1.3565  Tot=              5.6401
 Quadrupole moment (field-independent basis, Debye-Ang):
   XX=           -120.8120   YY=           -122.8608   ZZ=           -103.3410
   XY=             -2.9060   XZ=             -0.7619   YZ=             -3.9401

 Summary of Natural Population Analysis:

                                       Natural Population
                Natural  -----------------------------------------------
    Atom  No    Charge         Core      Valence    Rydberg      Total
 -----------------------------------------------------------------------
      C    1   -0.28982      0.99965     2.28283    0.00734     3.28982
      C    2   -0.12865      0.99959     2.11863    0.01044     3.12865
      C    3   -0.28245      0.99965     2.27754    0.00526     3.28245
      C    4    0.05825      0.99953     1.92512    0.01710     2.94175
      C    5   -0.29966      0.99955     2.28750    0.01261     3.29966
      S    6    1.01700      4.99930     1.89188    0.09182     6.98300
      O    7   -0.48509      0.99990     3.47946    0.00572     4.48509
      O    8   -0.46678      0.99991     3.46093    0.00594     4.46678
      C    9   -0.38949      0.99961     2.37945    0.01043     3.38949
      O   10   -0.38021      0.99990     3.37358    0.00674     4.38021
      H   11    0.09944      0.00000     0.39848    0.00207     0.40056
      H   12    0.10273      0.00000     0.39358    0.00369     0.39727
      H   13    0.10499      0.00000     0.39317    0.00183     0.39501
      H   14    0.09529      0.00000     0.40209    0.00262     0.40471
      H   15    0.09564      0.00000     0.40344    0.00091     0.40436
      H   16    0.10569      0.00000     0.39329    0.00102     0.39431
      H   17    0.09897      0.00000     0.40019    0.00085     0.40103
      H   18    0.09227      0.00000     0.40586    0.00186     0.40773
      H   19    0.12260      0.00000     0.37630    0.00110     0.37740
      H   20    0.12530      0.00000     0.37253    0.00217     0.37470
      H   21    0.12283      0.00000     0.37325    0.00391     0.37717
      H   22    0.11832      0.00000     0.37937    0.00231     0.38168
      H   23    0.12058      0.00000     0.37822    0.00120     0.37942
      H   24    0.24225      0.00000     0.25473    0.00302     0.25775
 =======================================================================
   * Total *   -0.00000     13.99658    30.80143    0.20198    45.00000

 Normal termination of Gaussian 16 at Tue Dec  8 10:30:41 2020.
