 Gaussian 16, Revision A.03,

 -----------------------------------------------------------
 # opt freq B3LYP/6-31G(d) empiricaldispersion=gd3bj scf=xqc
 -----------------------------------------------------------

 ------------------------------
 CID_84224427_JID_7828_neutraal
 ------------------------------
 Symbolic Z-matrix:
 Charge =  0 Multiplicity = 1

 SCF Done:  E(RB3LYP) =  -793.246450899     A.U. after   15 cycles
 SCF Done:  E(RB3LYP) =  -793.254801911     A.U. after   13 cycles
 SCF Done:  E(RB3LYP) =  -793.255934328     A.U. after   12 cycles
 SCF Done:  E(RB3LYP) =  -793.257098153     A.U. after   12 cycles
 SCF Done:  E(RB3LYP) =  -793.257805172     A.U. after   12 cycles
 SCF Done:  E(RB3LYP) =  -793.258125978     A.U. after   12 cycles
 SCF Done:  E(RB3LYP) =  -793.258228915     A.U. after   12 cycles
 SCF Done:  E(RB3LYP) =  -793.258324647     A.U. after   10 cycles
 SCF Done:  E(RB3LYP) =  -793.258390184     A.U. after   11 cycles
 SCF Done:  E(RB3LYP) =  -793.258424789     A.U. after   11 cycles
 SCF Done:  E(RB3LYP) =  -793.258484764     A.U. after    9 cycles
 SCF Done:  E(RB3LYP) =  -793.258485583     A.U. after    8 cycles
 SCF Done:  E(RB3LYP) =  -793.258486173     A.U. after    8 cycles
 SCF Done:  E(RB3LYP) =  -793.258486330     A.U. after    8 cycles
 SCF Done:  E(RB3LYP) =  -793.258486367     A.U. after    7 cycles
 Optimization completed.
    -- Stationary point found.
 Normal termination of Gaussian 16 at Fri Dec 11 13:21:59 2020.

 --------------------------------------------------------------------
 #N Geom=AllCheck Guess=TCheck SCRF=Check GenChk RB3LYP/6-31G(d) Freq
 --------------------------------------------------------------------

 Structure from the checkpoint file:  "JID_7828.chk"
 ------------------------------
 CID_84224427_JID_7828_neutraal
 ------------------------------
 Charge =  0 Multiplicity = 1

 SCF Done:  E(RB3LYP) =  -793.258486367     A.U. after    1 cycles

  Exact polarizability: 200.272   9.151 149.408  -8.857   8.675  92.281
 Approx polarizability: 276.339  16.850 242.045 -19.457  23.370 147.737

                      1                      2                      3
                      A                      A                      A
 Frequencies --     16.5539                32.4303                48.2963
 Red. masses --      4.1183                 3.5956                 2.8617
 Frc consts  --      0.0007                 0.0022                 0.0039
 IR Inten    --      0.0207                 0.0657                 0.4711

                      4                      5                      6
                      A                      A                      A
 Frequencies --     75.1172                84.9742               106.2801
 Red. masses --      4.8992                 4.9869                 1.2384
 Frc consts  --      0.0163                 0.0212                 0.0082
 IR Inten    --      0.8655                 0.2458                 0.6737

                      7                      8                      9
                      A                      A                      A
 Frequencies --    120.2730               161.1154               170.6843
 Red. masses --      3.4517                 3.8302                 3.5033
 Frc consts  --      0.0294                 0.0586                 0.0601
 IR Inten    --      4.6557                 5.3269                 1.6618

                     10                     11                     12
                      A                      A                      A
 Frequencies --    188.1747               210.6932               245.3022
 Red. masses --      3.7636                 1.8131                 1.1023
 Frc consts  --      0.0785                 0.0474                 0.0391
 IR Inten    --      6.6756                 1.9429                31.5950

                     13                     14                     15
                      A                      A                      A
 Frequencies --    252.3136               310.9885               328.4388
 Red. masses --      1.8283                 3.2281                 3.8377
 Frc consts  --      0.0686                 0.1839                 0.2439
 IR Inten    --      9.4871                 4.5287                 2.6210

                     16                     17                     18
                      A                      A                      A
 Frequencies --    340.7981               371.7436               392.5704
 Red. masses --      4.9096                 5.3047                 4.5009
 Frc consts  --      0.3360                 0.4319                 0.4087
 IR Inten    --     15.1864                 4.3827                 2.4233

                     19                     20                     21
                      A                      A                      A
 Frequencies --    428.8723               470.8874               522.6957
 Red. masses --      3.2360                 4.3366                 4.8283
 Frc consts  --      0.3507                 0.5665                 0.7772
 IR Inten    --      0.4212                 3.2658                15.7285

                     22                     23                     24
                      A                      A                      A
 Frequencies --    573.0084               616.3143               629.8902
 Red. masses --      1.4131                 4.9997                 5.6151
 Frc consts  --      0.2734                 1.1189                 1.3126
 IR Inten    --     56.7857                42.0760                 1.0089

                     25                     26                     27
                      A                      A                      A
 Frequencies --    642.7928               665.3214               681.2547
 Red. masses --      4.0087                 3.6938                 3.4033
 Frc consts  --      0.9759                 0.9634                 0.9306
 IR Inten    --     12.7617                54.5857                12.4777

                     28                     29                     30
                      A                      A                      A
 Frequencies --    687.6891               718.2756               751.2034
 Red. masses --      4.0163                 5.0680                 1.2961
 Frc consts  --      1.1191                 1.5405                 0.4309
 IR Inten    --      8.3186                30.8729                56.4543

                     31                     32                     33
                      A                      A                      A
 Frequencies --    755.0620               761.0566               798.4738
 Red. masses --      3.1537                 1.5217                 2.2172
 Frc consts  --      1.0593                 0.5193                 0.8329
 IR Inten    --     57.4960               173.4918                49.0221

                     34                     35                     36
                      A                      A                      A
 Frequencies --    806.1321               807.9713               830.0891
 Red. masses --      1.5027                 2.1566                 1.2996
 Frc consts  --      0.5753                 0.8295                 0.5276
 IR Inten    --     11.5176                23.0325                 0.6064

                     37                     38                     39
                      A                      A                      A
 Frequencies --    869.2776               969.9261              1029.3032
 Red. masses --      4.4837                 2.4294                 5.5951
 Frc consts  --      1.9962                 1.3466                 3.4926
 IR Inten    --     25.0436                11.6940                27.1262

                     40                     41                     42
                      A                      A                      A
 Frequencies --   1035.3294              1039.7179              1077.6241
 Red. masses --      3.5014                 2.8555                 1.8689
 Frc consts  --      2.2113                 1.8187                 1.2787
 IR Inten    --     28.8792                 0.4167                 8.9731

                     43                     44                     45
                      A                      A                      A
 Frequencies --   1084.3836              1115.3301              1131.7933
 Red. masses --      1.4372                 1.8302                 1.6317
 Frc consts  --      0.9957                 1.3414                 1.2315
 IR Inten    --     26.5506                22.2555                 8.1276

                     46                     47                     48
                      A                      A                      A
 Frequencies --   1141.0469              1148.1420              1158.5097
 Red. masses --      1.7358                 2.5975                 1.3722
 Frc consts  --      1.3315                 2.0174                 1.0851
 IR Inten    --      2.4382                21.7254                 2.4824

                     49                     50                     51
                      A                      A                      A
 Frequencies --   1221.5475              1257.7361              1285.7109
 Red. masses --      1.5803                 1.6319                 2.1173
 Frc consts  --      1.3894                 1.5210                 2.0622
 IR Inten    --     14.6683                12.4526                25.5956

                     52                     53                     54
                      A                      A                      A
 Frequencies --   1336.8542              1360.9633              1369.0476
 Red. masses --      6.1649                 2.2078                 3.9824
 Frc consts  --      6.4915                 2.4094                 4.3978
 IR Inten    --    137.3469                13.6769               201.7279

                     55                     56                     57
                      A                      A                      A
 Frequencies --   1383.0983              1408.6997              1429.9083
 Red. masses --      2.9257                 1.3439                 3.8789
 Frc consts  --      3.2976                 1.5713                 4.6728
 IR Inten    --     13.2150                10.4648                39.6224

                     58                     59                     60
                      A                      A                      A
 Frequencies --   1437.4690              1474.6117              1475.7446
 Red. masses --      1.2732                 1.6725                 2.4893
 Frc consts  --      1.5501                 2.1427                 3.1941
 IR Inten    --      9.7884                44.5367                38.3159

                     61                     62                     63
                      A                      A                      A
 Frequencies --   1484.4354              1505.8708              1510.0928
 Red. masses --      2.8325                 1.2088                 1.2013
 Frc consts  --      3.6774                 1.6150                 1.6140
 IR Inten    --     35.8942                42.0627                24.9049

                     64                     65                     66
                      A                      A                      A
 Frequencies --   1513.4985              1518.5211              1528.4352
 Red. masses --      1.6352                 1.0465                 2.1279
 Frc consts  --      2.2069                 1.4218                 2.9288
 IR Inten    --     76.2760                11.6601                41.9771

                     67                     68                     69
                      A                      A                      A
 Frequencies --   1537.1632              1539.5996              1543.5969
 Red. masses --      1.0698                 2.8103                 3.5864
 Frc consts  --      1.4894                 3.9248                 5.0347
 IR Inten    --      0.8717                99.1606                86.4895

                     70                     71                     72
                      A                      A                      A
 Frequencies --   1598.6368              1601.5298              1682.0058
 Red. masses --      5.1264                 4.5006                 1.2420
 Frc consts  --      7.7191                 6.8013                 2.0703
 IR Inten    --    106.2425               213.4615               113.9912

                     73                     74                     75
                      A                      A                      A
 Frequencies --   1751.9555              3061.7468              3079.0335
 Red. masses --      7.9552                 1.0357                 1.0595
 Frc consts  --     14.3862                 5.7201                 5.9179
 IR Inten    --    397.2582                20.3936                33.6751

                     76                     77                     78
                      A                      A                      A
 Frequencies --   3087.3284              3119.9258              3133.9319
 Red. masses --      1.0336                 1.1052                 1.1036
 Frc consts  --      5.8048                 6.3382                 6.3862
 IR Inten    --     32.7247                 3.9400                39.8551

                     79                     80                     81
                      A                      A                      A
 Frequencies --   3153.0793              3160.8162              3190.4969
 Red. masses --      1.1038                 1.1025                 1.1070
 Frc consts  --      6.4657                 6.4899                 6.6389
 IR Inten    --     19.1864                10.5248                 7.2692

                     82                     83                     84
                      A                      A                      A
 Frequencies --   3270.8593              3294.0107              3310.3862
 Red. masses --      1.0951                 1.0971                 1.1007
 Frc consts  --      6.9029                 7.0137                 7.1071
 IR Inten    --      1.9606                 0.4664                 0.1349

                     85                     86                     87
                      A                      A                      A
 Frequencies --   3528.8399              3590.3438              3627.0546
 Red. masses --      1.0481                 1.0752                 1.0965
 Frc consts  --      7.6896                 8.1660                 8.4991
 IR Inten    --      6.9405                50.2258                10.3812

 - Thermochemistry -
 -------------------
 Temperature   298.150 Kelvin.  Pressure   1.00000 Atm.
 Atom     1 has atomic number  6 and mass  12.00000

 Molecular mass:   234.12291 amu.
 Principal axes and moments of inertia in atomic units:
                           1         2         3
     Eigenvalues --  2137.860526968.772408367.59923
           X            0.99987   0.01320  -0.00924
           Y           -0.01327   0.99988  -0.00782
           Z            0.00913   0.00795   0.99993
 This molecule is an asymmetric top.
 Rotational symmetry number  1.
 Warning -- assumption of classical behavior for rotation
           may cause significant error
 Rotational temperatures (Kelvin)      0.04051     0.01243     0.01035
 Rotational constants (GHZ):           0.84418     0.25898     0.21568
 Zero-point vibrational energy     662544.0 (Joules/Mol)
                                  158.35182 (Kcal/Mol)
 Warning -- explicit consideration of  23 degrees of freedom as
           vibrations may cause significant error
 Vibrational temperatures:     23.82    46.66    69.49   108.08   122.26
          (Kelvin)            152.91   173.05   231.81   245.58   270.74
                              303.14   352.94   363.02   447.44   472.55
                              490.33   534.86   564.82   617.05   677.50
                              752.04   824.43   886.74   906.27   924.84
                              957.25   980.17   989.43  1033.44  1080.81
                             1086.37  1094.99  1148.83  1159.84  1162.49
                             1194.31  1250.70  1395.51  1480.94  1489.61
                             1495.92  1550.46  1560.19  1604.71  1628.40
                             1641.71  1651.92  1666.84  1757.53  1809.60
                             1849.85  1923.44  1958.12  1969.75  1989.97
                             2026.80  2057.32  2068.20  2121.64  2123.27
                             2135.77  2166.61  2172.69  2177.59  2184.81
                             2199.08  2211.64  2215.14  2220.89  2300.08
                             2304.24  2420.03  2520.67  4405.17  4430.04
                             4441.98  4488.88  4509.03  4536.58  4547.71
                             4590.41  4706.04  4739.35  4762.91  5077.21
                             5165.70  5218.52

 Zero-point correction=                           0.252350 (Hartree/Particle)
 Thermal correction to Energy=                    0.268829
 Thermal correction to Enthalpy=                  0.269773
 Thermal correction to Gibbs Free Energy=         0.206168
 Sum of electronic and zero-point Energies=           -793.006137
 Sum of electronic and thermal Energies=              -792.989658
 Sum of electronic and thermal Enthalpies=            -792.988713
 Sum of electronic and thermal Free Energies=         -793.052319

                     E (Thermal)             CV                S
                      KCal/Mol        Cal/Mol-Kelvin    Cal/Mol-Kelvin
 Total                  168.693             60.685            133.868
 Electronic               0.000              0.000              0.000
 Translational            0.889              2.981             42.254
 Rotational               0.889              2.981             33.188
 Vibrational            166.915             54.724             58.426
 Vibration     1          0.593              1.986              7.010
 Vibration     2          0.594              1.983              5.675
 Vibration     3          0.595              1.978              4.886
 Vibration     4          0.599              1.966              4.015
 Vibration     5          0.601              1.960              3.773
 Vibration     6          0.605              1.944              3.336
 Vibration     7          0.609              1.932              3.096
 Vibration     8          0.622              1.890              2.537
 Vibration     9          0.626              1.879              2.428
 Vibration    10          0.633              1.856              2.246
 Vibration    11          0.643              1.825              2.038
 Vibration    12          0.660              1.771              1.764
 Vibration    13          0.664              1.759              1.714
 Vibration    14          0.700              1.653              1.357
 Vibration    15          0.712              1.619              1.268
 Vibration    16          0.720              1.594              1.208
 Vibration    17          0.743              1.530              1.073
 Vibration    18          0.760              1.486              0.990
 Vibration    19          0.790              1.407              0.862
 Vibration    20          0.828              1.315              0.735
 Vibration    21          0.878              1.200              0.604
 Vibration    22          0.929              1.090              0.498
 Vibration    23          0.976              0.997              0.422

                           ! Non-Optimized Parameters !
 Normal termination of Gaussian 16 at Fri Dec 11 13:32:58 2020.

 ----------------------------------------------------------------------
 # B3LYP/6-311++G(d,p) empiricaldispersion=gd3bj scf=xqc pop=npa geom=c
 heck
 ----------------------------------------------------------------------

 --------------------------------------
 CID_84224427_JID_7828_Energie_neutraal
 --------------------------------------
 Structure from the checkpoint file:  "JID_7828.chk"
 Charge =  0 Multiplicity = 1

 SCF Done:  E(RB3LYP) =  -793.484626012     A.U. after   15 cycles
 Normal termination of Gaussian 16 at Fri Dec 11 13:38:24 2020.

 ----------------------------------------------------------------------
 # B3LYP/6-311++G(d,p) empiricaldispersion=gd3bj scf=xqc pop=npa geom=c
 heck
 ----------------------------------------------------------------------

 ------------------------------------
 CID_84224427_JID_7828_Energie_kation
 ------------------------------------
 Structure from the checkpoint file:  "JID_7828.chk"
 Charge =  1 Multiplicity = 2

 SCF Done:  E(UB3LYP) =  -793.201461976     A.U. after   26 cycles
 Normal termination of Gaussian 16 at Fri Dec 11 13:50:59 2020.
 Gaussian 16:  ES64L-G16RevA.03 25-Dec-2016

 ----------------------------------------------------------------------
 # B3LYP/6-311++G(d,p) empiricaldispersion=gd3bj scf=xqc pop=npa geom=c
 heck
 ----------------------------------------------------------------------

 -----------------------------------
 CID_84224427_JID_7828_Energie_anion
 -----------------------------------
 Structure from the checkpoint file:  "JID_7828.chk"
 Charge = -1 Multiplicity = 2

                         Standard orientation:
 ---------------------------------------------------------------------
 Center     Atomic      Atomic             Coordinates (Angstroms)
 Number     Number       Type             X           Y           Z
 ---------------------------------------------------------------------
      1          6           0        4.855204    0.956861   -1.106092
      2          6           0        4.641538    0.181919    0.193107
      3          7           0        3.232226   -0.034015    0.479629
      4          6           0        2.448764    0.603037    1.386398
      5          6           0        1.163475    0.119856    1.231142
      6          6           0        1.273061   -0.806424    0.164971
      7          7           0        2.524408   -0.894575   -0.291885
      8          7           0        0.314679   -1.666768   -0.385569
      9          6           0       -1.062353   -1.606774   -0.403479
     10          8           0       -1.716201   -2.624101   -0.626102
     11          6           0       -1.712382   -0.294021   -0.220139
     12          6           0       -1.300171    0.999349   -0.532905
     13          6           0       -2.423454    1.806845   -0.264217
     14          7           0       -3.451905    1.077865    0.187684
     15          7           0       -3.009958   -0.200793    0.193501
     16          6           0       -3.937172   -1.256867    0.564266
     17          7           0       -2.563092    3.181606   -0.470012
     18          1           0        4.401190    0.417711   -1.941837
     19          1           0        5.925596    1.076984   -1.304597
     20          1           0        4.398629    1.950305   -1.045385
     21          1           0        5.121612   -0.799946    0.141175
     22          1           0        5.062661    0.717890    1.049130
     23          1           0        2.858899    1.328289    2.074823
     24          1           0        0.284367    0.386576    1.794092
     25          1           0        0.668554   -2.563261   -0.698979
     26          1           0       -0.335342    1.301160   -0.908637
     27          1           0       -4.747838   -0.781811    1.117218
     28          1           0       -4.327960   -1.758553   -0.324633
     29          1           0       -3.433998   -1.999771    1.183371
     30          1           0       -3.399678    3.537513   -0.019274
     31          1           0       -1.750661    3.713788   -0.179388
 ---------------------------------------------------------------------

 SCF Done:  E(UB3LYP) =  -793.481981179     A.U. after   33 cycles
 SCF Done:  E(UB3LYP) =  -793.481981179     a.u. after    1 cycles

 The electronic state is 2-A.
 Alpha  occ. eigenvalues --  -18.96268 -14.28368 -14.26645 -14.22956 -14.22059
 Alpha  occ. eigenvalues --  -14.21687 -14.20580 -10.14804 -10.12494 -10.11664
 Alpha  occ. eigenvalues --  -10.11364 -10.10593 -10.09897 -10.09049 -10.06996
 Alpha  occ. eigenvalues --  -10.06285 -10.04643  -0.94991  -0.93794  -0.91605
 Alpha  occ. eigenvalues --   -0.82164  -0.81515  -0.73600  -0.71052  -0.68967
 Alpha  occ. eigenvalues --   -0.67714  -0.63962  -0.58324  -0.55572  -0.54013
 Alpha  occ. eigenvalues --   -0.50804  -0.48261  -0.47529  -0.45260  -0.43811
 Alpha  occ. eigenvalues --   -0.40960  -0.39135  -0.38744  -0.36903  -0.36111
 Alpha  occ. eigenvalues --   -0.35601  -0.35313  -0.33260  -0.32739  -0.32408
 Alpha  occ. eigenvalues --   -0.31609  -0.30496  -0.29740  -0.29050  -0.28514
 Alpha  occ. eigenvalues --   -0.28131  -0.27763  -0.26322  -0.21924  -0.20170
 Alpha  occ. eigenvalues --   -0.19691  -0.18701  -0.15330  -0.14796  -0.13737
 Alpha  occ. eigenvalues --   -0.11354  -0.10749   0.04075
 Alpha virt. eigenvalues --    0.05548   0.07020   0.07671   0.08284   0.08600
 Alpha virt. eigenvalues --    0.09415   0.10337   0.10712   0.11211   0.11372
 Alpha virt. eigenvalues --    0.11752   0.12186   0.12672   0.12840   0.13699

  Beta  occ. eigenvalues --  -18.95990 -14.28361 -14.26449 -14.22971 -14.22066
  Beta  occ. eigenvalues --  -14.21604 -14.20439 -10.14564 -10.12461 -10.11634
  Beta  occ. eigenvalues --  -10.11412 -10.10586 -10.09906 -10.09016 -10.06969
  Beta  occ. eigenvalues --  -10.06289 -10.04551  -0.94921  -0.93511  -0.91172
  Beta  occ. eigenvalues --   -0.82026  -0.81493  -0.73513  -0.70876  -0.68901
  Beta  occ. eigenvalues --   -0.67496  -0.63907  -0.58230  -0.55372  -0.53776
  Beta  occ. eigenvalues --   -0.50651  -0.48173  -0.47414  -0.45187  -0.43744
  Beta  occ. eigenvalues --   -0.40906  -0.39027  -0.38613  -0.36514  -0.36016
  Beta  occ. eigenvalues --   -0.35471  -0.35239  -0.33103  -0.32669  -0.32228
  Beta  occ. eigenvalues --   -0.31549  -0.30095  -0.29638  -0.28890  -0.28315
  Beta  occ. eigenvalues --   -0.27933  -0.27299  -0.26244  -0.21748  -0.19771
  Beta  occ. eigenvalues --   -0.19387  -0.18508  -0.15071  -0.14534  -0.12887
  Beta  occ. eigenvalues --   -0.11081  -0.10197
  Beta virt. eigenvalues --    0.06560   0.07156   0.08156   0.08321   0.08447
  Beta virt. eigenvalues --    0.08811   0.09695   0.10582   0.10915   0.11195
  Beta virt. eigenvalues --    0.11552   0.11938   0.12190   0.12791   0.12812

 Mulliken charges and spin densities:
               1          2
     1  C    0.642703  -1.110887
     2  C    0.066762  -0.228146
     3  N    0.219688   0.022763
     4  C   -0.369309   0.009644
     5  C    0.905034  -0.430761
     6  C   -0.437815  -0.312594
     7  N   -0.338761   0.188461
     8  N   -0.161701  -0.055484
     9  C   -0.238904   0.106302
    10  O   -0.390032   0.095533
    11  C   -0.059258  -0.076733
    12  C    0.420625   0.128626
    13  C   -0.503760  -0.056353
    14  N   -0.165520   0.085861
    15  N    0.092274   0.039738
    16  C   -0.305793  -0.005007
    17  N   -0.353375   0.001158
    18  H    0.098459   0.061108
    19  H   -0.384187   0.519784
    20  H   -0.011040   0.148952
    21  H   -0.108732   0.273704
    22  H   -0.631998   0.786192
    23  H   -0.588677   0.753317
    24  H    0.184037   0.014480
    25  H    0.270558   0.033657
    26  H    0.211631  -0.008999
    27  H    0.125859  -0.000164
    28  H    0.175086   0.005409
    29  H    0.167031   0.007643
    30  H    0.242853   0.000202
    31  H    0.226262   0.002595
 Sum of Mulliken charges =  -1.00000   1.00000

 Dipole moment (field-independent basis, Debye):
    X=             -5.5793    Y=              0.8983    Z=              0.9452  Tot=              5.7296
 Quadrupole moment (field-independent basis, Debye-Ang):
   XX=           -197.4433   YY=           -127.9240   ZZ=           -123.8768
   XY=            -12.4369   XZ=            -11.5025   YZ=             -3.3975

 Summary of Natural Population Analysis:

                                       Natural Population
                Natural  -----------------------------------------------
    Atom  No    Charge         Core      Valence    Rydberg      Total
 -----------------------------------------------------------------------
      C    1   -0.28980      0.99966     2.28487    0.00527     3.28980
      C    2   -0.08015      0.99962     2.06871    0.01182     3.08015
      N    3   -0.10918      0.99966     2.59567    0.01385     3.60918
      C    4   -0.00468      0.99957     1.99379    0.01132     3.00468
      C    5   -0.17547      0.99953     2.16718    0.00876     3.17547
      C    6    0.16560      0.99957     1.82006    0.01478     2.83440
      N    7   -0.16448      0.99969     2.65391    0.01087     3.66448
      N    8   -0.31312      0.99964     2.80431    0.00917     3.81312
      C    9    0.35419      0.99963     1.62527    0.02092     2.64581
      O   10   -0.29924      0.99988     3.29397    0.00539     4.29924
      C   11    0.04721      0.99950     1.94260    0.01069     2.95279
      C   12   -0.15059      0.99948     2.14350    0.00760     3.15059
      C   13    0.14430      0.99959     1.84190    0.01421     2.85570
      N   14   -0.16749      0.99969     2.65507    0.01274     3.66749
      N   15   -0.07483      0.99963     2.56296    0.01224     3.57483
      C   16   -0.17231      0.99965     2.16612    0.00654     3.17231
      N   17   -0.40909      0.99972     2.89962    0.00974     3.90909
      H   18    0.10451      0.00000     0.39425    0.00124     0.39549
      H   19    0.10120      0.00000     0.39728    0.00152     0.39880
      H   20    0.09867      0.00000     0.40034    0.00099     0.40133
      H   21    0.09989      0.00000     0.39857    0.00154     0.40011
      H   22    0.10136      0.00000     0.39495    0.00369     0.39864
      H   23    0.10448      0.00000     0.39419    0.00133     0.39552
      H   24    0.11534      0.00000     0.38372    0.00095     0.38466
      H   25    0.19831      0.00000     0.29880    0.00290     0.30169
      H   26    0.11057      0.00000     0.38849    0.00095     0.38943
      H   27    0.09792      0.00000     0.40117    0.00092     0.40208
      H   28    0.09996      0.00000     0.39898    0.00106     0.40004
      H   29    0.10371      0.00000     0.39533    0.00097     0.39629
      H   30    0.18326      0.00000     0.31528    0.00146     0.31674
      H   31    0.17997      0.00000     0.31814    0.00189     0.32003
 =======================================================================
   * Total *   -0.00000     16.99371    44.79900    0.20728    62.00000

 Normal termination of Gaussian 16 at Fri Dec 11 14:07:30 2020.
