 Gaussian 16, Revision A.03,

 -----------------------------------------------------------
 # opt freq B3LYP/6-31G(d) empiricaldispersion=gd3bj scf=xqc
 -----------------------------------------------------------

 -------------------------------
 CID_108060041_JID_3663_neutraal
 -------------------------------
 Symbolic Z-matrix:
 Charge =  0 Multiplicity = 1

 SCF Done:  E(RB3LYP) =  -1002.40871931     A.U. after   17 cycles
 SCF Done:  E(RB3LYP) =  -1002.41250406     A.U. after   14 cycles
 SCF Done:  E(RB3LYP) =  -1002.41156264     A.U. after   15 cycles
 SCF Done:  E(RB3LYP) =  -1002.41253530     A.U. after   15 cycles
 SCF Done:  E(RB3LYP) =  -1002.41308560     A.U. after   14 cycles
 SCF Done:  E(RB3LYP) =  -1002.41334428     A.U. after   13 cycles
 SCF Done:  E(RB3LYP) =  -1002.41341509     A.U. after   13 cycles
 SCF Done:  E(RB3LYP) =  -1002.41343701     A.U. after   12 cycles
 SCF Done:  E(RB3LYP) =  -1002.41344201     A.U. after   11 cycles
 SCF Done:  E(RB3LYP) =  -1002.41344232     A.U. after    9 cycles
 SCF Done:  E(RB3LYP) =  -1002.41344251     A.U. after    9 cycles
 Optimization completed.
    -- Stationary point found.
 Normal termination of Gaussian 16 at Wed Dec  9 23:17:55 2020.

 --------------------------------------------------------------------
 #N Geom=AllCheck Guess=TCheck SCRF=Check GenChk RB3LYP/6-31G(d) Freq
 --------------------------------------------------------------------

 Structure from the checkpoint file:  "JID_3663.chk"
 -------------------------------
 CID_108060041_JID_3663_neutraal
 -------------------------------
 Charge =  0 Multiplicity = 1

 SCF Done:  E(RB3LYP) =  -1002.41344251     A.U. after    1 cycles

  Exact polarizability: 152.544   5.072 118.543  -3.195   4.505  55.568
 Approx polarizability: 229.999  15.141 261.525  -6.708  16.332  94.697

                      1                      2                      3
                      A                      A                      A
 Frequencies --     38.9452                59.5010                76.1142
 Red. masses --      8.0242                 6.1300                10.9446
 Frc consts  --      0.0072                 0.0128                 0.0374
 IR Inten    --      4.5383                 6.9572                 4.6086

                      4                      5                      6
                      A                      A                      A
 Frequencies --    106.6528               115.9544               140.6160
 Red. masses --     14.3643                 6.7986                11.0747
 Frc consts  --      0.0963                 0.0539                 0.1290
 IR Inten    --      0.7652                 1.1885                 6.1349

                      7                      8                      9
                      A                      A                      A
 Frequencies --    226.8321               242.1579               285.3794
 Red. masses --      7.3156                 7.5770                 8.3692
 Frc consts  --      0.2218                 0.2618                 0.4016
 IR Inten    --      8.7266                 2.1611                 0.9587

                     10                     11                     12
                      A                      A                      A
 Frequencies --    367.9568               393.1409               438.6323
 Red. masses --      3.3723                12.3957                 6.6179
 Frc consts  --      0.2690                 1.1288                 0.7502
 IR Inten    --      1.0881                 0.3683                 1.9812

                     13                     14                     15
                      A                      A                      A
 Frequencies --    460.3604               490.6906               541.5251
 Red. masses --     10.2073                10.0329                 4.6205
 Frc consts  --      1.2746                 1.4233                 0.7983
 IR Inten    --     14.1043                 0.1189                 5.6033

                     16                     17                     18
                      A                      A                      A
 Frequencies --    566.4514               591.1780               690.8668
 Red. masses --      4.1644                 4.8019                 5.1461
 Frc consts  --      0.7873                 0.9888                 1.4472
 IR Inten    --      0.2029                11.5582                15.1036

                     19                     20                     21
                      A                      A                      A
 Frequencies --    714.1416               742.1804               767.3439
 Red. masses --      9.1316                 7.0067                 5.7502
 Frc consts  --      2.7439                 2.2740                 1.9948
 IR Inten    --      3.7457                23.5616                11.6780

                     22                     23                     24
                      A                      A                      A
 Frequencies --    827.4316               837.2535               928.6099
 Red. masses --     10.9603                 1.3711                 2.0258
 Frc consts  --      4.4212                 0.5663                 1.0292
 IR Inten    --     40.6204                23.9947                 4.6859

                     25                     26                     27
                      A                      A                      A
 Frequencies --    944.3160               975.4793               995.6259
 Red. masses --      1.9899                 3.5326                 3.3914
 Frc consts  --      1.0455                 1.9805                 1.9807
 IR Inten    --      6.5189                 1.2357                18.2649

                     28                     29                     30
                      A                      A                      A
 Frequencies --   1077.1032              1155.2243              1213.0945
 Red. masses --      1.6052                 4.3993                 1.3625
 Frc consts  --      1.0972                 3.4592                 1.1813
 IR Inten    --      7.5049                63.7518                59.0076

                     31                     32                     33
                      A                      A                      A
 Frequencies --   1259.0736              1292.8824              1318.7633
 Red. masses --      1.6135                 3.2372                 1.4425
 Frc consts  --      1.5071                 3.1882                 1.4781
 IR Inten    --      3.3891               330.0731                 1.4996

                     34                     35                     36
                      A                      A                      A
 Frequencies --   1383.3308              1400.5960              1475.8522
 Red. masses --      4.6393                 8.9240                 1.0850
 Frc consts  --      5.2306                10.3142                 1.3924
 IR Inten    --    102.0763               225.9188                12.6935

                     37                     38                     39
                      A                      A                      A
 Frequencies --   1485.6287              1582.3566              1636.0766
 Red. masses --      6.7366                 5.3530                13.6830
 Frc consts  --      8.7601                 7.8969                21.5794
 IR Inten    --     18.3813                38.2475               174.8461

                     40                     41                     42
                      A                      A                      A
 Frequencies --   1775.2760              2373.5157              3060.0366
 Red. masses --     12.0114                12.5956                 1.0652
 Frc consts  --     22.3036                41.8073                 5.8766
 IR Inten    --    210.7006                 7.3158                 2.2793

                     43                     44                     45
                      A                      A                      A
 Frequencies --   3132.3559              3250.6566              3272.2148
 Red. masses --      1.0968                 1.0922                 1.0968
 Frc consts  --      6.3404                 6.7995                 6.9192
 IR Inten    --      0.3543                 0.0295                 3.2247

 - Thermochemistry -
 -------------------
 Temperature   298.150 Kelvin.  Pressure   1.00000 Atm.
 Atom     1 has atomic number  6 and mass  12.00000

 Molecular mass:   195.99426 amu.
 Principal axes and moments of inertia in atomic units:
                           1         2         3
     Eigenvalues --  1107.799704525.541795444.02164
           X            0.99997   0.00489  -0.00558
           Y           -0.00484   0.99995   0.00848
           Z            0.00563  -0.00845   0.99995
 This molecule is an asymmetric top.
 Rotational symmetry number  1.
 Warning -- assumption of classical behavior for rotation
           may cause significant error
 Rotational temperatures (Kelvin)      0.07819     0.01914     0.01591
 Rotational constants (GHZ):           1.62912     0.39879     0.33151
 Zero-point vibrational energy     279384.1 (Joules/Mol)
                                   66.77440 (Kcal/Mol)
 Warning -- explicit consideration of  17 degrees of freedom as
           vibrations may cause significant error
 Vibrational temperatures:     56.03    85.61   109.51   153.45   166.83
          (Kelvin)            202.32   326.36   348.41   410.60   529.41
                              565.64   631.09   662.36   705.99   779.13
                              815.00   850.57   994.00  1027.49  1067.83
                             1104.04  1190.49  1204.62  1336.06  1358.66
                             1403.50  1432.48  1549.71  1662.11  1745.37
                             1811.53  1860.17  1897.41  1990.30  2015.15
                             2123.42  2137.49  2276.66  2353.95  2554.23
                             3414.96  4402.71  4506.76  4676.97  4707.99

 Zero-point correction=                           0.106412 (Hartree/Particle)
 Thermal correction to Energy=                    0.118051
 Thermal correction to Enthalpy=                  0.118995
 Thermal correction to Gibbs Free Energy=         0.066833
 Sum of electronic and zero-point Energies=          -1002.307031
 Sum of electronic and thermal Energies=             -1002.295392
 Sum of electronic and thermal Enthalpies=           -1002.294447
 Sum of electronic and thermal Free Energies=        -1002.346610

                     E (Thermal)             CV                S
                      KCal/Mol        Cal/Mol-Kelvin    Cal/Mol-Kelvin
 Total                   74.078             40.980            109.785
 Electronic               0.000              0.000              0.000
 Translational            0.889              2.981             41.724
 Rotational               0.889              2.981             31.679
 Vibrational             72.301             35.018             36.382
 Vibration     1          0.594              1.981              5.312
 Vibration     2          0.597              1.974              4.474
 Vibration     3          0.599              1.965              3.989
 Vibration     4          0.606              1.944              3.329
 Vibration     5          0.608              1.936              3.167
 Vibration     6          0.615              1.913              2.795
 Vibration     7          0.650              1.800              1.904
 Vibration     8          0.658              1.776              1.787
 Vibration     9          0.683              1.701              1.501
 Vibration    10          0.741              1.538              1.088
 Vibration    11          0.760              1.485              0.988
 Vibration    12          0.799              1.386              0.831
 Vibration    13          0.818              1.338              0.765
 Vibration    14          0.846              1.271              0.682
 Vibration    15          0.897              1.158              0.562
 Vibration    16          0.922              1.104              0.511
 Vibration    17          0.949              1.051              0.465

 Optimization completed.
    -- Stationary point found.
 Normal termination of Gaussian 16 at Wed Dec  9 23:21:37 2020.

 ----------------------------------------------------------------------
 # B3LYP/6-311++G(d,p) empiricaldispersion=gd3bj scf=xqc pop=npa geom=c
 heck
 ----------------------------------------------------------------------

 ---------------------------------------
 CID_108060041_JID_3663_Energie_neutraal
 ---------------------------------------
 Structure from the checkpoint file:  "JID_3663.chk"
 Charge =  0 Multiplicity = 1

 SCF Done:  E(RB3LYP) =  -1002.61292889     A.U. after   17 cycles
 Normal termination of Gaussian 16 at Wed Dec  9 23:23:21 2020.

 ----------------------------------------------------------------------
 # B3LYP/6-311++G(d,p) empiricaldispersion=gd3bj scf=xqc pop=npa geom=c
 heck
 ----------------------------------------------------------------------

 -------------------------------------
 CID_108060041_JID_3663_Energie_kation
 -------------------------------------
 Structure from the checkpoint file:  "JID_3663.chk"
 Charge =  1 Multiplicity = 2

 SCF Done:  E(UB3LYP) =  -1002.24088366     A.U. after   33 cycles
 SCF Done:  E(UB3LYP) =  -1002.24088369     a.u. after    2 cycles
 Normal termination of Gaussian 16 at Wed Dec  9 23:32:56 2020.
 Gaussian 16:  ES64L-G16RevA.03 25-Dec-2016

 ----------------------------------------------------------------------
 # B3LYP/6-311++G(d,p) empiricaldispersion=gd3bj scf=xqc pop=npa geom=c
 heck
 ----------------------------------------------------------------------

 ------------------------------------
 CID_108060041_JID_3663_Energie_anion
 ------------------------------------
 Structure from the checkpoint file:  "JID_3663.chk"
 Charge = -1 Multiplicity = 2

                         Standard orientation:
 ---------------------------------------------------------------------
 Center     Atomic      Atomic             Coordinates (Angstroms)
 Number     Number       Type             X           Y           Z
 ---------------------------------------------------------------------
      1          6           0        0.440971   -1.087471   -0.440664
      2          6           0        0.697915    0.248590   -0.181318
      3         16           0       -0.752400    1.158246    0.152892
      4          6           0       -1.676103   -0.284125   -0.065217
      5          6           0       -0.935666   -1.400021   -0.373931
      6          7           0       -3.110387   -0.243312    0.081084
      7          8           0       -3.611194    0.847020    0.362946
      8          8           0       -3.722063   -1.296679   -0.087485
      9          6           0        1.969701    0.983607   -0.164804
     10          8           0        2.015228    2.176290    0.074674
     11          6           0        3.267612    0.228581   -0.523653
     12          6           0        3.499071   -0.979513    0.264929
     13          7           0        3.658863   -1.942614    0.892112
     14          1           0        1.211235   -1.819308   -0.648950
     15          1           0       -1.374823   -2.375476   -0.534607
     16          1           0        3.235208   -0.040552   -1.587778
     17          1           0        4.090667    0.933940   -0.380436
 ---------------------------------------------------------------------

 SCF Done:  E(UB3LYP) =  -1002.69508341     A.U. after   23 cycles

 The electronic state is 2-A.
 Alpha  occ. eigenvalues --  -88.75163 -18.99141 -18.99106 -18.98625 -14.38141
 Alpha  occ. eigenvalues --  -14.22171 -10.14359 -10.12456 -10.12409 -10.10453
 Alpha  occ. eigenvalues --  -10.08009 -10.06726 -10.06227  -7.83775  -5.80072
 Alpha  occ. eigenvalues --   -5.79709  -5.79384  -1.07159  -0.92915  -0.90091
 Alpha  occ. eigenvalues --   -0.81992  -0.77232  -0.69663  -0.65618  -0.62631
 Alpha  occ. eigenvalues --   -0.56543  -0.49234  -0.44362  -0.42187  -0.41918
 Alpha  occ. eigenvalues --   -0.39933  -0.38945  -0.37923  -0.36058  -0.33535
 Alpha  occ. eigenvalues --   -0.32267  -0.29733  -0.29372  -0.27906  -0.27743
 Alpha  occ. eigenvalues --   -0.25064  -0.24688  -0.24142  -0.23184  -0.17488
 Alpha  occ. eigenvalues --   -0.16287  -0.15005  -0.14408  -0.14300  -0.13552
 Alpha  occ. eigenvalues --   -0.01795
 Alpha virt. eigenvalues --    0.06397   0.07690   0.09502   0.10646   0.11253
 Alpha virt. eigenvalues --    0.12017   0.12361   0.13301   0.13750   0.14339
 Alpha virt. eigenvalues --    0.14826   0.15789   0.16335   0.16683   0.17050

  Beta  occ. eigenvalues --  -88.75094 -18.98822 -18.98744 -18.98241 -14.37836
  Beta  occ. eigenvalues --  -14.22164 -10.14177 -10.12471 -10.12400 -10.10265
  Beta  occ. eigenvalues --  -10.07864 -10.06682 -10.06197  -7.83713  -5.80038
  Beta  occ. eigenvalues --   -5.79676  -5.79158  -1.06522  -0.92238  -0.89460
  Beta  occ. eigenvalues --   -0.81975  -0.76957  -0.69467  -0.65019  -0.62323
  Beta  occ. eigenvalues --   -0.55861  -0.48819  -0.44201  -0.41747  -0.41671
  Beta  occ. eigenvalues --   -0.39653  -0.37785  -0.37059  -0.35555  -0.33222
  Beta  occ. eigenvalues --   -0.32078  -0.29472  -0.28460  -0.27752  -0.27356
  Beta  occ. eigenvalues --   -0.24731  -0.24140  -0.23562  -0.22946  -0.15921
  Beta  occ. eigenvalues --   -0.15190  -0.14654  -0.13961  -0.13322  -0.11953
  Beta virt. eigenvalues --    0.04002   0.07400   0.09071   0.09533   0.10739
  Beta virt. eigenvalues --    0.11381   0.12055   0.12408   0.13322   0.13844
  Beta virt. eigenvalues --    0.14781   0.15391   0.15877   0.16536   0.16897

 Mulliken charges and spin densities:
               1          2
     1  C   -0.983135   0.065687
     2  C    1.258539   0.057899
     3  S   -0.381820   0.117016
     4  C   -1.187306   0.066844
     5  C    1.222314   0.076968
     6  N   -0.200670   0.106658
     7  O   -0.171178   0.119325
     8  O   -0.116512   0.133575
     9  C   -0.530715   0.107902
    10  O   -0.329332   0.137706
    11  C   -0.014474  -0.012521
    12  C    0.080565   0.010935
    13  N   -0.350707   0.004689
    14  H    0.100528  -0.002716
    15  H    0.232895  -0.002213
    16  H    0.159812   0.014484
    17  H    0.211196  -0.002236
 Sum of Mulliken charges =  -1.00000   1.00000

 Dipole moment (field-independent basis, Debye):
    X=              5.4958    Y=             -0.6403    Z=             -2.8395  Tot=              6.2191
 Quadrupole moment (field-independent basis, Debye-Ang):
   XX=           -137.4990   YY=           -105.5670   ZZ=            -85.8942
   XY=              2.9262   XZ=             -7.0899   YZ=              2.6136

 Summary of Natural Population Analysis:

                                       Natural Population
                Natural  -----------------------------------------------
    Atom  No    Charge         Core      Valence    Rydberg      Total
 -----------------------------------------------------------------------
      C    1   -0.10403      0.99951     2.09604    0.00848     3.10403
      C    2   -0.12561      0.99946     2.11428    0.01187     3.12561
      S    3    0.27920      4.99938     2.69841    0.02300     7.72080
      C    4   -0.00330      0.99943     1.98904    0.01484     3.00330
      C    5   -0.12058      0.99949     2.11013    0.01096     3.12058
      N    6    0.26137      0.99967     2.21053    0.02844     3.23863
      O    7   -0.19225      0.99990     3.18466    0.00769     4.19225
      O    8   -0.18678      0.99990     3.17919    0.00769     4.18678
      C    9    0.28429      0.99957     1.69539    0.02074     2.71571
      O   10   -0.24673      0.99988     3.24048    0.00637     4.24673
      C   11   -0.28681      0.99952     2.27794    0.00935     3.28681
      C   12    0.15721      0.99966     1.82522    0.01790     2.84279
      N   13   -0.18689      0.99979     2.67580    0.01130     3.68689
      H   14    0.10504      0.00000     0.39350    0.00146     0.39496
      H   15    0.11387      0.00000     0.38484    0.00129     0.38613
      H   16    0.12524      0.00000     0.37366    0.00110     0.37476
      H   17    0.12678      0.00000     0.37192    0.00130     0.37322
 =======================================================================
   * Total *    0.00000     16.99516    32.82103    0.18380    50.00000

 Normal termination of Gaussian 16 at Wed Dec  9 23:36:19 2020.
