 Gaussian 16, Revision A.03,

 -----------------------------------------------------------
 # opt freq B3LYP/6-31G(d) empiricaldispersion=gd3bj scf=xqc
 -----------------------------------------------------------

 -------------------------------
 CID_130172145_JID_4890_neutraal
 -------------------------------
 Symbolic Z-matrix:
 Charge =  0 Multiplicity = 1

 SCF Done:  E(RB3LYP) =  -696.369521601     A.U. after   15 cycles
 SCF Done:  E(RB3LYP) =  -696.376791041     A.U. after   12 cycles
 SCF Done:  E(RB3LYP) =  -696.379702484     A.U. after   12 cycles
 SCF Done:  E(RB3LYP) =  -696.382346114     A.U. after   13 cycles
 SCF Done:  E(RB3LYP) =  -696.383614335     A.U. after   12 cycles
 SCF Done:  E(RB3LYP) =  -696.386076020     A.U. after   15 cycles
 SCF Done:  E(RB3LYP) =  -696.387104072     A.U. after   13 cycles
 SCF Done:  E(RB3LYP) =  -696.388045303     A.U. after   12 cycles
 SCF Done:  E(RB3LYP) =  -696.388280017     A.U. after   12 cycles
 SCF Done:  E(RB3LYP) =  -696.388350424     A.U. after   11 cycles
 SCF Done:  E(RB3LYP) =  -696.388392631     A.U. after   11 cycles
 SCF Done:  E(RB3LYP) =  -696.388408952     A.U. after   10 cycles
 SCF Done:  E(RB3LYP) =  -696.388412167     A.U. after    9 cycles
 SCF Done:  E(RB3LYP) =  -696.388412982     A.U. after    8 cycles
 SCF Done:  E(RB3LYP) =  -696.388413356     A.U. after    7 cycles
 Optimization completed.
    -- Stationary point found.
 Normal termination of Gaussian 16 at Thu Dec 10 10:47:41 2020.

 --------------------------------------------------------------------
 #N Geom=AllCheck Guess=TCheck SCRF=Check GenChk RB3LYP/6-31G(d) Freq
 --------------------------------------------------------------------

 Structure from the checkpoint file:  "JID_4890.chk"
 -------------------------------
 CID_130172145_JID_4890_neutraal
 -------------------------------
 Charge =  0 Multiplicity = 1

 SCF Done:  E(RB3LYP) =  -696.388413356     A.U. after    1 cycles

  Exact polarizability: 130.138  -4.975 104.739  -5.548  -2.429  77.657
 Approx polarizability: 174.703 -14.316 181.200 -10.372  -6.254 125.562

                      1                      2                      3
                      A                      A                      A
 Frequencies --     32.3763                60.7545               102.3267
 Red. masses --      6.5702                 5.6797                 3.9825
 Frc consts  --      0.0041                 0.0124                 0.0246
 IR Inten    --      1.3988                 0.4624                 2.0441

                      4                      5                      6
                      A                      A                      A
 Frequencies --    131.5111               164.9575               195.1118
 Red. masses --      5.0421                 1.1273                 6.7576
 Frc consts  --      0.0514                 0.0181                 0.1516
 IR Inten    --      0.0361                 0.0216                 2.4737

                      7                      8                      9
                      A                      A                      A
 Frequencies --    221.2781               238.8355               281.9714
 Red. masses --      3.9667                 4.7607                 3.6222
 Frc consts  --      0.1144                 0.1600                 0.1697
 IR Inten    --      9.7259                 5.5837                 7.7566

                     10                     11                     12
                      A                      A                      A
 Frequencies --    323.6416               417.0156               451.8464
 Red. masses --      5.3398                 5.5318                 3.1817
 Frc consts  --      0.3295                 0.5668                 0.3827
 IR Inten    --      5.5505                 4.8034                 2.5913

                     13                     14                     15
                      A                      A                      A
 Frequencies --    480.0585               529.0312               551.7001
 Red. masses --      6.2601                 4.4063                 1.6952
 Frc consts  --      0.8500                 0.7266                 0.3040
 IR Inten    --      3.0205                10.6198                98.7821

                     16                     17                     18
                      A                      A                      A
 Frequencies --    582.4599               624.3040               640.6200
 Red. masses --      3.9589                 2.1372                 4.3010
 Frc consts  --      0.7913                 0.4908                 1.0400
 IR Inten    --     26.8496               135.0337                 9.0263

                     19                     20                     21
                      A                      A                      A
 Frequencies --    706.9979               751.9365               785.6534
 Red. masses --      5.3377                 5.3232                 5.6449
 Frc consts  --      1.5720                 1.7733                 2.0529
 IR Inten    --     31.9080                15.0084                82.6281

                     22                     23                     24
                      A                      A                      A
 Frequencies --    791.9344               829.6528               860.1483
 Red. masses --      5.2773                 4.0202                 3.3655
 Frc consts  --      1.9500                 1.6304                 1.4671
 IR Inten    --      8.1856                69.4981                24.7567

                     25                     26                     27
                      A                      A                      A
 Frequencies --    903.3510               923.9896               947.9392
 Red. masses --      1.7794                 3.2496                 3.5372
 Frc consts  --      0.8555                 1.6346                 1.8727
 IR Inten    --     12.7322                49.2090                14.9011

                     28                     29                     30
                      A                      A                      A
 Frequencies --    988.3512              1001.4571              1010.4014
 Red. masses --      1.4573                 2.7894                 9.0539
 Frc consts  --      0.8387                 1.6483                 5.4460
 IR Inten    --      0.3666                57.9853                24.2934

                     31                     32                     33
                      A                      A                      A
 Frequencies --   1055.1830              1068.3793              1099.6525
 Red. masses --      3.1295                 2.2410                 1.9344
 Frc consts  --      2.0529                 1.5071                 1.3782
 IR Inten    --     92.0623                39.6858                 7.4937

                     34                     35                     36
                      A                      A                      A
 Frequencies --   1137.7168              1183.7659              1184.7218
 Red. masses --      3.9010                 1.2949                 1.7378
 Frc consts  --      2.9750                 1.0691                 1.4371
 IR Inten    --     34.0597                 2.6991                26.3411

                     37                     38                     39
                      A                      A                      A
 Frequencies --   1211.9722              1265.3972              1282.6544
 Red. masses --      1.5833                 2.0366                 5.0087
 Frc consts  --      1.3702                 1.9213                 4.8551
 IR Inten    --     28.6176                61.5814                15.2523

                     40                     41                     42
                      A                      A                      A
 Frequencies --   1322.2377              1351.3728              1360.1146
 Red. masses --      4.3008                 1.5401                 1.6268
 Frc consts  --      4.4301                 1.6571                 1.7731
 IR Inten    --     22.6645                10.9333                 5.0634

                     43                     44                     45
                      A                      A                      A
 Frequencies --   1374.7975              1391.3704              1429.0369
 Red. masses --      1.9926                 1.3251                 1.6783
 Frc consts  --      2.2189                 1.5114                 2.0193
 IR Inten    --     34.5164                18.3790               154.4647

                     46                     47                     48
                      A                      A                      A
 Frequencies --   1430.1367              1490.1450              1510.8098
 Red. masses --      2.9099                 1.5941                 1.0484
 Frc consts  --      3.5065                 2.0856                 1.4099
 IR Inten    --    260.3367                 4.7883                 6.0550

                     49                     50                     51
                      A                      A                      A
 Frequencies --   1518.7993              1523.7921              1530.6670
 Red. masses --      1.2120                 1.0756                 1.9993
 Frc consts  --      1.6473                 1.4714                 2.7599
 IR Inten    --     29.5125                10.5229                82.1828

                     52                     53                     54
                      A                      A                      A
 Frequencies --   1605.5279              1649.7965              1865.8274
 Red. masses --      9.0686                 6.7703                10.5723
 Frc consts  --     13.7729                10.8572                21.6852
 IR Inten    --     99.4714               371.7246               490.6281

                     55                     56                     57
                      A                      A                      A
 Frequencies --   3075.3186              3077.4991              3150.4471
 Red. masses --      1.0294                 1.0862                 1.1076
 Frc consts  --      5.7361                 6.0610                 6.4768
 IR Inten    --     39.1468                22.5333                20.1279

                     58                     59                     60
                      A                      A                      A
 Frequencies --   3182.3940              3192.2608              3257.2819
 Red. masses --      1.1072                 1.0913                 1.0925
 Frc consts  --      6.6068                 6.5523                 6.8297
 IR Inten    --     21.6049                26.2788                 1.2566

                     61                     62                     63
                      A                      A                      A
 Frequencies --   3475.8162              3580.4018              3590.5645
 Red. masses --      1.0760                 1.0775                 1.0765
 Frc consts  --      7.6593                 8.1383                 8.1766
 IR Inten    --      0.7822                23.5336                46.2964

 - Thermochemistry -
 -------------------
 Temperature   298.150 Kelvin.  Pressure   1.00000 Atm.
 Atom     1 has atomic number  6 and mass  12.00000

 Molecular mass:   195.07562 amu.
 Principal axes and moments of inertia in atomic units:
                           1         2         3
     Eigenvalues --  1190.555764586.012554953.81746
           X            0.99989  -0.00120  -0.01452
           Y            0.00124   1.00000   0.00262
           Z            0.01452  -0.00263   0.99989
 This molecule is an asymmetric top.
 Rotational symmetry number  1.
 Warning -- assumption of classical behavior for rotation
           may cause significant error
 Rotational temperatures (Kelvin)      0.07275     0.01889     0.01748
 Rotational constants (GHZ):           1.51588     0.39353     0.36431
 Zero-point vibrational energy     472270.6 (Joules/Mol)
                                  112.87537 (Kcal/Mol)
 Warning -- explicit consideration of  16 degrees of freedom as
           vibrations may cause significant error
 Vibrational temperatures:     46.58    87.41   147.23   189.22   237.34
          (Kelvin)            280.72   318.37   343.63   405.69   465.65
                              599.99   650.11   690.70   761.16   793.77
                              838.03   898.23   921.71  1017.21  1081.87
                             1130.38  1139.42  1193.69  1237.56  1299.72
                             1329.42  1363.87  1422.02  1440.87  1453.74
                             1518.17  1537.16  1582.15  1636.92  1703.18
                             1704.55  1743.76  1820.62  1845.45  1902.41
                             1944.32  1956.90  1978.03  2001.87  2056.07
                             2057.65  2143.99  2173.72  2185.21  2192.40
                             2202.29  2310.00  2373.69  2684.51  4424.70
                             4427.83  4532.79  4578.76  4592.95  4686.50
                             5000.92  5151.40  5166.02

 Zero-point correction=                           0.179878 (Hartree/Particle)
 Thermal correction to Energy=                    0.191522
 Thermal correction to Enthalpy=                  0.192466
 Thermal correction to Gibbs Free Energy=         0.140902
 Sum of electronic and zero-point Energies=           -696.208535
 Sum of electronic and thermal Energies=              -696.196891
 Sum of electronic and thermal Enthalpies=            -696.195947
 Sum of electronic and thermal Free Energies=         -696.247512

                     E (Thermal)             CV                S
                      KCal/Mol        Cal/Mol-Kelvin    Cal/Mol-Kelvin
 Total                  120.182             43.808            108.526
 Electronic               0.000              0.000              0.000
 Translational            0.889              2.981             41.710
 Rotational               0.889              2.981             31.670
 Vibrational            118.404             37.846             35.146
 Vibration     1          0.594              1.983              5.678
 Vibration     2          0.597              1.973              4.433
 Vibration     3          0.604              1.947              3.410
 Vibration     4          0.612              1.922              2.924
 Vibration     5          0.623              1.886              2.492
 Vibration     6          0.636              1.847              2.179
 Vibration     7          0.648              1.809              1.949
 Vibration     8          0.657              1.781              1.812
 Vibration     9          0.681              1.707              1.522
 Vibration    10          0.708              1.628              1.292
 Vibration    11          0.780              1.433              0.902
 Vibration    12          0.811              1.357              0.790
 Vibration    13          0.836              1.294              0.710
 Vibration    14          0.884              1.186              0.589
 Vibration    15          0.907              1.136              0.541
 Vibration    16          0.939              1.069              0.481

                           ! Non-Optimized Parameters !
 Normal termination of Gaussian 16 at Thu Dec 10 10:53:10 2020.

 ----------------------------------------------------------------------
 # B3LYP/6-311++G(d,p) empiricaldispersion=gd3bj scf=xqc pop=npa geom=c
 heck
 ----------------------------------------------------------------------

 ---------------------------------------
 CID_130172145_JID_4890_Energie_neutraal
 ---------------------------------------
 Structure from the checkpoint file:  "JID_4890.chk"
 Charge =  0 Multiplicity = 1

 SCF Done:  E(RB3LYP) =  -696.592294790     A.U. after   15 cycles
 Normal termination of Gaussian 16 at Thu Dec 10 10:55:24 2020.

 ----------------------------------------------------------------------
 # B3LYP/6-311++G(d,p) empiricaldispersion=gd3bj scf=xqc pop=npa geom=c
 heck
 ----------------------------------------------------------------------

 -------------------------------------
 CID_130172145_JID_4890_Energie_kation
 -------------------------------------
 Structure from the checkpoint file:  "JID_4890.chk"
 Charge =  1 Multiplicity = 2

 SCF Done:  E(UB3LYP) =  -696.259304365     A.U. after   32 cycles
 Normal termination of Gaussian 16 at Thu Dec 10 11:01:59 2020.
 Gaussian 16:  ES64L-G16RevA.03 25-Dec-2016

 ----------------------------------------------------------------------
 # B3LYP/6-311++G(d,p) empiricaldispersion=gd3bj scf=xqc pop=npa geom=c
 heck
 ----------------------------------------------------------------------

 ------------------------------------
 CID_130172145_JID_4890_Energie_anion
 ------------------------------------
 Structure from the checkpoint file:  "JID_4890.chk"
 Charge = -1 Multiplicity = 2

                         Standard orientation:
 ---------------------------------------------------------------------
 Center     Atomic      Atomic             Coordinates (Angstroms)
 Number     Number       Type             X           Y           Z
 ---------------------------------------------------------------------
      1          6           0        4.340793   -0.717779   -0.645062
      2          8           0        3.057957   -1.171436   -0.187915
      3          6           0        2.120660   -0.239714    0.025873
      4          7           0        2.403205    1.045688   -0.181079
      5          6           0        1.404937    1.908945    0.050176
      6          7           0        0.174005    1.621865    0.458633
      7          6           0       -0.085844    0.311779    0.664934
      8          6           0        0.857601   -0.676438    0.465234
      9          6           0       -1.500833    0.009313    1.140256
     10          7           0       -2.490863    0.778109    0.388421
     11          6           0       -2.870503    0.000038   -0.706736
     12          8           0       -3.329793    0.375611   -1.764000
     13          7           0       -2.630572   -1.340051   -0.340886
     14          7           0       -1.895432   -1.388747    0.890786
     15          1           0        4.938841   -1.622870   -0.753635
     16          1           0        4.794137   -0.040413    0.083260
     17          1           0        4.249050   -0.198434   -1.602485
     18          1           0        1.632550    2.959222   -0.119253
     19          1           0        0.636129   -1.723088    0.627085
     20          1           0       -1.567277    0.215111    2.214165
     21          1           0       -2.235933    1.733589    0.162392
     22          1           0       -2.219276   -1.902255   -1.077718
     23          1           0       -2.576799   -1.649167    1.602337
 ---------------------------------------------------------------------

 SCF Done:  E(UB3LYP) =  -696.591713118     A.U. after   33 cycles
 SCF Done:  E(UB3LYP) =  -696.591713118     a.u. after    1 cycles

 The electronic state is 2-A.
 Alpha  occ. eigenvalues --  -19.05142 -18.98312 -14.24146 -14.22840 -14.21262
 Alpha  occ. eigenvalues --  -14.17948 -14.17110 -10.18362 -10.14482 -10.12508
 Alpha  occ. eigenvalues --  -10.12101 -10.10341 -10.06801 -10.03912  -0.97576
 Alpha  occ. eigenvalues --   -0.95369  -0.89388  -0.84819  -0.78955  -0.75167
 Alpha  occ. eigenvalues --   -0.70368  -0.66492  -0.61352  -0.56072  -0.52781
 Alpha  occ. eigenvalues --   -0.50637  -0.48432  -0.42896  -0.41816  -0.41359
 Alpha  occ. eigenvalues --   -0.38100  -0.37313  -0.36051  -0.34866  -0.33497
 Alpha  occ. eigenvalues --   -0.33081  -0.32410  -0.31337  -0.29851  -0.29231
 Alpha  occ. eigenvalues --   -0.27527  -0.24995  -0.23832  -0.20792  -0.17536
 Alpha  occ. eigenvalues --   -0.17449  -0.16593  -0.14924  -0.13939  -0.13518
 Alpha  occ. eigenvalues --   -0.12806   0.04853
 Alpha virt. eigenvalues --    0.07110   0.08381   0.09567   0.09905   0.10159
 Alpha virt. eigenvalues --    0.10739   0.11257   0.11552   0.11781   0.13134
 Alpha virt. eigenvalues --    0.13830   0.14158   0.15659   0.15997   0.16639

  Beta  occ. eigenvalues --  -19.05123 -18.98312 -14.24146 -14.22791 -14.21238
  Beta  occ. eigenvalues --  -14.18019 -14.16792 -10.18363 -10.14470 -10.12507
  Beta  occ. eigenvalues --  -10.12117 -10.10229 -10.06393 -10.03809  -0.97520
  Beta  occ. eigenvalues --   -0.95350  -0.89344  -0.84507  -0.78859  -0.74816
  Beta  occ. eigenvalues --   -0.70267  -0.66178  -0.61154  -0.55809  -0.52613
  Beta  occ. eigenvalues --   -0.50606  -0.48173  -0.42737  -0.41674  -0.41248
  Beta  occ. eigenvalues --   -0.38044  -0.37179  -0.35964  -0.34704  -0.33315
  Beta  occ. eigenvalues --   -0.32909  -0.32326  -0.31245  -0.29480  -0.28902
  Beta  occ. eigenvalues --   -0.27326  -0.24925  -0.23507  -0.20715  -0.17257
  Beta  occ. eigenvalues --   -0.16979  -0.15631  -0.14830  -0.13809  -0.12769
  Beta  occ. eigenvalues --   -0.12595
  Beta virt. eigenvalues --    0.07011   0.08707   0.09481   0.09717   0.10376
  Beta virt. eigenvalues --    0.10861   0.11179   0.11501   0.11822   0.12168
  Beta virt. eigenvalues --    0.13232   0.13830   0.14260   0.15716   0.15998

 Mulliken charges and spin densities:
               1          2
     1  C   -0.236622  -0.063085
     2  O   -0.158479   0.004605
     3  C   -0.354261  -0.219100
     4  N   -0.196487   0.134884
     5  C   -0.153843   0.251165
     6  N   -0.181264   0.028153
     7  C    0.138056   0.756701
     8  C    0.072754   0.363389
     9  C    0.484537  -2.263474
    10  N   -0.112597   0.142269
    11  C    0.300189  -0.166467
    12  O   -0.407903   0.012069
    13  N   -0.184089   0.113729
    14  N   -0.029567  -0.060035
    15  H    0.106823   0.021902
    16  H    0.143676   0.028267
    17  H    0.156174   0.014344
    18  H    0.123117   0.030300
    19  H    0.105229   0.137345
    20  H   -0.963194   1.227089
    21  H    0.265919   0.036323
    22  H    0.276666   0.000527
    23  H   -0.194835   0.469100
 Sum of Mulliken charges =  -1.00000   1.00000

 Dipole moment (field-independent basis, Debye):
    X=              5.7610    Y=             -0.8672    Z=             -3.4858  Tot=              6.7890
 Quadrupole moment (field-independent basis, Debye-Ang):
   XX=           -126.5297   YY=            -99.0132   ZZ=           -112.8459
   XY=             -2.2656   XZ=              0.1857   YZ=              5.3733

 Summary of Natural Population Analysis:

                                       Natural Population
                Natural  -----------------------------------------------
    Atom  No    Charge         Core      Valence    Rydberg      Total
 -----------------------------------------------------------------------
      C    1   -0.10224      0.99960     2.09452    0.00813     3.10224
      O    2   -0.27200      0.99985     3.26325    0.00890     4.27200
      C    3    0.28273      0.99948     1.70030    0.01749     2.71727
      N    4   -0.25621      0.99966     2.74637    0.01018     3.75621
      C    5    0.16485      0.99968     1.81665    0.01882     2.83515
      N    6   -0.28784      0.99968     2.77795    0.01021     3.78784
      C    7    0.17118      0.99951     1.81542    0.01389     2.82882
      C    8   -0.14449      0.99945     2.13516    0.00988     3.14449
      C    9    0.06797      0.99959     1.91482    0.01763     2.93203
      N   10   -0.33598      0.99968     2.82583    0.01047     3.83598
      C   11    0.40215      0.99971     1.57303    0.02511     2.59785
      O   12   -0.32654      0.99987     3.32111    0.00556     4.32654
      N   13   -0.25628      0.99969     2.74406    0.01253     3.75628
      N   14   -0.24133      0.99975     2.72662    0.01496     3.74133
      H   15    0.08408      0.00000     0.41506    0.00086     0.41592
      H   16    0.08960      0.00000     0.40893    0.00147     0.41040
      H   17    0.08917      0.00000     0.40950    0.00133     0.41083
      H   18    0.07428      0.00000     0.42469    0.00104     0.42572
      H   19    0.11377      0.00000     0.38445    0.00177     0.38623
      H   20    0.11091      0.00000     0.37891    0.01018     0.38909
      H   21    0.20552      0.00000     0.29243    0.00205     0.29448
      H   22    0.18852      0.00000     0.30990    0.00159     0.31148
      H   23    0.17819      0.00000     0.31642    0.00539     0.32181
 =======================================================================
   * Total *   -0.00000     13.99519    36.79538    0.20943    51.00000

 Normal termination of Gaussian 16 at Thu Dec 10 11:07:39 2020.
