 Gaussian 16, Revision A.03,

 -----------------------------------------------------------
 # opt freq B3LYP/6-31G(d) empiricaldispersion=gd3bj scf=xqc
 -----------------------------------------------------------

 -------------------------------
 CID_84204964_JID_10074_neutraal
 -------------------------------
 Symbolic Z-matrix:
 Charge =  0 Multiplicity = 1

 SCF Done:  E(RB3LYP) =  -844.636969445     A.U. after   14 cycles
 SCF Done:  E(RB3LYP) =  -844.643084388     A.U. after   12 cycles
 SCF Done:  E(RB3LYP) =  -844.643835407     A.U. after   11 cycles
 SCF Done:  E(RB3LYP) =  -844.644282347     A.U. after   11 cycles
 SCF Done:  E(RB3LYP) =  -844.644437609     A.U. after   11 cycles
 SCF Done:  E(RB3LYP) =  -844.644548701     A.U. after   11 cycles
 SCF Done:  E(RB3LYP) =  -844.644646803     A.U. after   11 cycles
 SCF Done:  E(RB3LYP) =  -844.644729848     A.U. after   11 cycles
 SCF Done:  E(RB3LYP) =  -844.644771601     A.U. after   11 cycles
 SCF Done:  E(RB3LYP) =  -844.644837853     A.U. after   11 cycles
 SCF Done:  E(RB3LYP) =  -844.651807970     A.U. after    9 cycles
 SCF Done:  E(RB3LYP) =  -844.651809636     A.U. after    9 cycles
 SCF Done:  E(RB3LYP) =  -844.651809610     A.U. after    9 cycles
 SCF Done:  E(RB3LYP) =  -844.651809818     A.U. after    9 cycles
 SCF Done:  E(RB3LYP) =  -844.651809890     A.U. after    7 cycles
 Optimization completed.
    -- Stationary point found.
 Normal termination of Gaussian 16 at Mon Dec 14 14:00:06 2020.

 --------------------------------------------------------------------
 #N Geom=AllCheck Guess=TCheck SCRF=Check GenChk RB3LYP/6-31G(d) Freq
 --------------------------------------------------------------------

 Structure from the checkpoint file:  "JID_10074.chk"
 -------------------------------
 CID_84204964_JID_10074_neutraal
 -------------------------------
 Charge =  0 Multiplicity = 1

 SCF Done:  E(RB3LYP) =  -844.651809890     A.U. after    1 cycles

  Exact polarizability: 214.558 -18.546 192.701  -2.098  -0.011 162.009
 Approx polarizability: 271.206 -32.051 333.405 -10.025  -3.933 272.871

                      1                      2                      3
                      A                      A                      A
 Frequencies --     23.4517                32.5831                41.4179
 Red. masses --      4.4020                 4.1122                 3.9865
 Frc consts  --      0.0014                 0.0026                 0.0040
 IR Inten    --      0.5849                 0.0461                 0.5308

                      4                      5                      6
                      A                      A                      A
 Frequencies --     72.1216                83.6979               113.2264
 Red. masses --      3.5852                 4.6281                 3.3731
 Frc consts  --      0.0110                 0.0191                 0.0255
 IR Inten    --      0.2697                 0.4125                 0.3287

                      7                      8                      9
                      A                      A                      A
 Frequencies --    129.6373               173.9312               184.5501
 Red. masses --      2.4718                 2.5213                 3.9154
 Frc consts  --      0.0245                 0.0449                 0.0786
 IR Inten    --      0.0822                 0.1151                 2.8787

                     10                     11                     12
                      A                      A                      A
 Frequencies --    210.6975               236.4953               243.6029
 Red. masses --      1.3611                 2.7906                 3.7912
 Frc consts  --      0.0356                 0.0920                 0.1326
 IR Inten    --      1.2575                 0.3823                 6.1329

                     13                     14                     15
                      A                      A                      A
 Frequencies --    288.0995               315.3290               323.9874
 Red. masses --      2.1096                 3.6195                 1.5699
 Frc consts  --      0.1032                 0.2120                 0.0971
 IR Inten    --      4.5242                 1.5212                13.2627

                     16                     17                     18
                      A                      A                      A
 Frequencies --    334.2860               364.8879               402.4081
 Red. masses --      3.8629                 2.6259                 1.9341
 Frc consts  --      0.2543                 0.2060                 0.1845
 IR Inten    --      3.6669                10.5322                 2.7391

                     19                     20                     21
                      A                      A                      A
 Frequencies --    419.2095               430.6952               475.9528
 Red. masses --      4.2954                 3.2284                 3.7119
 Frc consts  --      0.4448                 0.3528                 0.4954
 IR Inten    --      7.6387                 0.4452                 5.3364

                     22                     23                     24
                      A                      A                      A
 Frequencies --    486.6277               503.9873               527.1283
 Red. masses --      3.7962                 4.4338                 3.4285
 Frc consts  --      0.5297                 0.6635                 0.5613
 IR Inten    --      7.1906                 1.0064                 6.8388

                     25                     26                     27
                      A                      A                      A
 Frequencies --    550.0027               557.1461               568.8131
 Red. masses --      3.0560                 3.8563                 3.7692
 Frc consts  --      0.5447                 0.7053                 0.7185
 IR Inten    --      5.3343                 3.5547                15.4423

                     28                     29                     30
                      A                      A                      A
 Frequencies --    603.5144               643.8638               654.9958
 Red. masses --      4.1291                 4.8614                 6.3102
 Frc consts  --      0.8861                 1.1874                 1.5950
 IR Inten    --      8.1429                 8.3217                 0.5935

                     31                     32                     33
                      A                      A                      A
 Frequencies --    676.2214               722.9613               729.5486
 Red. masses --      4.1584                 3.7391                 4.0075
 Frc consts  --      1.1204                 1.1514                 1.2567
 IR Inten    --      1.3977                 0.4871                17.2905

                     34                     35                     36
                      A                      A                      A
 Frequencies --    757.3145               769.5552               783.4017
 Red. masses --      1.2905                 3.3955                 2.6706
 Frc consts  --      0.4361                 1.1848                 0.9657
 IR Inten    --     27.4341                 9.1644                49.5177

                     37                     38                     39
                      A                      A                      A
 Frequencies --    823.8937               827.5742               835.3955
 Red. masses --      1.4391                 1.2507                 1.6327
 Frc consts  --      0.5755                 0.5047                 0.6713
 IR Inten    --      6.9785                14.6226                96.5340

                     40                     41                     42
                      A                      A                      A
 Frequencies --    847.5715               859.8050               867.5801
 Red. masses --      2.0091                 1.5907                 2.1248
 Frc consts  --      0.8504                 0.6928                 0.9423
 IR Inten    --     77.2463                 8.3435                 5.1508

                     43                     44                     45
                      A                      A                      A
 Frequencies --    878.0396               920.7012               925.7297
 Red. masses --      1.6466                 2.3971                 1.2279
 Frc consts  --      0.7479                 1.1972                 0.6200
 IR Inten    --     46.1665                 9.5829                 1.0963

                     46                     47                     48
                      A                      A                      A
 Frequencies --    937.0572               944.6174               977.4881
 Red. masses --      1.8725                 1.4179                 1.2969
 Frc consts  --      0.9687                 0.7454                 0.7301
 IR Inten    --      3.0203                 1.2433                 0.4040

                     49                     50                     51
                      A                      A                      A
 Frequencies --   1007.8583              1013.7213              1036.1533
 Red. masses --      2.4707                 3.0344                 2.8550
 Frc consts  --      1.4787                 1.8372                 1.8059
 IR Inten    --      5.0511                 1.2954                 2.2524

                     52                     53                     54
                      A                      A                      A
 Frequencies --   1051.3892              1076.6442              1083.1747
 Red. masses --      3.5658                 3.9812                 1.8709
 Frc consts  --      2.3224                 2.7190                 1.2933
 IR Inten    --      5.1804                51.1869                 2.8891

                     55                     56                     57
                      A                      A                      A
 Frequencies --   1091.6415              1128.9840              1132.9455
 Red. masses --      1.8400                 2.4529                 2.1974
 Frc consts  --      1.2919                 1.8421                 1.6618
 IR Inten    --     17.1875                43.5144                36.5732

                     58                     59                     60
                      A                      A                      A
 Frequencies --   1153.8470              1160.0218              1195.2025
 Red. masses --      1.3443                 1.5673                 1.2337
 Frc consts  --      1.0545                 1.2426                 1.0384
 IR Inten    --      4.3601                 1.1600                 8.5673

                     61                     62                     63
                      A                      A                      A
 Frequencies --   1205.1273              1210.4571              1215.0252
 Red. masses --      1.6379                 1.2689                 1.1844
 Frc consts  --      1.4015                 1.0954                 1.0302
 IR Inten    --      9.6951                24.2467                48.8358

                     64                     65                     66
                      A                      A                      A
 Frequencies --   1233.1902              1239.3199              1247.7679
 Red. masses --      2.9344                 1.4609                 2.0588
 Frc consts  --      2.6292                 1.3220                 1.8885
 IR Inten    --      7.6267                10.9624                60.2549

                     67                     68                     69
                      A                      A                      A
 Frequencies --   1283.7135              1297.5959              1319.1471
 Red. masses --      3.0074                 1.6202                 1.8410
 Frc consts  --      2.9199                 1.6073                 1.8875
 IR Inten    --    259.2139                16.5549                27.5713

                     70                     71                     72
                      A                      A                      A
 Frequencies --   1332.3783              1333.7832              1345.7785
 Red. masses --      1.5632                 1.7119                 1.7195
 Frc consts  --      1.6350                 1.7943                 1.8348
 IR Inten    --     18.2647                 5.7789                50.8890

                     73                     74                     75
                      A                      A                      A
 Frequencies --   1355.5666              1383.2919              1388.1505
 Red. masses --      1.5688                 2.1394                 3.4570
 Frc consts  --      1.6984                 2.4120                 3.9248
 IR Inten    --     66.8776                26.2804                14.6929

                     76                     77                     78
                      A                      A                      A
 Frequencies --   1399.5232              1421.1363              1435.9866
 Red. masses --      1.2637                 1.2761                 1.7316
 Frc consts  --      1.4583                 1.5185                 2.1038
 IR Inten    --     16.6051                 0.1643                 6.0518

                     79                     80                     81
                      A                      A                      A
 Frequencies --   1443.2364              1474.8767              1500.4379
 Red. masses --      1.3000                 2.7156                 1.3678
 Frc consts  --      1.5954                 3.4804                 1.8143
 IR Inten    --     27.8595                 1.7444                 4.6125

                     82                     83                     84
                      A                      A                      A
 Frequencies --   1510.9389              1516.5428              1522.2986
 Red. masses --      1.3518                 1.0441                 1.5119
 Frc consts  --      1.8183                 1.4149                 2.0643
 IR Inten    --     36.8494                 4.6091                20.8860

                     85                     86                     87
                      A                      A                      A
 Frequencies --   1532.2472              1535.3021              1546.8600
 Red. masses --      1.0522                 2.7468                 1.1138
 Frc consts  --      1.4554                 3.8148                 1.5702
 IR Inten    --      2.6879                54.3950                 7.3980

                     88                     89                     90
                      A                      A                      A
 Frequencies --   1549.8954              1564.4652              1634.6452
 Red. masses --      1.1315                 2.3794                 6.3601
 Frc consts  --      1.6014                 3.4312                10.0129
 IR Inten    --      3.2442               129.4857                11.4154

                     91                     92                     93
                      A                      A                      A
 Frequencies --   1657.6354              1659.2205              1675.6474
 Red. masses --      5.7762                 4.8875                 5.7205
 Frc consts  --      9.3512                 7.9277                 9.4634
 IR Inten    --     19.7226                18.1782                81.1422

                     94                     95                     96
                      A                      A                      A
 Frequencies --   1693.9659              3030.0800              3035.3608
 Red. masses --      1.2310                 1.0682                 1.0671
 Frc consts  --      2.0812                 5.7786                 5.7924
 IR Inten    --     68.6863                30.8523                37.2800

                     97                     98                     99
                      A                      A                      A
 Frequencies --   3045.0757              3060.7746              3064.5179
 Red. masses --      1.0674                 1.0365                 1.0706
 Frc consts  --      5.8316                 5.7210                 5.9241
 IR Inten    --     41.1073                18.1917                50.8295

                    100                    101                    102
                      A                      A                      A
 Frequencies --   3086.9036              3098.4266              3109.6643
 Red. masses --      1.0939                 1.0999                 1.0982
 Frc consts  --      6.1413                 6.2215                 6.2568
 IR Inten    --     47.7398                34.0753                19.5651

                    103                    104                    105
                      A                      A                      A
 Frequencies --   3129.7009              3145.5909              3151.5372
 Red. masses --      1.1010                 1.1032                 1.0933
 Frc consts  --      6.3540                 6.4315                 6.3981
 IR Inten    --     31.2822                41.4643                 9.3556

                    106                    107                    108
                      A                      A                      A
 Frequencies --   3163.6813              3170.9236              3186.5980
 Red. masses --      1.0878                 1.0890                 1.0884
 Frc consts  --      6.4150                 6.4514                 6.5115
 IR Inten    --     17.9501                17.5614                13.8213

                    109                    110                    111
                      A                      A                      A
 Frequencies --   3206.0619              3206.5327              3221.8909
 Red. masses --      1.0957                 1.0883                 1.0941
 Frc consts  --      6.6356                 6.5928                 6.6918
 IR Inten    --     29.1971                 5.3971                 4.7734

                    112                    113                    114
                      A                      A                      A
 Frequencies --   3225.9578              3498.8197              3591.9238
 Red. masses --      1.0909                 1.0494                 1.0948
 Frc consts  --      6.6890                 7.5686                 8.3224
 IR Inten    --     18.2330                 2.4856                 4.6203

 - Thermochemistry -
 -------------------
 Temperature   298.150 Kelvin.  Pressure   1.00000 Atm.
 Atom     1 has atomic number  6 and mass  12.00000

 Molecular mass:   268.15756 amu.
 Principal axes and moments of inertia in atomic units:
                           1         2         3
     Eigenvalues --  2769.199989955.57866**********
           X            0.99999  -0.00428  -0.00188
           Y            0.00438   0.99852   0.05425
           Z            0.00165  -0.05426   0.99853
 This molecule is an asymmetric top.
 Rotational symmetry number  1.
 Warning -- assumption of classical behavior for rotation
           may cause significant error
 Rotational temperatures (Kelvin)      0.03128     0.00870     0.00839
 Rotational constants (GHZ):           0.65172     0.18128     0.17487
 Zero-point vibrational energy     899038.9 (Joules/Mol)
                                  214.87545 (Kcal/Mol)
 Warning -- explicit consideration of  28 degrees of freedom as
           vibrations may cause significant error
 Vibrational temperatures:     33.74    46.88    59.59   103.77   120.42
          (Kelvin)            162.91   186.52   250.25   265.53   303.15
                              340.26   350.49   414.51   453.69   466.15
                              480.96   524.99   578.98   603.15   619.67
                              684.79   700.15   725.13   758.42   791.33
                              801.61   818.40   868.32   926.38   942.39
                              972.93  1040.18  1049.66  1089.61  1107.22
                             1127.14  1185.40  1190.69  1201.95  1219.47
                             1237.07  1248.25  1263.30  1324.68  1331.92
                             1348.22  1359.09  1406.39  1450.08  1458.52
                             1490.79  1512.71  1549.05  1558.45  1570.63
                             1624.36  1630.06  1660.13  1669.01  1719.63
                             1733.91  1741.58  1748.15  1774.29  1783.10
                             1795.26  1846.98  1866.95  1897.96  1917.00
                             1919.02  1936.28  1950.36  1990.25  1997.24
                             2013.60  2044.70  2066.06  2076.50  2122.02
                             2158.80  2173.90  2181.97  2190.25  2204.56
                             2208.96  2225.59  2229.95  2250.92  2351.89
                             2384.97  2387.25  2410.88  2437.24  4359.61
                             4367.21  4381.18  4403.77  4409.16  4441.37
                             4457.94  4474.11  4502.94  4525.80  4534.36
                             4551.83  4562.25  4584.80  4612.81  4613.49
                             4635.58  4641.43  5034.02  5167.98

 Zero-point correction=                           0.342426 (Hartree/Particle)
 Thermal correction to Energy=                    0.360124
 Thermal correction to Enthalpy=                  0.361068
 Thermal correction to Gibbs Free Energy=         0.295688
 Sum of electronic and zero-point Energies=           -844.309384
 Sum of electronic and thermal Energies=              -844.291686
 Sum of electronic and thermal Enthalpies=            -844.290742
 Sum of electronic and thermal Free Energies=         -844.356122

                     E (Thermal)             CV                S
                      KCal/Mol        Cal/Mol-Kelvin    Cal/Mol-Kelvin
 Total                  225.981             70.358            137.605
 Electronic               0.000              0.000              0.000
 Translational            0.889              2.981             42.658
 Rotational               0.889              2.981             34.008
 Vibrational            224.204             64.397             60.938
 Vibration     1          0.593              1.985              6.318
 Vibration     2          0.594              1.983              5.666
 Vibration     3          0.594              1.981              5.190
 Vibration     4          0.598              1.967              4.095
 Vibration     5          0.601              1.960              3.802
 Vibration     6          0.607              1.938              3.213
 Vibration     7          0.612              1.924              2.951
 Vibration     8          0.627              1.875              2.393
 Vibration     9          0.631              1.861              2.282
 Vibration    10          0.643              1.825              2.038
 Vibration    11          0.655              1.785              1.829
 Vibration    12          0.659              1.773              1.776
 Vibration    13          0.685              1.696              1.485
 Vibration    14          0.703              1.644              1.334
 Vibration    15          0.709              1.627              1.290
 Vibration    16          0.716              1.607              1.239
 Vibration    17          0.738              1.545              1.101
 Vibration    18          0.768              1.465              0.954
 Vibration    19          0.782              1.428              0.895
 Vibration    20          0.792              1.403              0.856
 Vibration    21          0.833              1.303              0.721
 Vibration    22          0.843              1.280              0.692
 Vibration    23          0.859              1.241              0.648
 Vibration    24          0.882              1.190              0.594
 Vibration    25          0.905              1.140              0.544
 Vibration    26          0.913              1.124              0.530
 Vibration    27          0.925              1.099              0.507
 Vibration    28          0.962              1.024              0.444

 Optimization completed.
    -- Stationary point found.
 Normal termination of Gaussian 16 at Mon Dec 14 14:24:10 2020.

 ----------------------------------------------------------------------
 # B3LYP/6-311++G(d,p) empiricaldispersion=gd3bj scf=xqc pop=npa geom=c
 heck
 ----------------------------------------------------------------------

 ---------------------------------------
 CID_84204964_JID_10074_Energie_neutraal
 ---------------------------------------
 Structure from the checkpoint file:  "JID_10074.chk"
 Charge =  0 Multiplicity = 1

 SCF Done:  E(RB3LYP) =  -844.878375147     A.U. after   15 cycles
 Normal termination of Gaussian 16 at Mon Dec 14 14:35:17 2020.

 ----------------------------------------------------------------------
 # B3LYP/6-311++G(d,p) empiricaldispersion=gd3bj scf=xqc pop=npa geom=c
 heck
 ----------------------------------------------------------------------

 -------------------------------------
 CID_84204964_JID_10074_Energie_kation
 -------------------------------------
 Structure from the checkpoint file:  "JID_10074.chk"
 Charge =  1 Multiplicity = 2

 SCF Done:  E(UB3LYP) =  -844.632677464     A.U. after   24 cycles
 Normal termination of Gaussian 16 at Mon Dec 14 15:00:51 2020.
 Gaussian 16:  ES64L-G16RevA.03 25-Dec-2016

 ----------------------------------------------------------------------
 # B3LYP/6-311++G(d,p) empiricaldispersion=gd3bj scf=xqc pop=npa geom=c
 heck
 ----------------------------------------------------------------------

 ------------------------------------
 CID_84204964_JID_10074_Energie_anion
 ------------------------------------
 Structure from the checkpoint file:  "JID_10074.chk"
 Charge = -1 Multiplicity = 2

                         Standard orientation:
 ---------------------------------------------------------------------
 Center     Atomic      Atomic             Coordinates (Angstroms)
 Number     Number       Type             X           Y           Z
 ---------------------------------------------------------------------
      1          6           0        5.964614    0.108600    0.007881
      2          6           0        5.047975    0.425988   -1.168217
      3          8           0        3.895470    1.169592   -0.774736
      4          6           0        2.855347    0.522393   -0.168672
      5          6           0        2.772132   -0.859155    0.032964
      6          6           0        1.636516   -1.395492    0.646309
      7          6           0        0.577285   -0.590644    1.068783
      8          6           0        0.684853    0.795601    0.870795
      9          6           0        1.804171    1.345094    0.262252
     10          6           0       -0.670713   -1.188823    1.683267
     11          7           0       -1.805907   -1.361386    0.753311
     12          6           0       -1.529835   -2.331166   -0.333302
     13          6           0       -2.471345   -1.940313   -1.488738
     14          6           0       -2.785770   -0.496242   -1.175476
     15          6           0       -2.422863   -0.239454    0.154509
     16          6           0       -2.779711    0.982383    0.753054
     17          6           0       -3.378432    1.956712   -0.058872
     18          6           0       -3.671958    1.718124   -1.400772
     19          6           0       -3.403136    0.466310   -1.962082
     20          7           0       -2.504516    1.239426    2.118843
     21          1           0        6.270645    1.034069    0.505533
     22          1           0        6.863461   -0.411260   -0.342936
     23          1           0        5.465980   -0.525849    0.746271
     24          1           0        5.558926    1.075799   -1.884181
     25          1           0        4.748296   -0.483541   -1.705022
     26          1           0        3.572349   -1.522356   -0.272829
     27          1           0        1.587280   -2.470527    0.806789
     28          1           0       -0.116120    1.441824    1.214748
     29          1           0        1.892882    2.415730    0.107306
     30          1           0       -0.448107   -2.185567    2.081223
     31          1           0       -0.997332   -0.567957    2.517684
     32          1           0       -0.485007   -2.238263   -0.659731
     33          1           0       -1.684921   -3.352984    0.028529
     34          1           0       -2.006992   -2.088866   -2.468961
     35          1           0       -3.391878   -2.539489   -1.469238
     36          1           0       -3.630169    2.917350    0.386779
     37          1           0       -4.136521    2.498819   -1.995667
     38          1           0       -3.665052    0.251255   -2.994449
     39          1           0       -2.809112    0.475204    2.715789
     40          1           0       -2.954186    2.094095    2.433069
 ---------------------------------------------------------------------

 SCF Done:  E(UB3LYP) =  -844.866174823     A.U. after   33 cycles
 SCF Done:  E(UB3LYP) =  -844.866174823     a.u. after    1 cycles

 The electronic state is 2-A.
 Alpha  occ. eigenvalues --  -19.06050 -14.23347 -14.22349 -10.14155 -10.13860
 Alpha  occ. eigenvalues --  -10.11819 -10.11008 -10.10923 -10.10763 -10.09122
 Alpha  occ. eigenvalues --  -10.08353 -10.08322 -10.07996 -10.07862 -10.07835
 Alpha  occ. eigenvalues --  -10.07784 -10.07739 -10.07718 -10.07686 -10.07600
 Alpha  occ. eigenvalues --   -0.97628  -0.86489  -0.81852  -0.76498  -0.74684
 Alpha  occ. eigenvalues --   -0.69963  -0.68468  -0.65812  -0.65428  -0.64018
 Alpha  occ. eigenvalues --   -0.62632  -0.58505  -0.55148  -0.53367  -0.52020
 Alpha  occ. eigenvalues --   -0.50521  -0.49611  -0.47917  -0.44375  -0.42400
 Alpha  occ. eigenvalues --   -0.40791  -0.40458  -0.39853  -0.39329  -0.37878
 Alpha  occ. eigenvalues --   -0.36809  -0.36518  -0.36388  -0.35708  -0.34058
 Alpha  occ. eigenvalues --   -0.33117  -0.32492  -0.31487  -0.30973  -0.30290
 Alpha  occ. eigenvalues --   -0.29686  -0.29458  -0.28326  -0.28054  -0.27655
 Alpha  occ. eigenvalues --   -0.27109  -0.26464  -0.25518  -0.25452  -0.23396
 Alpha  occ. eigenvalues --   -0.22715  -0.21299  -0.19768  -0.16294  -0.13308
 Alpha  occ. eigenvalues --   -0.13073  -0.10043   0.03879
 Alpha virt. eigenvalues --    0.05137   0.06141   0.06653   0.07299   0.07590
 Alpha virt. eigenvalues --    0.07805   0.08038   0.08279   0.08459   0.08662
 Alpha virt. eigenvalues --    0.08955   0.09668   0.10014   0.10232   0.10738

  Beta  occ. eigenvalues --  -19.06049 -14.23346 -14.22295 -10.14141 -10.13842
  Beta  occ. eigenvalues --  -10.11816 -10.11003 -10.10912 -10.10751 -10.09116
  Beta  occ. eigenvalues --  -10.08353 -10.08310 -10.07984 -10.07859 -10.07825
  Beta  occ. eigenvalues --  -10.07772 -10.07738 -10.07686 -10.07678 -10.07599
  Beta  occ. eigenvalues --   -0.97617  -0.86478  -0.81786  -0.76476  -0.74666
  Beta  occ. eigenvalues --   -0.69937  -0.68438  -0.65784  -0.65404  -0.63998
  Beta  occ. eigenvalues --   -0.62605  -0.58471  -0.55100  -0.53340  -0.51994
  Beta  occ. eigenvalues --   -0.50496  -0.49578  -0.47883  -0.44347  -0.42366
  Beta  occ. eigenvalues --   -0.40762  -0.40423  -0.39830  -0.39298  -0.37842
  Beta  occ. eigenvalues --   -0.36778  -0.36490  -0.36349  -0.35676  -0.34032
  Beta  occ. eigenvalues --   -0.33097  -0.32468  -0.31464  -0.30946  -0.30264
  Beta  occ. eigenvalues --   -0.29668  -0.29432  -0.28292  -0.28033  -0.27629
  Beta  occ. eigenvalues --   -0.27082  -0.26447  -0.25502  -0.25434  -0.23376
  Beta  occ. eigenvalues --   -0.22684  -0.21273  -0.19755  -0.16266  -0.13290
  Beta  occ. eigenvalues --   -0.13032  -0.10030
  Beta virt. eigenvalues --    0.05904   0.06314   0.06765   0.06925   0.07423
  Beta virt. eigenvalues --    0.07863   0.07968   0.08203   0.08618   0.08768
  Beta virt. eigenvalues --    0.08853   0.09077   0.09788   0.10319   0.10580

 Mulliken charges and spin densities:
               1          2
     1  C    0.681523  -1.052132
     2  C   -0.275840   0.030236
     3  O   -0.115443   0.015754
     4  C   -0.103240  -0.370062
     5  C    0.860184  -0.966546
     6  C   -0.063192  -0.127504
     7  C    1.121553  -0.224334
     8  C   -0.537384   0.314778
     9  C   -0.783204   0.541950
    10  C   -0.786153  -0.142683
    11  N    0.340526  -0.056846
    12  C    0.059561  -0.259272
    13  C    0.070084  -0.621721
    14  C    0.419358   0.022224
    15  C    0.349368   0.241406
    16  C   -0.425217   0.023815
    17  C    0.488331  -0.612017
    18  C   -0.011100  -0.406190
    19  C   -0.672351  -0.049281
    20  N   -0.385815   0.061558
    21  H    0.061519   0.083546
    22  H   -0.447131   0.582058
    23  H   -0.041255   0.176206
    24  H   -0.207545   0.391667
    25  H   -0.035086   0.164142
    26  H   -0.289541   0.510930
    27  H   -0.299951   0.455926
    28  H    0.257912  -0.045366
    29  H    0.085372   0.101446
    30  H   -0.128223   0.322545
    31  H    0.040338   0.097837
    32  H    0.315397  -0.193420
    33  H   -0.132418   0.302511
    34  H    0.038902   0.130386
    35  H    0.082934   0.077141
    36  H   -0.329156   0.470242
    37  H    0.116520   0.021951
    38  H    0.093934   0.040725
    39  H   -0.201233   0.465576
    40  H   -0.212840   0.480817
 Sum of Mulliken charges =  -1.00000   1.00000

 Dipole moment (field-independent basis, Debye):
    X=             -3.5083    Y=             -0.2857    Z=             -3.0326  Tot=              4.6461
 Quadrupole moment (field-independent basis, Debye-Ang):
   XX=           -232.0672   YY=           -162.5038   ZZ=           -158.6092
   XY=             13.3317   XZ=             18.3169   YZ=             -3.3793

 Summary of Natural Population Analysis:

                                       Natural Population
                Natural  -----------------------------------------------
    Atom  No    Charge         Core      Valence    Rydberg      Total
 -----------------------------------------------------------------------
      C    1   -0.30088      0.99966     2.29640    0.00481     3.30088
      C    2   -0.01213      0.99958     2.00025    0.01230     3.01213
      O    3   -0.27781      0.99986     3.26870    0.00926     4.27781
      C    4    0.16230      0.99938     1.82494    0.01338     2.83770
      C    5   -0.14611      0.99952     2.13795    0.00865     3.14611
      C    6   -0.09054      0.99952     2.08103    0.00998     3.09054
      C    7   -0.04413      0.99949     2.03541    0.00923     3.04413
      C    8   -0.08765      0.99952     2.07930    0.00883     3.08765
      C    9   -0.11782      0.99953     2.10990    0.00839     3.11782
      C   10   -0.09169      0.99956     2.07938    0.01274     3.09169
      N   11   -0.25467      0.99968     2.74247    0.01252     3.75467
      C   12   -0.08004      0.99962     2.07068    0.00974     3.08004
      C   13   -0.19720      0.99961     2.19067    0.00693     3.19720
      C   14   -0.02337      0.99948     2.01587    0.00801     3.02337
      C   15    0.07637      0.99938     1.91137    0.01288     2.92363
      C   16    0.06449      0.99943     1.92418    0.01190     2.93551
      C   17   -0.11796      0.99953     2.10833    0.01010     3.11796
      C   18   -0.10979      0.99957     2.10087    0.00934     3.10979
      C   19   -0.11453      0.99951     2.10579    0.00922     3.11453
      N   20   -0.40405      0.99973     2.89269    0.01163     3.90405
      H   21    0.10007      0.00000     0.39901    0.00091     0.39993
      H   22    0.10395      0.00000     0.39426    0.00180     0.39605
      H   23    0.10272      0.00000     0.39599    0.00129     0.39728
      H   24    0.09097      0.00000     0.40779    0.00124     0.40903
      H   25    0.08427      0.00000     0.41410    0.00164     0.41573
      H   26    0.10526      0.00000     0.39289    0.00186     0.39474
      H   27    0.10015      0.00000     0.39862    0.00123     0.39985
      H   28    0.11193      0.00000     0.38616    0.00191     0.38807
      H   29    0.10433      0.00000     0.39434    0.00133     0.39567
      H   30    0.09747      0.00000     0.40121    0.00132     0.40253
      H   31    0.10733      0.00000     0.39074    0.00192     0.39267
      H   32    0.09316      0.00000     0.40507    0.00177     0.40684
      H   33    0.09473      0.00000     0.40399    0.00127     0.40527
      H   34    0.10367      0.00000     0.39528    0.00105     0.39633
      H   35    0.10010      0.00000     0.39861    0.00129     0.39990
      H   36    0.09955      0.00000     0.39940    0.00104     0.40045
      H   37    0.09759      0.00000     0.40167    0.00074     0.40241
      H   38    0.09804      0.00000     0.40111    0.00085     0.40196
      H   39    0.18572      0.00000     0.31115    0.00313     0.31428
      H   40    0.18618      0.00000     0.30960    0.00422     0.31382
 =======================================================================
   * Total *    0.00000     19.99116    51.77718    0.23166    72.00000

 Normal termination of Gaussian 16 at Mon Dec 14 15:35:48 2020.
