 Gaussian 16, Revision A.03,

 -----------------------------------------------------------
 # opt freq B3LYP/6-31G(d) empiricaldispersion=gd3bj scf=xqc
 -----------------------------------------------------------

 ----------------------------
 CID_608844_JID_9279_neutraal
 ----------------------------
 Symbolic Z-matrix:
 Charge =  0 Multiplicity = 1

 SCF Done:  E(RB3LYP) =  -923.939239227     A.U. after   15 cycles
 SCF Done:  E(RB3LYP) =  -923.945797351     A.U. after   13 cycles
 SCF Done:  E(RB3LYP) =  -923.948014183     A.U. after   13 cycles
 SCF Done:  E(RB3LYP) =  -923.949187659     A.U. after   13 cycles
 SCF Done:  E(RB3LYP) =  -923.949902145     A.U. after   13 cycles
 SCF Done:  E(RB3LYP) =  -923.950158885     A.U. after   13 cycles
 SCF Done:  E(RB3LYP) =  -923.950196139     A.U. after   12 cycles
 SCF Done:  E(RB3LYP) =  -923.950241127     A.U. after   10 cycles
 SCF Done:  E(RB3LYP) =  -923.950249581     A.U. after    9 cycles
 SCF Done:  E(RB3LYP) =  -923.950251429     A.U. after    8 cycles
 SCF Done:  E(RB3LYP) =  -923.950251855     A.U. after    8 cycles
 SCF Done:  E(RB3LYP) =  -923.950252031     A.U. after    8 cycles
 SCF Done:  E(RB3LYP) =  -923.950252103     A.U. after    8 cycles
 SCF Done:  E(RB3LYP) =  -923.950252132     A.U. after    7 cycles
 SCF Done:  E(RB3LYP) =  -923.950252147     A.U. after    7 cycles
 Optimization completed.
    -- Stationary point found.
 Normal termination of Gaussian 16 at Mon Dec 14 13:21:04 2020.

 --------------------------------------------------------------------
 #N Geom=AllCheck Guess=TCheck SCRF=Check GenChk RB3LYP/6-31G(d) Freq
 --------------------------------------------------------------------

 Structure from the checkpoint file:  "JID_9279.chk"
 ----------------------------
 CID_608844_JID_9279_neutraal
 ----------------------------
 Charge =  0 Multiplicity = 1

 SCF Done:  E(RB3LYP) =  -923.950252147     A.U. after    1 cycles

  Exact polarizability: 242.964   2.734 172.165  -1.947   0.212  61.305
 Approx polarizability: 362.823  -2.005 300.539  -5.742   0.553  97.499

                      1                      2                      3
                      A                      A                      A
 Frequencies --     19.8829                42.1874                56.0572
 Red. masses --      4.9862                 7.4229                 6.2407
 Frc consts  --      0.0012                 0.0078                 0.0116
 IR Inten    --      1.1748                 1.2304                 0.6672

                      4                      5                      6
                      A                      A                      A
 Frequencies --     88.2483                97.5338               134.4085
 Red. masses --      8.4308                 3.3467                 7.0025
 Frc consts  --      0.0387                 0.0188                 0.0745
 IR Inten    --      0.1347                 4.9237                 0.5772

                      7                      8                      9
                      A                      A                      A
 Frequencies --    141.3519               215.3367               243.5062
 Red. masses --      5.2978                 1.8535                 4.3096
 Frc consts  --      0.0624                 0.0506                 0.1506
 IR Inten    --      4.1497                 0.6666                 4.1800

                     10                     11                     12
                      A                      A                      A
 Frequencies --    254.8478               267.0395               282.5116
 Red. masses --      6.5228                 7.4952                 1.7456
 Frc consts  --      0.2496                 0.3149                 0.0821
 IR Inten    --      0.1748                 2.5123                 1.3497

                     13                     14                     15
                      A                      A                      A
 Frequencies --    312.7526               326.2934               394.1868
 Red. masses --      4.7525                 4.4096                 2.0933
 Frc consts  --      0.2739                 0.2766                 0.1916
 IR Inten    --      5.5838                14.9242                29.7385

                     16                     17                     18
                      A                      A                      A
 Frequencies --    410.3631               453.9735               459.3181
 Red. masses --      6.9616                 2.3305                 3.6628
 Frc consts  --      0.6907                 0.2830                 0.4553
 IR Inten    --      0.4498                13.4914                 5.1317

                     19                     20                     21
                      A                      A                      A
 Frequencies --    461.3047               482.0096               527.3717
 Red. masses --      3.7363                 3.8701                 2.5620
 Frc consts  --      0.4685                 0.5298                 0.4198
 IR Inten    --      2.7679                59.8641                90.4534

                     22                     23                     24
                      A                      A                      A
 Frequencies --    556.5879               584.1190               585.2365
 Red. masses --      2.3690                 5.2441                 5.4229
 Frc consts  --      0.4324                 1.0542                 1.0943
 IR Inten    --     58.7541                 5.0034                 1.1542

                     25                     26                     27
                      A                      A                      A
 Frequencies --    609.2522               687.8318               694.7469
 Red. masses --      8.5022                 3.4484                 6.9878
 Frc consts  --      1.8594                 0.9612                 1.9872
 IR Inten    --     27.6206                 3.0263                 0.3825

                     28                     29                     30
                      A                      A                      A
 Frequencies --    702.6720               745.0905               748.5168
 Red. masses --      4.6623                 6.7958                 7.1110
 Frc consts  --      1.3563                 2.2228                 2.3474
 IR Inten    --      6.7302                 5.9498                 2.2228

                     31                     32                     33
                      A                      A                      A
 Frequencies --    786.2772               812.1546               875.4798
 Red. masses --      5.6214                 1.6289                 6.3900
 Frc consts  --      2.0476                 0.6330                 2.8857
 IR Inten    --     42.0336                10.8685                27.3814

                     34                     35                     36
                      A                      A                      A
 Frequencies --    881.6241               900.1410               917.8232
 Red. masses --      1.5756                11.8756                 1.3861
 Frc consts  --      0.7215                 5.6692                 0.6879
 IR Inten    --     19.0023                24.0257                 0.0114

                     37                     38                     39
                      A                      A                      A
 Frequencies --    935.6577               954.9257               983.7192
 Red. masses --     12.5430                10.0410                 1.2755
 Frc consts  --      6.4697                 5.3947                 0.7272
 IR Inten    --     33.2262                11.5377                 0.2941

                     40                     41                     42
                      A                      A                      A
 Frequencies --    998.5844              1012.4456              1021.6298
 Red. masses --     13.2054                 6.0174                 7.0011
 Frc consts  --      7.7584                 3.6341                 4.3053
 IR Inten    --     44.3379                 1.2691                 3.0228

                     43                     44                     45
                      A                      A                      A
 Frequencies --   1054.6471              1081.0993              1119.1069
 Red. masses --      8.3217                 4.9653                 1.6207
 Frc consts  --      5.4535                 3.4192                 1.1959
 IR Inten    --     68.6000                47.2409                 8.8750

                     46                     47                     48
                      A                      A                      A
 Frequencies --   1141.7057              1174.4279              1186.6589
 Red. masses --      2.6892                 1.7660                 1.2704
 Frc consts  --      2.0653                 1.4351                 1.0540
 IR Inten    --     22.8575                15.1466                 0.7181

                     49                     50                     51
                      A                      A                      A
 Frequencies --   1200.1941              1208.2435              1221.1100
 Red. masses --      1.1299                 5.5213                 1.4662
 Frc consts  --      0.9590                 4.7490                 1.2881
 IR Inten    --      4.2732                49.4465                13.0695

                     52                     53                     54
                      A                      A                      A
 Frequencies --   1291.5103              1328.9648              1339.0863
 Red. masses --      4.7673                 2.4420                 2.4353
 Frc consts  --      4.6851                 2.5411                 2.5729
 IR Inten    --     84.7797                62.6681                34.0686

                     55                     56                     57
                      A                      A                      A
 Frequencies --   1379.2355              1390.8664              1467.7295
 Red. masses --      7.6871                 4.8897                 5.1040
 Frc consts  --      8.6157                 5.5731                 6.4781
 IR Inten    --    120.5026                39.1184                44.9065

                     58                     59                     60
                      A                      A                      A
 Frequencies --   1483.7212              1501.6385              1520.6444
 Red. masses --      1.8977                 2.5600                 2.9893
 Frc consts  --      2.4614                 3.4012                 4.0726
 IR Inten    --     78.8877                21.4936                14.7845

                     61                     62                     63
                      A                      A                      A
 Frequencies --   1521.8084              1530.7867              1539.9549
 Red. masses --      1.0476                 1.4032                 1.6233
 Frc consts  --      1.4294                 1.9374                 2.2681
 IR Inten    --      6.6190               102.5415                29.8678

                     64                     65                     66
                      A                      A                      A
 Frequencies --   1597.1228              1620.1613              1648.7579
 Red. masses --      4.3788                 6.7334                 3.9588
 Frc consts  --      6.5809                10.4136                 6.3405
 IR Inten    --    153.5828               102.6135                24.7920

                     67                     68                     69
                      A                      A                      A
 Frequencies --   1662.5006              1664.0980              1684.0622
 Red. masses --      3.6668                 4.0766                 2.9236
 Frc consts  --      5.9712                 6.6513                 4.8852
 IR Inten    --      6.5135                88.3863               179.6463

                     70                     71                     72
                      A                      A                      A
 Frequencies --   3030.5341              3091.6645              3168.2134
 Red. masses --      1.0348                 1.1070                 1.1000
 Frc consts  --      5.5993                 6.2340                 6.5054
 IR Inten    --     37.3405                38.2615                23.3226

                     73                     74                     75
                      A                      A                      A
 Frequencies --   3205.4235              3223.9365              3235.8535
 Red. masses --      1.0879                 1.0931                 1.0943
 Frc consts  --      6.5858                 6.6938                 6.7508
 IR Inten    --      9.0786                 6.0160                 2.0276

                     76                     77                     78
                      A                      A                      A
 Frequencies --   3253.4790              3556.3177              3678.6427
 Red. masses --      1.0897                 1.0476                 1.1011
 Frc consts  --      6.7961                 7.8060                 8.7791
 IR Inten    --      2.6166                76.3657                98.3528

 - Thermochemistry -
 -------------------
 Temperature   298.150 Kelvin.  Pressure   1.00000 Atm.
 Atom     1 has atomic number  6 and mass  12.00000

 Molecular mass:   259.07054 amu.
 Principal axes and moments of inertia in atomic units:
                           1         2         3
     Eigenvalues --  2240.627499666.55512**********
           X            1.00000  -0.00183   0.00025
           Y            0.00183   1.00000  -0.00089
           Z           -0.00025   0.00089   1.00000
 This molecule is an asymmetric top.
 Rotational symmetry number  1.
 Warning -- assumption of classical behavior for rotation
           may cause significant error
 Rotational temperatures (Kelvin)      0.03866     0.00896     0.00729
 Rotational constants (GHZ):           0.80546     0.18670     0.15189
 Zero-point vibrational energy     536339.2 (Joules/Mol)
                                  128.18814 (Kcal/Mol)
 Warning -- explicit consideration of  25 degrees of freedom as
           vibrations may cause significant error
 Vibrational temperatures:     28.61    60.70    80.65   126.97   140.33
          (Kelvin)            193.38   203.37   309.82   350.35   366.67
                              384.21   406.47   449.98   469.46   567.15
                              590.42   653.17   660.86   663.71   693.50
                              758.77   800.81   840.42   842.02   876.58
                              989.64   999.59  1010.99  1072.02  1076.95
                             1131.28  1168.51  1259.62  1268.46  1295.10
                             1320.54  1346.20  1373.93  1415.35  1436.74
                             1456.68  1469.90  1517.40  1555.46  1610.15
                             1642.66  1689.74  1707.34  1726.81  1738.39
                             1756.90  1858.20  1912.08  1926.65  1984.41
                             2001.15  2111.74  2134.74  2160.52  2187.87
                             2189.54  2202.46  2215.65  2297.90  2331.05
                             2372.19  2391.97  2394.27  2422.99  4360.26
                             4448.22  4558.35  4611.89  4638.53  4655.67
                             4681.03  5116.75  5292.75

 Zero-point correction=                           0.204281 (Hartree/Particle)
 Thermal correction to Energy=                    0.219660
 Thermal correction to Enthalpy=                  0.220604
 Thermal correction to Gibbs Free Energy=         0.159727
 Sum of electronic and zero-point Energies=           -923.745971
 Sum of electronic and thermal Energies=              -923.730592
 Sum of electronic and thermal Enthalpies=            -923.729648
 Sum of electronic and thermal Free Energies=         -923.790525

                     E (Thermal)             CV                S
                      KCal/Mol        Cal/Mol-Kelvin    Cal/Mol-Kelvin
 Total                  137.839             58.697            128.127
 Electronic               0.000              0.000              0.000
 Translational            0.889              2.981             42.556
 Rotational               0.889              2.981             33.909
 Vibrational            136.061             52.736             51.663
 Vibration     1          0.593              1.986              6.646
 Vibration     2          0.595              1.980              5.154
 Vibration     3          0.596              1.975              4.591
 Vibration     4          0.601              1.957              3.699
 Vibration     5          0.603              1.951              3.503
 Vibration     6          0.613              1.919              2.882
 Vibration     7          0.615              1.912              2.785
 Vibration     8          0.645              1.818              1.998
 Vibration     9          0.659              1.774              1.777
 Vibration    10          0.665              1.755              1.697
 Vibration    11          0.672              1.734              1.615
 Vibration    12          0.682              1.706              1.518
 Vibration    13          0.701              1.649              1.348
 Vibration    14          0.710              1.623              1.278
 Vibration    15          0.761              1.483              0.984
 Vibration    16          0.775              1.448              0.925
 Vibration    17          0.812              1.352              0.784
 Vibration    18          0.817              1.340              0.768
 Vibration    19          0.819              1.336              0.762
 Vibration    20          0.838              1.290              0.705
 Vibration    21          0.882              1.189              0.593
 Vibration    22          0.912              1.125              0.531
 Vibration    23          0.941              1.066              0.478
 Vibration    24          0.942              1.063              0.476
 Vibration    25          0.968              1.012              0.434

 Optimization completed.
    -- Stationary point found.
 Normal termination of Gaussian 16 at Mon Dec 14 13:32:36 2020.

 ----------------------------------------------------------------------
 # B3LYP/6-311++G(d,p) empiricaldispersion=gd3bj scf=xqc pop=npa geom=c
 heck
 ----------------------------------------------------------------------

 ------------------------------------
 CID_608844_JID_9279_Energie_neutraal
 ------------------------------------
 Structure from the checkpoint file:  "JID_9279.chk"
 Charge =  0 Multiplicity = 1

 SCF Done:  E(RB3LYP) =  -924.196852099     A.U. after   15 cycles
 Normal termination of Gaussian 16 at Mon Dec 14 13:37:20 2020.

 ----------------------------------------------------------------------
 # B3LYP/6-311++G(d,p) empiricaldispersion=gd3bj scf=xqc pop=npa geom=c
 heck
 ----------------------------------------------------------------------

 ----------------------------------
 CID_608844_JID_9279_Energie_kation
 ----------------------------------
 Structure from the checkpoint file:  "JID_9279.chk"
 Charge =  1 Multiplicity = 2

 SCF Done:  E(UB3LYP) =  -923.886635178     A.U. after   26 cycles
 Normal termination of Gaussian 16 at Mon Dec 14 13:48:57 2020.
 Gaussian 16:  ES64L-G16RevA.03 25-Dec-2016

 ----------------------------------------------------------------------
 # B3LYP/6-311++G(d,p) empiricaldispersion=gd3bj scf=xqc pop=npa geom=c
 heck
 ----------------------------------------------------------------------

 ---------------------------------
 CID_608844_JID_9279_Energie_anion
 ---------------------------------
 Structure from the checkpoint file:  "JID_9279.chk"
 Charge = -1 Multiplicity = 2

                         Standard orientation:
 ---------------------------------------------------------------------
 Center     Atomic      Atomic             Coordinates (Angstroms)
 Number     Number       Type             X           Y           Z
 ---------------------------------------------------------------------
      1          6           0       -3.445223    2.988496   -0.051223
      2          8           0       -4.259418    1.824888   -0.046879
      3          6           0       -3.641813    0.613847   -0.027513
      4          6           0       -4.492790   -0.503871   -0.018425
      5          6           0       -3.961359   -1.787080    0.002724
      6          6           0       -2.580210   -1.986253    0.015089
      7          6           0       -1.735714   -0.871326    0.005234
      8          6           0       -2.259457    0.432510   -0.016272
      9          6           0       -0.288931   -1.036577    0.017562
     10          7           0        0.639262   -0.112358   -0.011165
     11          6           0        1.805178   -0.850207    0.021456
     12          7           0        1.630185   -2.152503    0.068394
     13          8           0        0.231433   -2.277224    0.064537
     14          6           0        3.102285   -0.193070   -0.007266
     15          7           0        4.250000   -0.813740   -0.136613
     16          8           0        5.196737    0.155239   -0.147036
     17          7           0        4.642932    1.429228   -0.025425
     18          6           0        3.347994    1.224578    0.067395
     19          7           0        2.418582    2.206532    0.261976
     20          1           0       -4.133758    3.834248   -0.064433
     21          1           0       -2.805034    3.024965   -0.942082
     22          1           0       -2.818719    3.041337    0.848387
     23          1           0       -5.564427   -0.334630   -0.027576
     24          1           0       -4.628951   -2.643033    0.009879
     25          1           0       -2.161825   -2.985768    0.031777
     26          1           0       -1.573722    1.268992   -0.021453
     27          1           0        2.702075    3.143804    0.012373
     28          1           0        1.467854    1.940464    0.035424
 ---------------------------------------------------------------------

 SCF Done:  E(UB3LYP) =  -924.235849434     A.U. after   24 cycles

 The electronic state is 2-A.
 Alpha  occ. eigenvalues --  -19.10354 -19.06197 -19.06013 -14.24645 -14.24078
 Alpha  occ. eigenvalues --  -14.22741 -14.21153 -14.18758 -10.14128 -10.14024
 Alpha  occ. eigenvalues --  -10.12606 -10.12569 -10.10848 -10.10108 -10.06838
 Alpha  occ. eigenvalues --  -10.06658 -10.05826 -10.05417 -10.05345  -1.05579
 Alpha  occ. eigenvalues --   -1.01989  -0.97670  -0.84266  -0.80642  -0.77636
 Alpha  occ. eigenvalues --   -0.75443  -0.73325  -0.71553  -0.65946  -0.64227
 Alpha  occ. eigenvalues --   -0.60307  -0.56426  -0.53569  -0.51252  -0.49788
 Alpha  occ. eigenvalues --   -0.48069  -0.46519  -0.43641  -0.42171  -0.39978
 Alpha  occ. eigenvalues --   -0.38471  -0.38373  -0.38115  -0.37980  -0.37493
 Alpha  occ. eigenvalues --   -0.35620  -0.34601  -0.32234  -0.31661  -0.29725
 Alpha  occ. eigenvalues --   -0.28238  -0.28007  -0.26837  -0.26099  -0.25762
 Alpha  occ. eigenvalues --   -0.23547  -0.23405  -0.22668  -0.22151  -0.20502
 Alpha  occ. eigenvalues --   -0.19204  -0.19135  -0.16875  -0.16486  -0.13920
 Alpha  occ. eigenvalues --   -0.13154  -0.11817   0.01665
 Alpha virt. eigenvalues --    0.05942   0.06302   0.07904   0.08294   0.09961
 Alpha virt. eigenvalues --    0.10428   0.10742   0.10801   0.11481   0.12578
 Alpha virt. eigenvalues --    0.13126   0.13550   0.14303   0.14957   0.15382

  Beta  occ. eigenvalues --  -19.10220 -19.06028 -19.05784 -14.24366 -14.24030
  Beta  occ. eigenvalues --  -14.22744 -14.20611 -14.18797 -10.14125 -10.14050
  Beta  occ. eigenvalues --  -10.12616 -10.12349 -10.10885 -10.10087 -10.06754
  Beta  occ. eigenvalues --  -10.06708 -10.05695 -10.05222 -10.05187  -1.05331
  Beta  occ. eigenvalues --   -1.01323  -0.97693  -0.84239  -0.80409  -0.77330
  Beta  occ. eigenvalues --   -0.75078  -0.73101  -0.71110  -0.65783  -0.63941
  Beta  occ. eigenvalues --   -0.60100  -0.56079  -0.53105  -0.51095  -0.49695
  Beta  occ. eigenvalues --   -0.47925  -0.46337  -0.43485  -0.42107  -0.39883
  Beta  occ. eigenvalues --   -0.38386  -0.38368  -0.37999  -0.37771  -0.36869
  Beta  occ. eigenvalues --   -0.34495  -0.34166  -0.32085  -0.31588  -0.29471
  Beta  occ. eigenvalues --   -0.27879  -0.27775  -0.26737  -0.25822  -0.25673
  Beta  occ. eigenvalues --   -0.23288  -0.22934  -0.22094  -0.21489  -0.20136
  Beta  occ. eigenvalues --   -0.18919  -0.18022  -0.16454  -0.15360  -0.13396
  Beta  occ. eigenvalues --   -0.12348  -0.10321
  Beta virt. eigenvalues --    0.06278   0.07023   0.07757   0.07955   0.08286
  Beta virt. eigenvalues --    0.09953   0.10647   0.10786   0.10805   0.11471
  Beta virt. eigenvalues --    0.13114   0.13480   0.13583   0.14297   0.15053

 Mulliken charges and spin densities:
               1          2
     1  C   -0.334635  -0.001541
     2  O   -0.173496  -0.000034
     3  C   -0.829401  -0.045240
     4  C   -0.296231   0.165438
     5  C   -0.352820  -0.027713
     6  C   -0.636118   0.122311
     7  C    0.962041   0.024456
     8  C    0.259981   0.116442
     9  C   -0.550742   0.153576
    10  N   -0.033327  -0.013869
    11  C    0.811186  -0.034531
    12  N   -0.437986   0.261477
    13  O    0.148122   0.095543
    14  C    0.170139   0.011913
    15  N   -0.469557   0.135020
    16  O    0.309113   0.026723
    17  N   -0.310069   0.021538
    18  C   -0.397550   0.007847
    19  N   -0.365516   0.001353
    20  H    0.151422  -0.000156
    21  H    0.149860   0.002682
    22  H    0.152339   0.001694
    23  H    0.136881  -0.014828
    24  H    0.131592   0.002331
    25  H    0.173295  -0.007162
    26  H    0.087870  -0.006405
    27  H    0.242208   0.001338
    28  H    0.301401  -0.000202
 Sum of Mulliken charges =  -1.00000   1.00000

 Dipole moment (field-independent basis, Debye):
    X=             -6.2781    Y=              5.7024    Z=             -0.4223  Tot=              8.4918
 Quadrupole moment (field-independent basis, Debye-Ang):
   XX=           -191.6371   YY=           -120.5756   ZZ=           -116.9752
   XY=              3.3774   XZ=             -0.2923   YZ=             -1.6389

 Summary of Natural Population Analysis:

                                       Natural Population
                Natural  -----------------------------------------------
    Atom  No    Charge         Core      Valence    Rydberg      Total
 -----------------------------------------------------------------------
      C    1   -0.10061      0.99961     2.09288    0.00811     3.10061
      O    2   -0.27946      0.99985     3.26951    0.01010     4.27946
      C    3    0.14407      0.99939     1.84458    0.01195     2.85593
      C    4   -0.07966      0.99954     2.07091    0.00921     3.07966
      C    5   -0.11654      0.99960     2.10734    0.00960     3.11654
      C    6   -0.07001      0.99945     2.06178    0.00879     3.07001
      C    7   -0.03392      0.99938     2.02502    0.00953     3.03392
      C    8   -0.10400      0.99946     2.09686    0.00768     3.10400
      C    9    0.31497      0.99958     1.66740    0.01804     2.68503
      N   10   -0.30135      0.99966     2.79273    0.00896     3.80135
      C   11    0.12628      0.99963     1.85674    0.01736     2.87372
      N   12    0.00142      0.99967     2.48711    0.01179     3.49858
      O   13   -0.13666      0.99985     3.12523    0.01158     4.13666
      C   14    0.02651      0.99951     1.96048    0.01349     2.97349
      N   15    0.00253      0.99968     2.48258    0.01521     3.49747
      O   16   -0.08795      0.99990     3.07662    0.01142     4.08795
      N   17   -0.10893      0.99966     2.59356    0.01571     3.60893
      C   18    0.15718      0.99959     1.82774    0.01550     2.84282
      N   19   -0.40419      0.99970     2.89557    0.00892     3.90419
      H   20    0.08766      0.00000     0.41155    0.00079     0.41234
      H   21    0.08317      0.00000     0.41535    0.00149     0.41683
      H   22    0.08371      0.00000     0.41481    0.00148     0.41629
      H   23    0.09607      0.00000     0.40250    0.00143     0.40393
      H   24    0.09425      0.00000     0.40467    0.00108     0.40575
      H   25    0.10465      0.00000     0.39422    0.00114     0.39535
      H   26    0.10501      0.00000     0.39327    0.00171     0.39499
      H   27    0.18610      0.00000     0.31236    0.00154     0.31390
      H   28    0.20973      0.00000     0.28849    0.00179     0.29027
 =======================================================================
   * Total *    0.00001     18.99272    47.77188    0.23539    66.99999

 Normal termination of Gaussian 16 at Mon Dec 14 13:59:54 2020.
