 Gaussian 16, Revision A.03,

 -----------------------------------------------------------
 # opt freq B3LYP/6-31G(d) empiricaldispersion=gd3bj scf=xqc
 -----------------------------------------------------------

 --------------------------------
 CID_136280676_JID_10833_neutraal
 --------------------------------
 Symbolic Z-matrix:
 Charge =  0 Multiplicity = 1

 SCF Done:  E(RB3LYP) =  -932.515667376     A.U. after   15 cycles
 SCF Done:  E(RB3LYP) =  -932.514489370     A.U. after   15 cycles
 SCF Done:  E(RB3LYP) =  -932.523115022     A.U. after   13 cycles
 SCF Done:  E(RB3LYP) =  -932.525138957     A.U. after   13 cycles
 SCF Done:  E(RB3LYP) =  -932.525251152     A.U. after   13 cycles
 SCF Done:  E(RB3LYP) =  -932.526228067     A.U. after   13 cycles
 SCF Done:  E(RB3LYP) =  -932.526269847     A.U. after   13 cycles
 SCF Done:  E(RB3LYP) =  -932.526816024     A.U. after   13 cycles
 SCF Done:  E(RB3LYP) =  -932.526830699     A.U. after   12 cycles
 SCF Done:  E(RB3LYP) =  -932.526943316     A.U. after   11 cycles
 SCF Done:  E(RB3LYP) =  -932.529197363     A.U. after    7 cycles
 SCF Done:  E(RB3LYP) =  -932.529197354     A.U. after    7 cycles
 SCF Done:  E(RB3LYP) =  -932.529197344     A.U. after    7 cycles
 SCF Done:  E(RB3LYP) =  -932.529197338     A.U. after    7 cycles
 SCF Done:  E(RB3LYP) =  -932.529197344     A.U. after    6 cycles
 Optimization completed.
    -- Stationary point found.
 Normal termination of Gaussian 16 at Sat Dec 12 16:53:32 2020.

 --------------------------------------------------------------------
 #N Geom=AllCheck Guess=TCheck SCRF=Check GenChk RB3LYP/6-31G(d) Freq
 --------------------------------------------------------------------

 Structure from the checkpoint file:  "JID_10833.chk"
 --------------------------------
 CID_136280676_JID_10833_neutraal
 --------------------------------
 Charge =  0 Multiplicity = 1

 SCF Done:  E(RB3LYP) =  -932.529197345     A.U. after    1 cycles

  Exact polarizability: 243.113  -0.923 173.746 -11.717   8.907  96.760
 Approx polarizability: 345.434   2.970 312.083 -23.578  14.170 142.027

                      1                      2                      3
                      A                      A                      A
 Frequencies --     22.0603                27.2390                30.6480
 Red. masses --      4.4753                 5.0876                 3.9422
 Frc consts  --      0.0013                 0.0022                 0.0022
 IR Inten    --      0.3475                 0.2687                 0.0756

                      4                      5                      6
                      A                      A                      A
 Frequencies --     36.8495                61.9519                72.4893
 Red. masses --      7.0599                 8.5617                 3.4188
 Frc consts  --      0.0056                 0.0194                 0.0106
 IR Inten    --      0.1957                 2.3439                 0.4303

                      7                      8                      9
                      A                      A                      A
 Frequencies --     91.5793               119.4874               154.3863
 Red. masses --      3.9548                 4.3786                 4.7669
 Frc consts  --      0.0195                 0.0368                 0.0669
 IR Inten    --      1.2409                 2.8294                 0.4703

                     10                     11                     12
                      A                      A                      A
 Frequencies --    159.7871               179.4700               235.2050
 Red. masses --      5.1570                 5.6965                 3.7716
 Frc consts  --      0.0776                 0.1081                 0.1229
 IR Inten    --      0.1871                 2.6224                 0.3489

                     13                     14                     15
                      A                      A                      A
 Frequencies --    274.8992               298.5246               307.3342
 Red. masses --      2.8626                 5.4680                 7.0167
 Frc consts  --      0.1275                 0.2871                 0.3905
 IR Inten    --      0.4401                 2.8111                 4.7298

                     16                     17                     18
                      A                      A                      A
 Frequencies --    320.7655               346.1442               413.6657
 Red. masses --      3.4119                 2.8285                 2.3194
 Frc consts  --      0.2068                 0.1997                 0.2338
 IR Inten    --      0.8983                 8.3088                 1.9947

                     19                     20                     21
                      A                      A                      A
 Frequencies --    438.5289               444.6838               476.7517
 Red. masses --      1.9120                 3.1362                 3.0963
 Frc consts  --      0.2166                 0.3654                 0.4146
 IR Inten    --      4.0180                 1.5220                 2.3566

                     22                     23                     24
                      A                      A                      A
 Frequencies --    491.8297               511.1728               532.5313
 Red. masses --      4.9085                 4.1143                 3.4030
 Frc consts  --      0.6996                 0.6334                 0.5686
 IR Inten    --      2.2791                 8.8684                 3.6225

                     25                     26                     27
                      A                      A                      A
 Frequencies --    558.0703               579.1061               596.0086
 Red. masses --      5.7669                 5.4840                 4.4042
 Frc consts  --      1.0582                 1.0836                 0.9218
 IR Inten    --     14.4327                12.9646                10.7669

                     28                     29                     30
                      A                      A                      A
 Frequencies --    616.8330               635.3873               679.2573
 Red. masses --      1.9270                 3.1568                 2.8124
 Frc consts  --      0.4320                 0.7509                 0.7645
 IR Inten    --     53.7579                 9.8541                35.7843

                     31                     32                     33
                      A                      A                      A
 Frequencies --    697.7351               703.0920               716.9096
 Red. masses --      3.4331                 2.3269                 4.7071
 Frc consts  --      0.9847                 0.6777                 1.4254
 IR Inten    --      7.3852                30.0380                 8.8846

                     34                     35                     36
                      A                      A                      A
 Frequencies --    785.4667               791.5571               808.8348
 Red. masses --      4.0017                 1.6330                 3.4535
 Frc consts  --      1.4546                 0.6028                 1.3312
 IR Inten    --     23.6488                44.5092                 0.0609

                     37                     38                     39
                      A                      A                      A
 Frequencies --    826.1837               860.3885               877.5104
 Red. masses --      1.2494                 4.2138                 5.3329
 Frc consts  --      0.5025                 1.8379                 2.4194
 IR Inten    --     91.0590                24.4557                21.9021

                     40                     41                     42
                      A                      A                      A
 Frequencies --    900.4769               905.9212               949.7288
 Red. masses --      1.5309                 3.0783                 1.3912
 Frc consts  --      0.7314                 1.4885                 0.7393
 IR Inten    --      0.3240                10.2849                 3.5771

                     43                     44                     45
                      A                      A                      A
 Frequencies --    960.0899               965.2405               976.2256
 Red. masses --      2.3816                 1.3890                 1.3515
 Frc consts  --      1.2935                 0.7625                 0.7589
 IR Inten    --      3.6464                26.0981                 1.6030

                     46                     47                     48
                      A                      A                      A
 Frequencies --    985.1533               999.6325              1008.7490
 Red. masses --      2.3292                 1.2769                 2.3592
 Frc consts  --      1.3319                 0.7518                 1.4145
 IR Inten    --     10.6393                 0.0012                16.6705

                     49                     50                     51
                      A                      A                      A
 Frequencies --   1029.7414              1034.3448              1058.0857
 Red. masses --      4.0882                 1.1346                 2.0932
 Frc consts  --      2.5541                 0.7152                 1.3807
 IR Inten    --     12.3771                20.7668                 2.5777

                     52                     53                     54
                      A                      A                      A
 Frequencies --   1126.9638              1144.1985              1156.3933
 Red. masses --      2.8948                 2.1196                 1.9838
 Frc consts  --      2.1662                 1.6349                 1.5630
 IR Inten    --      1.4102                63.6854                16.2061

                     55                     56                     57
                      A                      A                      A
 Frequencies --   1165.7721              1185.8219              1200.1397
 Red. masses --      1.9748                 1.1812                 1.9356
 Frc consts  --      1.5812                 0.9786                 1.6426
 IR Inten    --    109.8516                 0.6830                68.9400

                     58                     59                     60
                      A                      A                      A
 Frequencies --   1225.1146              1234.6009              1274.5568
 Red. masses --      1.6898                 2.2338                 1.7626
 Frc consts  --      1.4943                 2.0061                 1.6870
 IR Inten    --     42.0421                13.5313                 7.8593

                     61                     62                     63
                      A                      A                      A
 Frequencies --   1277.6427              1291.7015              1314.5129
 Red. masses --      1.6666                 2.1707                 1.6491
 Frc consts  --      1.6028                 2.1339                 1.6789
 IR Inten    --      5.7271                26.9776                27.4051

                     64                     65                     66
                      A                      A                      A
 Frequencies --   1337.4778              1345.4703              1357.4161
 Red. masses --      1.8182                 1.4117                 1.9554
 Frc consts  --      1.9163                 1.5057                 2.1229
 IR Inten    --     13.1047                10.0321                12.9114

                     67                     68                     69
                      A                      A                      A
 Frequencies --   1366.0187              1374.9054              1386.5208
 Red. masses --      1.3852                 7.1878                 1.8370
 Frc consts  --      1.5229                 8.0056                 2.0807
 IR Inten    --     66.2214                34.5144                52.9832

                     70                     71                     72
                      A                      A                      A
 Frequencies --   1401.3245              1432.7339              1481.1973
 Red. masses --      1.4902                 1.5725                 1.2500
 Frc consts  --      1.7241                 1.9018                 1.6158
 IR Inten    --     28.7595                24.0334                 2.5415

                     73                     74                     75
                      A                      A                      A
 Frequencies --   1484.4789              1490.3066              1508.2999
 Red. masses --      1.3460                 1.5827                 1.1089
 Frc consts  --      1.7476                 2.0711                 1.4863
 IR Inten    --      5.6621                16.2596                28.1263

                     76                     77                     78
                      A                      A                      A
 Frequencies --   1515.4252              1526.1432              1536.9068
 Red. masses --      2.7814                 1.1725                 2.3129
 Frc consts  --      3.7634                 1.6090                 3.2188
 IR Inten    --     50.3307                 5.7916                56.1867

                     79                     80                     81
                      A                      A                      A
 Frequencies --   1618.0941              1666.7859              1683.8371
 Red. masses --      6.0569                 6.9333                 7.4896
 Frc consts  --      9.3435                11.3487                12.5116
 IR Inten    --     14.8969               197.1371               121.1164

                     82                     83                     84
                      A                      A                      A
 Frequencies --   1735.2315              1791.1533              1856.9363
 Red. masses --      4.4190                 9.8705                10.0654
 Frc consts  --      7.8395                18.6576                20.4491
 IR Inten    --      0.1884               401.1749               308.5096

                     85                     86                     87
                      A                      A                      A
 Frequencies --   2945.7183              3019.4453              3028.1553
 Red. masses --      1.0727                 1.0644                 1.0656
 Frc consts  --      5.4841                 5.7175                 5.7571
 IR Inten    --     82.2924                32.5015                51.8484

                     88                     89                     90
                      A                      A                      A
 Frequencies --   3080.1273              3091.3604              3093.0165
 Red. masses --      1.0982                 1.0971                 1.0892
 Frc consts  --      6.1386                 6.1773                 6.1394
 IR Inten    --      4.2396                16.9763                15.0954

                     91                     92                     93
                      A                      A                      A
 Frequencies --   3157.6677              3166.1103              3190.0036
 Red. masses --      1.0637                 1.0872                 1.0865
 Frc consts  --      6.2492                 6.4210                 6.5145
 IR Inten    --     13.0563                 4.9972                 5.9697

                     94                     95                     96
                      A                      A                      A
 Frequencies --   3205.6450              3219.3828              3224.7113
 Red. masses --      1.0905                 1.0936                 1.0949
 Frc consts  --      6.6026                 6.6780                 6.7085
 IR Inten    --     17.0420                11.2214                12.1347

                     97                     98                     99
                      A                      A                      A
 Frequencies --   3242.7981              3496.6928              3695.2285
 Red. masses --      1.1161                 1.0782                 1.0643
 Frc consts  --      6.9149                 7.7669                 8.5627
 IR Inten    --     15.9425               373.8267                63.8664

 - Thermochemistry -
 -------------------
 Temperature   298.150 Kelvin.  Pressure   1.00000 Atm.
 Atom     1 has atomic number  6 and mass  12.00000

 Molecular mass:   273.11134 amu.
 Principal axes and moments of inertia in atomic units:
                           1         2         3
     Eigenvalues --  2415.090449683.85421**********
           X            0.99998  -0.00438   0.00461
           Y            0.00421   0.99936   0.03556
           Z           -0.00476  -0.03554   0.99936
 This molecule is an asymmetric top.
 Rotational symmetry number  1.
 Warning -- assumption of classical behavior for rotation
           may cause significant error
 Rotational temperatures (Kelvin)      0.03586     0.00894     0.00842
 Rotational constants (GHZ):           0.74728     0.18637     0.17548
 Zero-point vibrational energy     735128.3 (Joules/Mol)
                                  175.69989 (Kcal/Mol)
 Warning -- explicit consideration of  28 degrees of freedom as
           vibrations may cause significant error
 Vibrational temperatures:     31.74    39.19    44.10    53.02    89.14
          (Kelvin)            104.30   131.76   171.92   222.13   229.90
                              258.22   338.41   395.52   429.51   442.19
                              461.51   498.02   595.17   630.95   639.80
                              685.94   707.63   735.46   766.19   802.94
                              833.20   857.52   887.49   914.18   977.30
                             1003.89  1011.59  1031.47  1130.11  1138.87
                             1163.73  1188.69  1237.91  1262.54  1295.59
                             1303.42  1366.45  1381.36  1388.77  1404.57
                             1417.42  1438.25  1451.36  1481.57  1488.19
                             1522.35  1621.45  1646.25  1663.79  1677.29
                             1706.13  1726.73  1762.67  1776.32  1833.80
                             1838.24  1858.47  1891.29  1924.33  1935.83
                             1953.02  1965.40  1978.18  1994.89  2016.19
                             2061.38  2131.11  2135.83  2144.22  2170.11
                             2180.36  2195.78  2211.27  2328.08  2398.13
                             2422.67  2496.61  2577.07  2671.72  4238.23
                             4344.31  4356.84  4431.62  4447.78  4450.16
                             4543.18  4555.33  4589.70  4612.21  4631.97
                             4639.64  4665.66  5030.96  5316.61

 Zero-point correction=                           0.279996 (Hartree/Particle)
 Thermal correction to Energy=                    0.298014
 Thermal correction to Enthalpy=                  0.298958
 Thermal correction to Gibbs Free Energy=         0.230807
 Sum of electronic and zero-point Energies=           -932.249202
 Sum of electronic and thermal Energies=              -932.231184
 Sum of electronic and thermal Enthalpies=            -932.230240
 Sum of electronic and thermal Free Energies=         -932.298390

                     E (Thermal)             CV                S
                      KCal/Mol        Cal/Mol-Kelvin    Cal/Mol-Kelvin
 Total                  187.006             67.637            143.435
 Electronic               0.000              0.000              0.000
 Translational            0.889              2.981             42.713
 Rotational               0.889              2.981             33.841
 Vibrational            185.229             61.675             66.881
 Vibration     1          0.593              1.985              6.440
 Vibration     2          0.593              1.984              6.021
 Vibration     3          0.594              1.984              5.787
 Vibration     4          0.594              1.982              5.422
 Vibration     5          0.597              1.972              4.394
 Vibration     6          0.599              1.967              4.085
 Vibration     7          0.602              1.955              3.626
 Vibration     8          0.609              1.933              3.109
 Vibration     9          0.620              1.898              2.617
 Vibration    10          0.622              1.892              2.552
 Vibration    11          0.629              1.868              2.334
 Vibration    12          0.655              1.787              1.839
 Vibration    13          0.677              1.720              1.565
 Vibration    14          0.692              1.676              1.425
 Vibration    15          0.697              1.660              1.377
 Vibration    16          0.706              1.634              1.306
 Vibration    17          0.724              1.583              1.184
 Vibration    18          0.777              1.441              0.914
 Vibration    19          0.799              1.386              0.831
 Vibration    20          0.804              1.373              0.812
 Vibration    21          0.833              1.302              0.719
 Vibration    22          0.848              1.268              0.679
 Vibration    23          0.866              1.225              0.631
 Vibration    24          0.888              1.178              0.582
 Vibration    25          0.914              1.122              0.528
 Vibration    26          0.936              1.076              0.487
 Vibration    27          0.954              1.040              0.457
 Vibration    28          0.977              0.996              0.422

                           ! Non-Optimized Parameters !
 Normal termination of Gaussian 16 at Sat Dec 12 17:10:01 2020.

 ----------------------------------------------------------------------
 # B3LYP/6-311++G(d,p) empiricaldispersion=gd3bj scf=xqc pop=npa geom=c
 heck
 ----------------------------------------------------------------------

 ----------------------------------------
 CID_136280676_JID_10833_Energie_neutraal
 ----------------------------------------
 Structure from the checkpoint file:  "JID_10833.chk"
 Charge =  0 Multiplicity = 1

 SCF Done:  E(RB3LYP) =  -932.797290591     A.U. after   15 cycles
 Normal termination of Gaussian 16 at Sat Dec 12 17:15:59 2020.

 ----------------------------------------------------------------------
 # B3LYP/6-311++G(d,p) empiricaldispersion=gd3bj scf=xqc pop=npa geom=c
 heck
 ----------------------------------------------------------------------

 --------------------------------------
 CID_136280676_JID_10833_Energie_kation
 --------------------------------------
 Structure from the checkpoint file:  "JID_10833.chk"
 Charge =  1 Multiplicity = 2

 SCF Done:  E(UB3LYP) =  -932.501408310     A.U. after   30 cycles
 Normal termination of Gaussian 16 at Sat Dec 12 17:31:58 2020.
 Gaussian 16:  ES64L-G16RevA.03 25-Dec-2016

 ----------------------------------------------------------------------
 # B3LYP/6-311++G(d,p) empiricaldispersion=gd3bj scf=xqc pop=npa geom=c
 heck
 ----------------------------------------------------------------------

 -------------------------------------
 CID_136280676_JID_10833_Energie_anion
 -------------------------------------
 Structure from the checkpoint file:  "JID_10833.chk"
 Charge = -1 Multiplicity = 2

                         Standard orientation:
 ---------------------------------------------------------------------
 Center     Atomic      Atomic             Coordinates (Angstroms)
 Number     Number       Type             X           Y           Z
 ---------------------------------------------------------------------
      1          6           0        2.392683    1.001280    2.593036
      2          6           0        2.941589   -0.042974    1.974093
      3          6           0        2.141705   -1.190774    1.411076
      4          7           0        1.988385   -1.106821   -0.042900
      5          6           0        0.846376   -1.816910   -0.577649
      6          6           0       -0.426539   -1.009693   -0.380745
      7          7           0       -1.566973   -1.607696   -0.252601
      8          6           0       -2.687671   -0.793158   -0.127705
      9          6           0       -3.950817   -1.399802    0.004262
     10          6           0       -5.089546   -0.620550    0.136618
     11          6           0       -5.003185    0.782794    0.143520
     12          6           0       -3.767633    1.397695    0.016529
     13          6           0       -2.608407    0.620870   -0.120606
     14          6           0       -1.298714    1.270832   -0.251383
     15          8           0       -1.082042    2.475675   -0.245758
     16          7           0       -0.257400    0.349473   -0.385852
     17          6           0        3.208814   -1.020020   -0.804608
     18          6           0        3.697572    0.417601   -0.979669
     19          8           0        4.855016    0.764324   -0.979820
     20          8           0        2.666330    1.274301   -1.190129
     21          1           0        1.316876    1.077958    2.736358
     22          1           0        2.994277    1.820266    2.977183
     23          1           0        4.022290   -0.082730    1.841347
     24          1           0        2.606717   -2.152249    1.700679
     25          1           0        1.136533   -1.174926    1.844773
     26          1           0        0.991282   -1.962136   -1.654695
     27          1           0        0.684259   -2.811834   -0.137291
     28          1           0       -3.999418   -2.483778   -0.001985
     29          1           0       -6.059518   -1.099892    0.236475
     30          1           0       -5.903187    1.381206    0.248393
     31          1           0       -3.662645    2.477685    0.018656
     32          1           0        0.694771    0.709453   -0.458412
     33          1           0        4.042952   -1.590073   -0.370587
     34          1           0        3.042459   -1.415207   -1.813688
     35          1           0        3.052468    2.164019   -1.292696
 ---------------------------------------------------------------------

 SCF Done:  E(UB3LYP) =  -932.801800820     A.U. after   33 cycles
 SCF Done:  E(UB3LYP) =  -932.801800820     a.u. after    1 cycles

 The electronic state is 2-A.
 Alpha  occ. eigenvalues --  -19.07056 -19.00943 -18.96682 -14.22551 -14.21112
 Alpha  occ. eigenvalues --  -14.18038 -10.19229 -10.15093 -10.12343 -10.11290
 Alpha  occ. eigenvalues --  -10.10501 -10.10026 -10.08343 -10.07367 -10.06509
 Alpha  occ. eigenvalues --  -10.05994 -10.05851 -10.05666 -10.05578 -10.05009
 Alpha  occ. eigenvalues --   -1.00746  -0.92093  -0.91905  -0.86265  -0.83211
 Alpha  occ. eigenvalues --   -0.77442  -0.73072  -0.68977  -0.66448  -0.64194
 Alpha  occ. eigenvalues --   -0.63093  -0.60379  -0.54974  -0.53735  -0.51368
 Alpha  occ. eigenvalues --   -0.49867  -0.47852  -0.46369  -0.43944  -0.42984
 Alpha  occ. eigenvalues --   -0.40992  -0.39602  -0.39334  -0.38021  -0.37054
 Alpha  occ. eigenvalues --   -0.35648  -0.35254  -0.34351  -0.33042  -0.32872
 Alpha  occ. eigenvalues --   -0.32390  -0.31563  -0.31366  -0.30571  -0.29863
 Alpha  occ. eigenvalues --   -0.29497  -0.28625  -0.27314  -0.25745  -0.25030
 Alpha  occ. eigenvalues --   -0.24725  -0.24296  -0.23266  -0.22786  -0.18844
 Alpha  occ. eigenvalues --   -0.17478  -0.17196  -0.15482  -0.14426  -0.14252
 Alpha  occ. eigenvalues --   -0.11948  -0.11044   0.04069
 Alpha virt. eigenvalues --    0.06660   0.07291   0.07840   0.07862   0.08322
 Alpha virt. eigenvalues --    0.08704   0.09563   0.09963   0.10144   0.10498
 Alpha virt. eigenvalues --    0.11406   0.11584   0.11859   0.12529   0.13190

  Beta  occ. eigenvalues --  -19.07049 -19.00834 -18.96650 -14.22401 -14.21074
  Beta  occ. eigenvalues --  -14.18119 -10.19063 -10.15065 -10.12125 -10.11280
  Beta  occ. eigenvalues --  -10.10500 -10.10015 -10.08171 -10.07318 -10.06429
  Beta  occ. eigenvalues --  -10.06004 -10.05752 -10.05672 -10.05509 -10.04846
  Beta  occ. eigenvalues --   -1.00611  -0.91969  -0.91761  -0.86074  -0.83131
  Beta  occ. eigenvalues --   -0.77242  -0.72882  -0.68842  -0.66211  -0.63935
  Beta  occ. eigenvalues --   -0.62890  -0.60246  -0.54771  -0.53434  -0.51217
  Beta  occ. eigenvalues --   -0.49682  -0.47787  -0.46196  -0.43815  -0.42821
  Beta  occ. eigenvalues --   -0.40807  -0.39463  -0.39162  -0.37904  -0.36860
  Beta  occ. eigenvalues --   -0.35524  -0.35142  -0.33950  -0.32745  -0.32590
  Beta  occ. eigenvalues --   -0.32261  -0.31521  -0.31275  -0.30471  -0.29673
  Beta  occ. eigenvalues --   -0.29384  -0.28478  -0.27210  -0.25305  -0.24883
  Beta  occ. eigenvalues --   -0.24661  -0.24216  -0.22777  -0.22377  -0.18749
  Beta  occ. eigenvalues --   -0.16854  -0.16605  -0.15492  -0.14169  -0.13770
  Beta  occ. eigenvalues --   -0.11841  -0.10439
  Beta virt. eigenvalues --    0.07204   0.07635   0.07769   0.07819   0.08556
  Beta virt. eigenvalues --    0.08782   0.09335   0.09513   0.09994   0.10252
  Beta virt. eigenvalues --    0.11227   0.11394   0.11626   0.12006   0.12591

 Mulliken charges and spin densities:
               1          2
     1  C   -0.510440   0.083770
     2  C    0.285873   0.081997
     3  C   -0.548160  -0.098760
     4  N    0.173867   0.038180
     5  C   -0.462056  -0.390629
     6  C   -0.133475   0.206791
     7  N    0.037628  -0.022767
     8  C   -0.574186   0.098354
     9  C   -0.102354  -0.042298
    10  C   -0.260319   0.122548
    11  C   -0.380151   0.051302
    12  C   -0.046064   0.027449
    13  C    0.569552   0.151831
    14  C    0.114322   0.007744
    15  O   -0.361178   0.014962
    16  N   -0.310076   0.088947
    17  C    0.263275  -0.520095
    18  C   -0.199677   0.147933
    19  O   -0.281286   0.043187
    20  O   -0.219352   0.012619
    21  H    0.139725  -0.003651
    22  H    0.107509  -0.000897
    23  H    0.183384  -0.005246
    24  H    0.076108   0.053293
    25  H    0.143587   0.010842
    26  H   -0.102550   0.303973
    27  H    0.196595  -0.010708
    28  H    0.139240   0.009061
    29  H    0.122470  -0.010367
    30  H    0.118517  -0.004542
    31  H    0.169801   0.001482
    32  H    0.514747   0.022106
    33  H    0.218979  -0.018993
    34  H   -0.364702   0.538149
    35  H    0.280847   0.012434
 Sum of Mulliken charges =  -1.00000   1.00000

 Dipole moment (field-independent basis, Debye):
    X=              0.4313    Y=             -1.1799    Z=              1.7809  Tot=              2.1794
 Quadrupole moment (field-independent basis, Debye-Ang):
   XX=           -182.3722   YY=           -140.5800   ZZ=           -137.6109
   XY=              0.3388   XZ=              4.6692   YZ=             -3.0656

 Summary of Natural Population Analysis:

                                       Natural Population
                Natural  -----------------------------------------------
    Atom  No    Charge         Core      Valence    Rydberg      Total
 -----------------------------------------------------------------------
      C    1   -0.16620      0.99956     2.15977    0.00686     3.16620
      C    2   -0.09291      0.99957     2.08491    0.00844     3.09291
      C    3   -0.09579      0.99960     2.08455    0.01165     3.09579
      N    4   -0.28834      0.99970     2.77545    0.01319     3.78834
      C    5   -0.09616      0.99958     2.08474    0.01184     3.09616
      C    6    0.26540      0.99960     1.71846    0.01654     2.73460
      N    7   -0.28562      0.99965     2.77658    0.00940     3.78562
      C    8    0.11459      0.99947     1.87417    0.01178     2.88541
      C    9   -0.11887      0.99954     2.10995    0.00938     3.11887
      C   10   -0.06974      0.99958     2.06117    0.00899     3.06974
      C   11   -0.10742      0.99958     2.09863    0.00922     3.10742
      C   12   -0.07928      0.99955     2.07115    0.00858     3.07928
      C   13   -0.06559      0.99944     2.05645    0.00970     3.06559
      C   14    0.33907      0.99961     1.64077    0.02054     2.66093
      O   15   -0.32597      0.99988     3.32048    0.00561     4.32597
      N   16   -0.29140      0.99962     2.78387    0.00790     3.79140
      C   17   -0.12722      0.99956     2.11656    0.01110     3.12722
      C   18    0.41973      0.99974     1.55399    0.02654     2.58027
      O   19   -0.30628      0.99986     3.30046    0.00596     4.30628
      O   20   -0.35035      0.99987     3.34330    0.00719     4.35035
      H   21    0.09242      0.00000     0.40652    0.00107     0.40758
      H   22    0.08952      0.00000     0.40949    0.00100     0.41048
      H   23    0.09347      0.00000     0.40519    0.00135     0.40653
      H   24    0.08335      0.00000     0.41533    0.00133     0.41665
      H   25    0.10290      0.00000     0.39595    0.00115     0.39710
      H   26    0.10980      0.00000     0.38830    0.00190     0.39020
      H   27    0.09616      0.00000     0.40227    0.00157     0.40384
      H   28    0.10016      0.00000     0.39836    0.00148     0.39984
      H   29    0.09055      0.00000     0.40847    0.00098     0.40945
      H   30    0.09226      0.00000     0.40679    0.00095     0.40774
      H   31    0.10648      0.00000     0.39240    0.00111     0.39352
      H   32    0.21844      0.00000     0.27829    0.00327     0.28156
      H   33    0.09560      0.00000     0.40329    0.00110     0.40440
      H   34    0.11598      0.00000     0.38127    0.00275     0.38402
      H   35    0.24127      0.00000     0.25628    0.00246     0.25873
 =======================================================================
   * Total *   -0.00000     19.99254    51.76359    0.24387    72.00000

 Normal termination of Gaussian 16 at Sat Dec 12 17:49:24 2020.
