 Gaussian 16, Revision A.03,

 -----------------------------------------------------------
 # opt freq B3LYP/6-31G(d) empiricaldispersion=gd3bj scf=xqc
 -----------------------------------------------------------

 -------------------------------
 CID_143085919_JID_2437_neutraal
 -------------------------------
 Symbolic Z-matrix:
 Charge =  0 Multiplicity = 1

 SCF Done:  E(RB3LYP) =  -524.970335337     A.U. after   14 cycles
 SCF Done:  E(RB3LYP) =  -524.972313238     A.U. after   12 cycles
 SCF Done:  E(RB3LYP) =  -524.972391640     A.U. after   11 cycles
 SCF Done:  E(RB3LYP) =  -524.972720037     A.U. after   11 cycles
 SCF Done:  E(RB3LYP) =  -524.972831848     A.U. after   10 cycles
 SCF Done:  E(RB3LYP) =  -524.972897418     A.U. after   10 cycles
 SCF Done:  E(RB3LYP) =  -524.972959022     A.U. after   10 cycles
 SCF Done:  E(RB3LYP) =  -524.972985701     A.U. after    9 cycles
 SCF Done:  E(RB3LYP) =  -524.973002161     A.U. after    9 cycles
 SCF Done:  E(RB3LYP) =  -524.973032876     A.U. after    9 cycles
 SCF Done:  E(RB3LYP) =  -524.974057080     A.U. after    7 cycles
 SCF Done:  E(RB3LYP) =  -524.974057297     A.U. after    7 cycles
 SCF Done:  E(RB3LYP) =  -524.974057486     A.U. after    7 cycles
 SCF Done:  E(RB3LYP) =  -524.974057616     A.U. after    7 cycles
 SCF Done:  E(RB3LYP) =  -524.974057671     A.U. after    7 cycles
 SCF Done:  E(RB3LYP) =  -524.974057700     A.U. after    7 cycles
 Optimization completed.
    -- Stationary point found.
 Normal termination of Gaussian 16 at Wed Dec  9 18:43:03 2020.

 --------------------------------------------------------------------
 #N Geom=AllCheck Guess=TCheck SCRF=Check GenChk RB3LYP/6-31G(d) Freq
 --------------------------------------------------------------------

 Structure from the checkpoint file:  "JID_2437.chk"
 -------------------------------
 CID_143085919_JID_2437_neutraal
 -------------------------------
 Charge =  0 Multiplicity = 1

 SCF Done:  E(RB3LYP) =  -524.974057700     A.U. after    1 cycles

  Exact polarizability: 135.803  -1.227 111.510   2.821   3.875 106.020
 Approx polarizability: 179.154  -3.558 146.597   0.197   5.011 151.528

                      1                      2                      3
                      A                      A                      A
 Frequencies --     11.8980                32.2946                36.8005
 Red. masses --      3.0767                 2.4432                 2.7295
 Frc consts  --      0.0003                 0.0015                 0.0022
 IR Inten    --      0.1435                 0.1242                 0.0708

                      4                      5                      6
                      A                      A                      A
 Frequencies --     40.5446                46.6273                64.1868
 Red. masses --      3.7891                 3.3152                 2.9070
 Frc consts  --      0.0037                 0.0042                 0.0071
 IR Inten    --      0.3504                 1.1190                 0.7794

                      7                      8                      9
                      A                      A                      A
 Frequencies --     74.5030                77.8000                99.1546
 Red. masses --      2.8248                 1.7559                 1.6048
 Frc consts  --      0.0092                 0.0063                 0.0093
 IR Inten    --      0.1322                 0.4447                 0.3575

                     10                     11                     12
                      A                      A                      A
 Frequencies --    115.2487               144.2027               171.0747
 Red. masses --      2.7386                 1.7099                 1.0799
 Frc consts  --      0.0214                 0.0209                 0.0186
 IR Inten    --      2.2594                 0.1776                 0.4636

                     13                     14                     15
                      A                      A                      A
 Frequencies --    203.5711               212.1640               246.7567
 Red. masses --      1.5322                 2.5994                 1.1806
 Frc consts  --      0.0374                 0.0689                 0.0424
 IR Inten    --      0.2499                 1.3175                 0.2079

                     16                     17                     18
                      A                      A                      A
 Frequencies --    287.1501               313.5567               324.4621
 Red. masses --      1.7016                 2.6997                 1.0168
 Frc consts  --      0.0827                 0.1564                 0.0631
 IR Inten    --      0.3880                 0.5863                 0.2854

                     19                     20                     21
                      A                      A                      A
 Frequencies --    372.6838               403.4891               431.6020
 Red. masses --      2.2799                 2.6310                 2.3344
 Frc consts  --      0.1866                 0.2524                 0.2562
 IR Inten    --      1.0256                 0.1576                 2.3334

                     22                     23                     24
                      A                      A                      A
 Frequencies --    484.1453               527.5379               545.5069
 Red. masses --      2.5466                 2.0313                 2.1965
 Frc consts  --      0.3517                 0.3331                 0.3851
 IR Inten    --      3.2042                11.8190                18.6478

                     25                     26                     27
                      A                      A                      A
 Frequencies --    596.4110               654.6471               739.1826
 Red. masses --      3.2741                 1.5956                 1.2871
 Frc consts  --      0.6862                 0.4029                 0.4144
 IR Inten    --     13.9180                93.4956                12.3460

                     28                     29                     30
                      A                      A                      A
 Frequencies --    805.0260               832.7991               836.9939
 Red. masses --      1.9836                 2.6005                 1.0587
 Frc consts  --      0.7574                 1.0626                 0.4370
 IR Inten    --      0.2215                 0.5078                 4.0588

                     31                     32                     33
                      A                      A                      A
 Frequencies --    842.5613               844.7000               915.1034
 Red. masses --      1.1328                 1.7090                 1.5088
 Frc consts  --      0.4738                 0.7184                 0.7444
 IR Inten    --     11.1117                 1.0946                 0.1070

                     34                     35                     36
                      A                      A                      A
 Frequencies --    927.9578               976.4109               995.7803
 Red. masses --      1.6575                 1.5608                 1.7885
 Frc consts  --      0.8409                 0.8767                 1.0449
 IR Inten    --      0.7439                 9.7301                 4.0605

                     37                     38                     39
                      A                      A                      A
 Frequencies --   1012.7799              1030.4100              1052.6130
 Red. masses --      3.2866                 1.5872                 1.4314
 Frc consts  --      1.9862                 0.9929                 0.9344
 IR Inten    --      0.5100                 6.5919                 4.8304

                     40                     41                     42
                      A                      A                      A
 Frequencies --   1063.9834              1074.3022              1107.5309
 Red. masses --      1.7190                 1.6269                 2.3603
 Frc consts  --      1.1465                 1.1063                 1.7058
 IR Inten    --      7.7430                 3.4816                 2.4816

                     43                     44                     45
                      A                      A                      A
 Frequencies --   1166.2129              1172.9043              1197.5436
 Red. masses --      2.0878                 2.1098                 2.5163
 Frc consts  --      1.6730                 1.7101                 2.1261
 IR Inten    --      3.9354                 1.7228                35.4882

                     46                     47                     48
                      A                      A                      A
 Frequencies --   1238.4846              1239.8922              1254.6711
 Red. masses --      1.4579                 1.4568                 1.3680
 Frc consts  --      1.3175                 1.3195                 1.2688
 IR Inten    --      0.3123                 0.4740                 1.7713

                     49                     50                     51
                      A                      A                      A
 Frequencies --   1279.8166              1327.5513              1356.7451
 Red. masses --      1.3534                 1.1929                 1.2585
 Frc consts  --      1.3061                 1.2386                 1.3649
 IR Inten    --      7.0625                 5.3509                19.1512

                     52                     53                     54
                      A                      A                      A
 Frequencies --   1370.0715              1374.2308              1392.6362
 Red. masses --      1.3532                 1.7030                 1.4214
 Frc consts  --      1.4966                 1.8949                 1.6242
 IR Inten    --     38.6596                69.2296                 5.4220

                     55                     56                     57
                      A                      A                      A
 Frequencies --   1407.4111              1416.5519              1426.6707
 Red. masses --      1.3967                 1.4150                 1.5732
 Frc consts  --      1.6301                 1.6729                 1.8866
 IR Inten    --      1.8264                 2.0683                76.2030

                     58                     59                     60
                      A                      A                      A
 Frequencies --   1430.2857              1439.8136              1444.9864
 Red. masses --      1.2347                 1.2786                 1.2599
 Frc consts  --      1.4881                 1.5616                 1.5499
 IR Inten    --      5.4660                 3.8928                12.9366

                     61                     62                     63
                      A                      A                      A
 Frequencies --   1454.5442              1497.5586              1501.9968
 Red. masses --      1.2473                 1.5524                 1.0669
 Frc consts  --      1.5549                 2.0513                 1.4181
 IR Inten    --      1.6353                44.2763                28.0257

                     64                     65                     66
                      A                      A                      A
 Frequencies --   1509.0618              1515.8683              1521.7704
 Red. masses --      1.0867                 1.0525                 1.0649
 Frc consts  --      1.4580                 1.4250                 1.4530
 IR Inten    --      0.3841                 9.9551                 8.4328

                     67                     68                     69
                      A                      A                      A
 Frequencies --   1525.3032              1528.3551              1531.9934
 Red. masses --      1.0868                 1.0463                 1.0306
 Frc consts  --      1.4897                 1.4399                 1.4252
 IR Inten    --      3.5883                 4.1708                 4.0181

                     70                     71                     72
                      A                      A                      A
 Frequencies --   1532.7502              1534.0132              1536.0640
 Red. masses --      1.0811                 1.0411                 1.0606
 Frc consts  --      1.4964                 1.4434                 1.4744
 IR Inten    --      6.1281                 1.1737                 6.4404

                     73                     74                     75
                      A                      A                      A
 Frequencies --   1537.4661              1540.8063              1548.7962
 Red. masses --      1.0650                 1.0820                 1.0502
 Frc consts  --      1.4832                 1.5134                 1.4842
 IR Inten    --     10.5092                 1.4465                 5.8486

                     76                     77                     78
                      A                      A                      A
 Frequencies --   1782.1599              3030.1504              3034.8841
 Red. masses --      7.5077                 1.0671                 1.0622
 Frc consts  --     14.0492                 5.7728                 5.7641
 IR Inten    --    408.8202                16.8468                18.9512

                     79                     80                     81
                      A                      A                      A
 Frequencies --   3041.0601              3042.8747              3048.7943
 Red. masses --      1.0640                 1.0362                 1.0377
 Frc consts  --      5.7976                 5.6529                 5.6830
 IR Inten    --     27.5545                33.2889                30.3079

                     82                     83                     84
                      A                      A                      A
 Frequencies --   3049.8457              3050.3631              3063.0550
 Red. masses --      1.0377                 1.0424                 1.0397
 Frc consts  --      5.6872                 5.7146                 5.7471
 IR Inten    --     46.5057                12.2737                 4.1786

                     85                     86                     87
                      A                      A                      A
 Frequencies --   3066.3708              3071.6413              3091.7314
 Red. masses --      1.0939                 1.1023                 1.1003
 Frc consts  --      6.0599                 6.1276                 6.1966
 IR Inten    --     31.4003                31.0412                14.3028

                     88                     89                     90
                      A                      A                      A
 Frequencies --   3096.5091              3103.8299              3106.9586
 Red. masses --      1.0924                 1.1004                 1.0900
 Frc consts  --      6.1711                 6.2458                 6.1994
 IR Inten    --     43.5049                35.8299                18.5455

                     91                     92                     93
                      A                      A                      A
 Frequencies --   3113.5443              3118.8273              3119.4973
 Red. masses --      1.1011                 1.1014                 1.1021
 Frc consts  --      6.2891                 6.3122                 6.3190
 IR Inten    --     46.5669                38.6266                74.8224

                     94                     95                     96
                      A                      A                      A
 Frequencies --   3124.7597              3125.7356              3139.7338
 Red. masses --      1.0977                 1.0964                 1.1031
 Frc consts  --      6.3150                 6.3111                 6.4071
 IR Inten    --     27.1692                26.6382                26.7065

                     97                     98                     99
                      A                      A                      A
 Frequencies --   3142.4804              3179.7417              3570.3387
 Red. masses --      1.1017                 1.1004                 1.0751
 Frc consts  --      6.4101                 6.5554                 8.0746
 IR Inten    --     21.3457                 8.5946                11.6202

 - Thermochemistry -
 -------------------
 Temperature   298.150 Kelvin.  Pressure   1.00000 Atm.
 Atom     1 has atomic number  6 and mass  12.00000

 Molecular mass:   173.17796 amu.
 Principal axes and moments of inertia in atomic units:
                           1         2         3
     Eigenvalues --  1974.735023501.184464508.81630
           X            0.99902   0.04423  -0.00351
           Y           -0.04420   0.99900   0.00661
           Z            0.00380  -0.00645   0.99997
 This molecule is an asymmetric top.
 Rotational symmetry number  1.
 Warning -- assumption of classical behavior for rotation
           may cause significant error
 Rotational temperatures (Kelvin)      0.04386     0.02474     0.01921
 Rotational constants (GHZ):           0.91392     0.51547     0.40027
 Zero-point vibrational energy     847218.5 (Joules/Mol)
                                  202.49008 (Kcal/Mol)
 Warning -- explicit consideration of  25 degrees of freedom as
           vibrations may cause significant error
 Vibrational temperatures:     17.12    46.46    52.95    58.33    67.09
          (Kelvin)             92.35   107.19   111.94   142.66   165.82
                              207.48   246.14   292.89   305.26   355.03
                              413.14   451.14   466.83   536.21   580.53
                              620.98   696.58   759.01   784.86   858.10
                              941.89  1063.52  1158.25  1198.21  1204.25
                             1212.26  1215.33  1316.63  1335.12  1404.84
                             1432.71  1457.16  1482.53  1514.48  1530.83
                             1545.68  1593.49  1677.92  1687.55  1723.00
                             1781.90  1783.93  1805.19  1841.37  1910.05
                             1952.05  1971.23  1977.21  2003.69  2024.95
                             2038.10  2052.66  2057.86  2071.57  2079.01
                             2092.76  2154.65  2161.04  2171.20  2181.00
                             2189.49  2194.57  2198.96  2204.20  2205.29
                             2207.10  2210.05  2212.07  2216.88  2228.37
                             2564.13  4359.71  4366.52  4375.41  4378.02
                             4386.54  4388.05  4388.79  4407.05  4411.82
                             4419.41  4448.31  4455.19  4465.72  4470.22
                             4479.70  4487.30  4488.26  4495.83  4497.24
                             4517.38  4521.33  4574.94  5136.92

 Zero-point correction=                           0.322688 (Hartree/Particle)
 Thermal correction to Energy=                    0.340674
 Thermal correction to Enthalpy=                  0.341618
 Thermal correction to Gibbs Free Energy=         0.272960
 Sum of electronic and zero-point Energies=           -524.651369
 Sum of electronic and thermal Energies=              -524.633384
 Sum of electronic and thermal Enthalpies=            -524.632440
 Sum of electronic and thermal Free Energies=         -524.701098

                     E (Thermal)             CV                S
                      KCal/Mol        Cal/Mol-Kelvin    Cal/Mol-Kelvin
 Total                  213.776             60.822            144.502
 Electronic               0.000              0.000              0.000
 Translational            0.889              2.981             41.355
 Rotational               0.889              2.981             31.811
 Vibrational            211.998             54.860             71.336
 Vibration     1          0.593              1.987              7.666
 Vibration     2          0.594              1.983              5.683
 Vibration     3          0.594              1.982              5.424
 Vibration     4          0.594              1.981              5.232
 Vibration     5          0.595              1.979              4.956
 Vibration     6          0.597              1.971              4.324
 Vibration     7          0.599              1.966              4.031
 Vibration     8          0.599              1.964              3.946
 Vibration     9          0.604              1.950              3.471
 Vibration    10          0.608              1.937              3.179
 Vibration    11          0.616              1.909              2.747
 Vibration    12          0.626              1.878              2.424
 Vibration    13          0.639              1.835              2.101
 Vibration    14          0.643              1.822              2.025
 Vibration    15          0.661              1.768              1.754
 Vibration    16          0.684              1.698              1.491
 Vibration    17          0.701              1.648              1.343
 Vibration    18          0.709              1.627              1.288
 Vibration    19          0.744              1.528              1.069
 Vibration    20          0.769              1.463              0.950
 Vibration    21          0.793              1.401              0.853
 Vibration    22          0.840              1.285              0.699
 Vibration    23          0.882              1.189              0.593
 Vibration    24          0.901              1.150              0.554
 Vibration    25          0.954              1.039              0.456

                           ! Non-Optimized Parameters !
 Normal termination of Gaussian 16 at Wed Dec  9 18:51:27 2020.

 ----------------------------------------------------------------------
 # B3LYP/6-311++G(d,p) empiricaldispersion=gd3bj scf=xqc pop=npa geom=c
 heck
 ----------------------------------------------------------------------

 ---------------------------------------
 CID_143085919_JID_2437_Energie_neutraal
 ---------------------------------------
 Structure from the checkpoint file:  "JID_2437.chk"
 Charge =  0 Multiplicity = 1

 SCF Done:  E(RB3LYP) =  -525.132758614     A.U. after   13 cycles
 Normal termination of Gaussian 16 at Wed Dec  9 18:55:21 2020.

 ----------------------------------------------------------------------
 # B3LYP/6-311++G(d,p) empiricaldispersion=gd3bj scf=xqc pop=npa geom=c
 heck
 ----------------------------------------------------------------------

 -------------------------------------
 CID_143085919_JID_2437_Energie_kation
 -------------------------------------
 Structure from the checkpoint file:  "JID_2437.chk"
 Charge =  1 Multiplicity = 2

 SCF Done:  E(UB3LYP) =  -524.804294582     A.U. after   23 cycles
 Normal termination of Gaussian 16 at Wed Dec  9 19:04:36 2020.
 Gaussian 16:  ES64L-G16RevA.03 25-Dec-2016

 ----------------------------------------------------------------------
 # B3LYP/6-311++G(d,p) empiricaldispersion=gd3bj scf=xqc pop=npa geom=c
 heck
 ----------------------------------------------------------------------

 ------------------------------------
 CID_143085919_JID_2437_Energie_anion
 ------------------------------------
 Structure from the checkpoint file:  "JID_2437.chk"
 Charge = -1 Multiplicity = 2

                         Standard orientation:
 ---------------------------------------------------------------------
 Center     Atomic      Atomic             Coordinates (Angstroms)
 Number     Number       Type             X           Y           Z
 ---------------------------------------------------------------------
      1          6           0        2.321855    1.918482   -0.851988
      2          6           0        3.745013    1.565079   -0.415588
      3          6           0       -1.994710    2.257423    1.066015
      4          6           0       -2.973636    1.215180    0.516972
      5          6           0       -2.630711    0.723258   -0.898135
      6          6           0       -1.248472    0.068436   -1.040195
      7          6           0       -0.995175   -1.146306   -0.126595
      8          6           0       -1.973138   -2.297390   -0.378314
      9          7           0        0.375918   -1.627037   -0.287452
     10          6           0        1.478416   -1.322545    0.465560
     11          8           0        2.604096   -1.637122    0.092929
     12          6           0        1.239786   -0.610168    1.787792
     13          1           0        1.644262    1.976288    0.008803
     14          1           0        1.922159    1.161395   -1.535781
     15          1           0        2.280466    2.887291   -1.363678
     16          1           0        4.131187    2.291474    0.309265
     17          1           0        3.776150    0.569597    0.036724
     18          1           0        4.427406    1.559714   -1.273378
     19          1           0       -0.987198    1.845497    1.191901
     20          1           0       -2.320879    2.630279    2.042924
     21          1           0       -1.914389    3.116307    0.388691
     22          1           0       -3.026912    0.362668    1.207883
     23          1           0       -3.983115    1.645393    0.497956
     24          1           0       -3.407806    0.024591   -1.233023
     25          1           0       -2.675005    1.576568   -1.588354
     26          1           0       -1.108568   -0.251875   -2.082339
     27          1           0       -0.463802    0.807389   -0.844155
     28          1           0       -1.097622   -0.833324    0.915311
     29          1           0       -1.910760   -2.638711   -1.419461
     30          1           0       -1.741545   -3.145356    0.273000
     31          1           0       -3.005679   -1.987801   -0.190620
     32          1           0        0.613113   -2.044982   -1.180895
     33          1           0        0.807274    0.384157    1.634128
     34          1           0        0.558642   -1.175105    2.433705
     35          1           0        2.203060   -0.503917    2.286964
 ---------------------------------------------------------------------

 SCF Done:  E(UB3LYP) =  -525.121077404     A.U. after   30 cycles

 The electronic state is 2-A.
 Alpha  occ. eigenvalues --  -18.99010 -14.23601 -10.17838 -10.11827 -10.07935
 Alpha  occ. eigenvalues --  -10.06999 -10.06646 -10.06614 -10.06589 -10.06522
 Alpha  occ. eigenvalues --  -10.06317 -10.05884  -0.94091  -0.82898  -0.71011
 Alpha  occ. eigenvalues --   -0.66804  -0.66026  -0.64305  -0.61483  -0.56310
 Alpha  occ. eigenvalues --   -0.52379  -0.51789  -0.48798  -0.46268  -0.40381
 Alpha  occ. eigenvalues --   -0.38592  -0.36623  -0.36359  -0.34908  -0.34395
 Alpha  occ. eigenvalues --   -0.34017  -0.33231  -0.32058  -0.31198  -0.30703
 Alpha  occ. eigenvalues --   -0.29345  -0.28980  -0.28206  -0.27562  -0.27426
 Alpha  occ. eigenvalues --   -0.25909  -0.25631  -0.25268  -0.24934  -0.23113
 Alpha  occ. eigenvalues --   -0.22553  -0.22343  -0.16290  -0.15597   0.04242
 Alpha virt. eigenvalues --    0.06670   0.06852   0.07067   0.08462   0.09011
 Alpha virt. eigenvalues --    0.09246   0.09461   0.10057   0.10719   0.11031
 Alpha virt. eigenvalues --    0.11339   0.12068   0.12204   0.12350   0.12890

  Beta  occ. eigenvalues --  -18.99007 -14.23591 -10.17834 -10.11818 -10.07906
  Beta  occ. eigenvalues --  -10.06985 -10.06625 -10.06598 -10.06544 -10.06495
  Beta  occ. eigenvalues --  -10.06311 -10.05850  -0.94083  -0.82879  -0.70973
  Beta  occ. eigenvalues --   -0.66761  -0.66009  -0.64262  -0.61425  -0.56238
  Beta  occ. eigenvalues --   -0.52342  -0.51717  -0.48763  -0.46191  -0.40343
  Beta  occ. eigenvalues --   -0.38557  -0.36583  -0.36332  -0.34879  -0.34382
  Beta  occ. eigenvalues --   -0.33996  -0.33189  -0.32014  -0.31169  -0.30676
  Beta  occ. eigenvalues --   -0.29301  -0.28938  -0.28172  -0.27535  -0.27394
  Beta  occ. eigenvalues --   -0.25858  -0.25589  -0.25253  -0.24920  -0.23079
  Beta  occ. eigenvalues --   -0.22508  -0.22293  -0.16278  -0.15586
  Beta virt. eigenvalues --    0.06381   0.07184   0.07638   0.07810   0.08847
  Beta virt. eigenvalues --    0.09326   0.09679   0.09727   0.10518   0.11070
  Beta virt. eigenvalues --    0.11237   0.11601   0.12448   0.12557   0.12720

 Mulliken charges and spin densities:
               1          2
     1  C   -0.165784  -0.040473
     2  C   -0.336482  -0.226647
     3  C    0.865586  -1.441254
     4  C   -1.023277   0.843171
     5  C    1.388979  -1.790438
     6  C   -0.275666   0.470906
     7  C   -1.774779   1.163849
     8  C    1.710490  -2.268789
     9  N   -0.029226   0.113926
    10  C   -0.120042   0.109528
    11  O   -0.322793  -0.000506
    12  C    0.237780  -0.612887
    13  H    0.125717  -0.034467
    14  H    0.025246   0.108058
    15  H   -0.068303   0.206015
    16  H    0.034738   0.083177
    17  H    0.196666  -0.014604
    18  H    0.080602   0.033386
    19  H    0.297122  -0.164411
    20  H   -0.474365   0.621220
    21  H   -0.119278   0.249863
    22  H   -0.339692   0.488933
    23  H   -0.391339   0.559805
    24  H   -0.078948   0.230694
    25  H   -0.285851   0.452303
    26  H   -0.194442   0.360817
    27  H    0.411703  -0.342545
    28  H    0.656333  -0.473774
    29  H   -0.353320   0.507098
    30  H   -0.279058   0.437612
    31  H   -0.153015   0.311818
    32  H    0.177697   0.113493
    33  H   -0.135039   0.306682
    34  H   -0.237854   0.402270
    35  H   -0.050107   0.236172
 Sum of Mulliken charges =  -1.00000   1.00000

 Dipole moment (field-independent basis, Debye):
    X=              4.2411    Y=              0.3794    Z=             -0.9914  Tot=              4.3719
 Quadrupole moment (field-independent basis, Debye-Ang):
   XX=           -151.3647   YY=           -131.9088   ZZ=           -119.0947
   XY=              7.3595   XZ=              1.7411   YZ=             -2.9280

 Summary of Natural Population Analysis:

                                       Natural Population
                Natural  -----------------------------------------------
    Atom  No    Charge         Core      Valence    Rydberg      Total
 -----------------------------------------------------------------------
      C    1   -0.28633      0.99968     2.28251    0.00413     3.28633
      C    2   -0.29070      0.99968     2.28696    0.00407     3.29070
      C    3   -0.28608      0.99966     2.28017    0.00625     3.28608
      C    4   -0.19141      0.99964     2.18377    0.00799     3.19141
      C    5   -0.18928      0.99962     2.18102    0.00864     3.18928
      C    6   -0.19436      0.99960     2.18537    0.00939     3.19436
      C    7   -0.01658      0.99958     2.00551    0.01149     3.01658
      C    8   -0.28746      0.99964     2.28168    0.00614     3.28746
      N    9   -0.31862      0.99966     2.80831    0.01066     3.81862
      C   10    0.34399      0.99969     1.63481    0.02151     2.65601
      O   11   -0.33026      0.99988     3.32452    0.00586     4.33026
      C   12   -0.33534      0.99962     2.33058    0.00514     3.33534
      H   13    0.09433      0.00000     0.40417    0.00150     0.40567
      H   14    0.09855      0.00000     0.40032    0.00114     0.40145
      H   15    0.09290      0.00000     0.40607    0.00104     0.40710
      H   16    0.08996      0.00000     0.40901    0.00104     0.41004
      H   17    0.11025      0.00000     0.38849    0.00127     0.38975
      H   18    0.09132      0.00000     0.40772    0.00097     0.40868
      H   19    0.09180      0.00000     0.40649    0.00171     0.40820
      H   20    0.10123      0.00000     0.39753    0.00124     0.39877
      H   21    0.09587      0.00000     0.40299    0.00114     0.40413
      H   22    0.09305      0.00000     0.40524    0.00171     0.40695
      H   23    0.09815      0.00000     0.40031    0.00154     0.40185
      H   24    0.09890      0.00000     0.39952    0.00158     0.40110
      H   25    0.09723      0.00000     0.40159    0.00118     0.40277
      H   26    0.09781      0.00000     0.40090    0.00129     0.40219
      H   27    0.10016      0.00000     0.39767    0.00216     0.39984
      H   28    0.09991      0.00000     0.39684    0.00325     0.40009
      H   29    0.09822      0.00000     0.40030    0.00148     0.40178
      H   30    0.10389      0.00000     0.39485    0.00126     0.39611
      H   31    0.10522      0.00000     0.39355    0.00124     0.39478
      H   32    0.19184      0.00000     0.30592    0.00225     0.30816
      H   33    0.10866      0.00000     0.38985    0.00148     0.39134
      H   34    0.11125      0.00000     0.38758    0.00117     0.38875
      H   35    0.11197      0.00000     0.38717    0.00086     0.38803
 =======================================================================
   * Total *    0.00000     11.99596    36.86928    0.13476    49.00000

 Normal termination of Gaussian 16 at Wed Dec  9 19:16:43 2020.
