 Gaussian 16, Revision A.03,

 -----------------------------------------------------------
 # opt freq B3LYP/6-31G(d) empiricaldispersion=gd3bj scf=xqc
 -----------------------------------------------------------

 ------------------------------
 CID_21907623_JID_9669_neutraal
 ------------------------------
 Symbolic Z-matrix:
 Charge =  0 Multiplicity = 1

 SCF Done:  E(RB3LYP) =  -801.702966024     A.U. after   15 cycles
 SCF Done:  E(RB3LYP) =  -801.707463569     A.U. after   13 cycles
 SCF Done:  E(RB3LYP) =  -801.707903833     A.U. after   12 cycles
 SCF Done:  E(RB3LYP) =  -801.708064301     A.U. after   12 cycles
 SCF Done:  E(RB3LYP) =  -801.708161909     A.U. after   12 cycles
 SCF Done:  E(RB3LYP) =  -801.708220297     A.U. after   12 cycles
 SCF Done:  E(RB3LYP) =  -801.708430094     A.U. after   11 cycles
 SCF Done:  E(RB3LYP) =  -801.707798434     A.U. after   14 cycles
 SCF Done:  E(RB3LYP) =  -801.708950629     A.U. after   12 cycles
 SCF Done:  E(RB3LYP) =  -801.709028508     A.U. after   11 cycles
 SCF Done:  E(RB3LYP) =  -801.709123396     A.U. after   11 cycles
 SCF Done:  E(RB3LYP) =  -801.709151613     A.U. after   11 cycles
 SCF Done:  E(RB3LYP) =  -801.709159521     A.U. after   11 cycles
 SCF Done:  E(RB3LYP) =  -801.709159975     A.U. after    8 cycles
 SCF Done:  E(RB3LYP) =  -801.709160097     A.U. after    8 cycles
 Optimization completed.
    -- Stationary point found.
 Normal termination of Gaussian 16 at Mon Dec 14 17:07:59 2020.

 --------------------------------------------------------------------
 #N Geom=AllCheck Guess=TCheck SCRF=Check GenChk RB3LYP/6-31G(d) Freq
 --------------------------------------------------------------------

 Structure from the checkpoint file:  "JID_9669.chk"
 ------------------------------
 CID_21907623_JID_9669_neutraal
 ------------------------------
 Charge =  0 Multiplicity = 1

 SCF Done:  E(RB3LYP) =  -801.709160097     A.U. after    1 cycles

  Exact polarizability: 174.113   0.110 223.811   8.584 -14.507 118.069
 Approx polarizability: 247.949   3.185 401.656  20.232 -38.352 207.005

                      1                      2                      3
                      A                      A                      A
 Frequencies --     16.3892                36.0859                48.5048
 Red. masses --      5.8286                 4.1851                 5.3988
 Frc consts  --      0.0009                 0.0032                 0.0075
 IR Inten    --      2.0685                 0.2812                 1.7454

                      4                      5                      6
                      A                      A                      A
 Frequencies --    101.4542               107.3267               131.5876
 Red. masses --      7.2165                 7.3485                 4.7894
 Frc consts  --      0.0438                 0.0499                 0.0489
 IR Inten    --      1.4884                 2.1837                 0.8804

                      7                      8                      9
                      A                      A                      A
 Frequencies --    179.9904               192.2098               253.3242
 Red. masses --      6.0549                 4.8748                 4.7421
 Frc consts  --      0.1156                 0.1061                 0.1793
 IR Inten    --      1.2573                 1.7767                26.2941

                     10                     11                     12
                      A                      A                      A
 Frequencies --    268.4764               281.4118               307.9953
 Red. masses --      4.7245                 1.9215                 2.2513
 Frc consts  --      0.2006                 0.0897                 0.1258
 IR Inten    --      7.0502                54.5443                37.8750

                     13                     14                     15
                      A                      A                      A
 Frequencies --    328.0098               375.7770               407.9198
 Red. masses --      4.3126                 5.3723                 1.4711
 Frc consts  --      0.2734                 0.4470                 0.1442
 IR Inten    --     36.5140                 2.8099                74.7784

                     16                     17                     18
                      A                      A                      A
 Frequencies --    413.7802               415.6781               430.1166
 Red. masses --      6.7827                 2.9760                 2.7141
 Frc consts  --      0.6842                 0.3030                 0.2958
 IR Inten    --      4.9905                 0.3271                 3.6172

                     19                     20                     21
                      A                      A                      A
 Frequencies --    484.6653               505.4337               553.7259
 Red. masses --      5.3997                 6.2672                 4.3769
 Frc consts  --      0.7473                 0.9433                 0.7907
 IR Inten    --      1.9799                 0.5339                 7.2325

                     22                     23                     24
                      A                      A                      A
 Frequencies --    588.6599               609.6244               627.3844
 Red. masses --      4.8673                 2.8514                 5.6270
 Frc consts  --      0.9937                 0.6244                 1.3050
 IR Inten    --      2.4532                20.0137                 9.2457

                     25                     26                     27
                      A                      A                      A
 Frequencies --    634.4635               643.4357               662.5722
 Red. masses --      5.7707                 6.1711                 4.5703
 Frc consts  --      1.3687                 1.5053                 1.1821
 IR Inten    --      0.6810                 0.6031                13.2034

                     28                     29                     30
                      A                      A                      A
 Frequencies --    714.7203               742.3855               769.3609
 Red. masses --      1.8564                 3.9743                 4.1270
 Frc consts  --      0.5587                 1.2905                 1.4393
 IR Inten    --     27.1800                40.3620                 5.1511

                     31                     32                     33
                      A                      A                      A
 Frequencies --    772.0880               798.5718               814.9176
 Red. masses --      2.8387                 2.1036                 2.3678
 Frc consts  --      0.9970                 0.7904                 0.9264
 IR Inten    --     16.3961                20.7910                31.6707

                     34                     35                     36
                      A                      A                      A
 Frequencies --    821.5646               858.5240               858.9463
 Red. masses --      1.6792                 2.9652                 2.3733
 Frc consts  --      0.6678                 1.2877                 1.0317
 IR Inten    --      1.6627                 2.8335                 5.0387

                     37                     38                     39
                      A                      A                      A
 Frequencies --    861.9295               915.2786               929.3226
 Red. masses --      1.5852                 1.4603                 1.4186
 Frc consts  --      0.6939                 0.7208                 0.7218
 IR Inten    --      2.0970                10.1793                 1.6565

                     40                     41                     42
                      A                      A                      A
 Frequencies --    940.7453               948.1409               968.9507
 Red. masses --      1.2721                 4.2391                 1.3528
 Frc consts  --      0.6633                 2.2453                 0.7483
 IR Inten    --      0.7038                 4.2107                 0.0395

                     43                     44                     45
                      A                      A                      A
 Frequencies --    997.4429              1023.2155              1039.0311
 Red. masses --      1.2515                 6.2813                 4.5565
 Frc consts  --      0.7336                 3.8746                 2.8983
 IR Inten    --      0.3320                 1.2533                30.9170

                     46                     47                     48
                      A                      A                      A
 Frequencies --   1059.8935              1094.6690              1111.1109
 Red. masses --      2.1628                 3.1717                 1.4703
 Frc consts  --      1.4315                 2.2393                 1.0695
 IR Inten    --      2.3267                47.1289                30.6061

                     49                     50                     51
                      A                      A                      A
 Frequencies --   1116.5936              1171.0075              1194.6031
 Red. masses --      1.6841                 1.3210                 1.1057
 Frc consts  --      1.2371                 1.0672                 0.9296
 IR Inten    --      8.5685                 2.2126                 0.2587

                     52                     53                     54
                      A                      A                      A
 Frequencies --   1209.5904              1211.4616              1223.4041
 Red. masses --      1.4786                 1.9349                 2.0616
 Frc consts  --      1.2746                 1.6731                 1.8180
 IR Inten    --     10.6698                 2.5306                12.8994

                     55                     56                     57
                      A                      A                      A
 Frequencies --   1236.5811              1259.9975              1289.4473
 Red. masses --      1.5617                 1.7382                 1.6053
 Frc consts  --      1.4070                 1.6259                 1.5726
 IR Inten    --     56.3678                35.7745                15.2168

                     58                     59                     60
                      A                      A                      A
 Frequencies --   1317.3102              1331.4777              1354.5721
 Red. masses --      1.7775                 2.3830                 2.5599
 Frc consts  --      1.8173                 2.4891                 2.7674
 IR Inten    --     14.6364                15.8188                 2.7600

                     61                     62                     63
                      A                      A                      A
 Frequencies --   1368.8238              1383.9303              1397.8256
 Red. masses --      2.4102                 2.5712                 1.8537
 Frc consts  --      2.6607                 2.9014                 2.1340
 IR Inten    --      1.4843                33.7097                23.9492

                     64                     65                     66
                      A                      A                      A
 Frequencies --   1430.8035              1472.1067              1500.7097
 Red. masses --      1.9104                 2.5744                 3.8178
 Frc consts  --      2.3043                 3.2870                 5.0659
 IR Inten    --     16.4591                52.5199                 1.4015

                     67                     68                     69
                      A                      A                      A
 Frequencies --   1506.7988              1512.6664              1545.6777
 Red. masses --      2.1870                 3.6682                 2.2302
 Frc consts  --      2.9255                 4.9452                 3.1392
 IR Inten    --      9.8002                23.2177                 4.4602

                     70                     71                     72
                      A                      A                      A
 Frequencies --   1612.3743              1633.7638              1649.9778
 Red. masses --      6.2859                 5.4260                 5.5718
 Frc consts  --      9.6283                 8.5331                 8.9372
 IR Inten    --     10.5302                 0.5112                 0.2616

                     73                     74                     75
                      A                      A                      A
 Frequencies --   1666.5756              1675.7946              2344.6464
 Red. masses --      5.5726                 6.2096                12.6793
 Frc consts  --      9.1193                10.2744                41.0676
 IR Inten    --      1.1283                22.0170                64.5703

                     76                     77                     78
                      A                      A                      A
 Frequencies --   2968.0192              3173.8147              3186.9700
 Red. masses --      1.0827                 1.0877                 1.0861
 Frc consts  --      5.6196                 6.4556                 6.4995
 IR Inten    --     46.3434                 9.1455                 0.1778

                     79                     80                     81
                      A                      A                      A
 Frequencies --   3197.3541              3198.7586              3206.5359
 Red. masses --      1.0900                 1.0892                 1.0936
 Frc consts  --      6.5655                 6.5665                 6.6246
 IR Inten    --     13.9381                 9.0965                23.9104

                     82                     83                     84
                      A                      A                      A
 Frequencies --   3214.0407              3224.1776              3231.0490
 Red. masses --      1.0978                 1.0941                 1.0916
 Frc consts  --      6.6818                 6.7012                 6.7142
 IR Inten    --     17.0906                 6.8794                 0.7683

                     85                     86                     87
                      A                      A                      A
 Frequencies --   3302.3239              3670.6609              3752.2963
 Red. masses --      1.0971                 1.0802                 1.0664
 Frc consts  --      7.0494                 8.5750                 8.8461
 IR Inten    --      0.5011                81.0998                19.1514

 - Thermochemistry -
 -------------------
 Temperature   298.150 Kelvin.  Pressure   1.00000 Atm.
 Atom     1 has atomic number  6 and mass  12.00000

 Molecular mass:   248.09496 amu.
 Principal axes and moments of inertia in atomic units:
                           1         2         3
     Eigenvalues --  3708.459705551.179448191.90225
           X            0.99899  -0.04482   0.00420
           Y            0.04482   0.99899  -0.00108
           Z           -0.00415   0.00127   0.99999
 This molecule is an asymmetric top.
 Rotational symmetry number  1.
 Warning -- assumption of classical behavior for rotation
           may cause significant error
 Rotational temperatures (Kelvin)      0.02336     0.01560     0.01057
 Rotational constants (GHZ):           0.48666     0.32511     0.22031
 Zero-point vibrational energy     637557.8 (Joules/Mol)
                                  152.37996 (Kcal/Mol)
 Warning -- explicit consideration of  23 degrees of freedom as
           vibrations may cause significant error
 Vibrational temperatures:     23.58    51.92    69.79   145.97   154.42
          (Kelvin)            189.33   258.97   276.55   364.48   386.28
                              404.89   443.14   471.93   540.66   586.91
                              595.34   598.07   618.84   697.33   727.21
                              796.69   846.95   877.11   902.67   912.85
                              925.76   953.29  1028.32  1068.13  1106.94
                             1110.86  1148.97  1172.48  1182.05  1235.22
                             1235.83  1240.12  1316.88  1337.09  1353.52
                             1364.16  1394.10  1435.10  1472.18  1494.93
                             1524.95  1574.98  1598.64  1606.53  1684.82
                             1718.77  1740.33  1743.02  1760.21  1779.16
                             1812.86  1855.23  1895.32  1915.70  1948.93
                             1969.43  1991.17  2011.16  2058.61  2118.03
                             2159.19  2167.95  2176.39  2223.89  2319.85
                             2350.62  2373.95  2397.83  2411.09  3373.42
                             4270.32  4566.41  4585.34  4600.28  4602.30
                             4613.49  4624.29  4638.87  4648.76  4751.31
                             5281.26  5398.72

 Zero-point correction=                           0.242833 (Hartree/Particle)
 Thermal correction to Energy=                    0.258226
 Thermal correction to Enthalpy=                  0.259170
 Thermal correction to Gibbs Free Energy=         0.198498
 Sum of electronic and zero-point Energies=           -801.466327
 Sum of electronic and thermal Energies=              -801.450934
 Sum of electronic and thermal Enthalpies=            -801.449990
 Sum of electronic and thermal Free Energies=         -801.510662

                     E (Thermal)             CV                S
                      KCal/Mol        Cal/Mol-Kelvin    Cal/Mol-Kelvin
 Total                  162.039             60.574            127.696
 Electronic               0.000              0.000              0.000
 Translational            0.889              2.981             42.426
 Rotational               0.889              2.981             33.489
 Vibrational            160.262             54.612             51.781
 Vibration     1          0.593              1.986              7.030
 Vibration     2          0.594              1.982              5.463
 Vibration     3          0.595              1.978              4.877
 Vibration     4          0.604              1.948              3.426
 Vibration     5          0.606              1.943              3.317
 Vibration     6          0.612              1.922              2.923
 Vibration     7          0.629              1.867              2.329
 Vibration     8          0.634              1.851              2.206
 Vibration     9          0.664              1.757              1.707
 Vibration    10          0.673              1.731              1.606
 Vibration    11          0.681              1.708              1.525
 Vibration    12          0.698              1.659              1.373
 Vibration    13          0.711              1.620              1.270
 Vibration    14          0.747              1.522              1.056
 Vibration    15          0.772              1.453              0.934
 Vibration    16          0.777              1.440              0.913
 Vibration    17          0.779              1.436              0.907
 Vibration    18          0.791              1.405              0.858
 Vibration    19          0.841              1.284              0.698
 Vibration    20          0.861              1.238              0.645
 Vibration    21          0.909              1.132              0.537
 Vibration    22          0.946              1.056              0.470
 Vibration    23          0.969              1.011              0.433

                           ! Non-Optimized Parameters !
 Normal termination of Gaussian 16 at Mon Dec 14 17:22:11 2020.

 ----------------------------------------------------------------------
 # B3LYP/6-311++G(d,p) empiricaldispersion=gd3bj scf=xqc pop=npa geom=c
 heck
 ----------------------------------------------------------------------

 --------------------------------------
 CID_21907623_JID_9669_Energie_neutraal
 --------------------------------------
 Structure from the checkpoint file:  "JID_9669.chk"
 Charge =  0 Multiplicity = 1

 SCF Done:  E(RB3LYP) =  -801.927026143     A.U. after   16 cycles
 Normal termination of Gaussian 16 at Mon Dec 14 17:27:14 2020.

 ----------------------------------------------------------------------
 # B3LYP/6-311++G(d,p) empiricaldispersion=gd3bj scf=xqc pop=npa geom=c
 heck
 ----------------------------------------------------------------------

 ------------------------------------
 CID_21907623_JID_9669_Energie_kation
 ------------------------------------
 Structure from the checkpoint file:  "JID_9669.chk"
 Charge =  1 Multiplicity = 2

 SCF Done:  E(UB3LYP) =  -801.637792362     A.U. after   26 cycles
 Normal termination of Gaussian 16 at Mon Dec 14 17:38:13 2020.
 Gaussian 16:  ES64L-G16RevA.03 25-Dec-2016

 ----------------------------------------------------------------------
 # B3LYP/6-311++G(d,p) empiricaldispersion=gd3bj scf=xqc pop=npa geom=c
 heck
 ----------------------------------------------------------------------

 -----------------------------------
 CID_21907623_JID_9669_Energie_anion
 -----------------------------------
 Structure from the checkpoint file:  "JID_9669.chk"
 Charge = -1 Multiplicity = 2

                         Standard orientation:
 ---------------------------------------------------------------------
 Center     Atomic      Atomic             Coordinates (Angstroms)
 Number     Number       Type             X           Y           Z
 ---------------------------------------------------------------------
      1          6           0       -3.316647    2.043847    0.979379
      2          6           0       -2.963751    0.902618    1.706558
      3          6           0       -2.344038   -0.168190    1.068985
      4          6           0       -2.074073   -0.112809   -0.303701
      5          6           0       -2.438121    1.024961   -1.026765
      6          6           0       -3.053218    2.104587   -0.388015
      7          6           0       -1.399042   -1.288494   -0.989842
      8          6           0       -0.049052   -1.589155   -0.408574
      9          6           0        0.385058   -2.811085    0.031877
     10          7           0        1.690033   -2.705194    0.487751
     11          6           0        2.119878   -1.406116    0.351502
     12          6           0        1.040231   -0.664514   -0.213878
     13          6           0        1.206590    0.704274   -0.447617
     14          6           0        2.431634    1.298137   -0.126762
     15          6           0        3.493866    0.540040    0.428933
     16          6           0        3.345938   -0.815127    0.674057
     17          6           0        2.619129    2.698101   -0.358820
     18          7           0        2.774073    3.836006   -0.548115
     19          8           0       -2.177065   -2.483480   -0.865774
     20          1           0       -3.792766    2.882162    1.479812
     21          1           0       -3.166744    0.854169    2.772780
     22          1           0       -2.055831   -1.054789    1.626165
     23          1           0       -2.233178    1.069372   -2.094343
     24          1           0       -3.324566    2.988313   -0.958312
     25          1           0       -1.281051   -1.032014   -2.056612
     26          1           0       -0.141497   -3.752454    0.051734
     27          1           0        2.234283   -3.462764    0.869339
     28          1           0        0.402834    1.305827   -0.855982
     29          1           0        4.427791    1.038655    0.663754
     30          1           0        4.157579   -1.395016    1.103361
     31          1           0       -3.085379   -2.255760   -1.116850
 ---------------------------------------------------------------------

 SCF Done:  E(UB3LYP) =  -801.923652404     A.U. after   33 cycles
 SCF Done:  E(UB3LYP) =  -801.924739265     a.u. after    7 cycles

 The electronic state is 2-A.
 Alpha  occ. eigenvalues --  -19.03465 -14.25122 -14.18946 -10.13818 -10.10104
 Alpha  occ. eigenvalues --  -10.09251 -10.09239 -10.09239 -10.09137 -10.09137
 Alpha  occ. eigenvalues --  -10.09038 -10.08953 -10.08634 -10.08483 -10.07635
 Alpha  occ. eigenvalues --  -10.06886 -10.06767 -10.06276 -10.06149  -0.93701
 Alpha  occ. eigenvalues --   -0.87555  -0.78997  -0.77363  -0.74413  -0.70241
 Alpha  occ. eigenvalues --   -0.66999  -0.66275  -0.65115  -0.62705  -0.58621
 Alpha  occ. eigenvalues --   -0.54134  -0.52470  -0.51301  -0.50181  -0.46596
 Alpha  occ. eigenvalues --   -0.44736  -0.43512  -0.41867  -0.40316  -0.38500
 Alpha  occ. eigenvalues --   -0.37934  -0.36217  -0.34286  -0.34193  -0.33700
 Alpha  occ. eigenvalues --   -0.33574  -0.32774  -0.31710  -0.29363  -0.29063
 Alpha  occ. eigenvalues --   -0.28614  -0.27967  -0.27000  -0.26218  -0.25012
 Alpha  occ. eigenvalues --   -0.24885  -0.23757  -0.21641  -0.21432  -0.20343
 Alpha  occ. eigenvalues --   -0.17619  -0.17225  -0.16283  -0.12546  -0.10884
 Alpha  occ. eigenvalues --    0.03970
 Alpha virt. eigenvalues --    0.05755   0.06059   0.06439   0.06908   0.07130
 Alpha virt. eigenvalues --    0.07778   0.08406   0.08809   0.09170   0.09861
 Alpha virt. eigenvalues --    0.09902   0.11530   0.11995   0.12719   0.12785

  Beta  occ. eigenvalues --  -19.03449 -14.25106 -14.18868 -10.13812 -10.10044
  Beta  occ. eigenvalues --  -10.09249 -10.09241 -10.09134 -10.09133 -10.09128
  Beta  occ. eigenvalues --  -10.09006 -10.08942 -10.08581 -10.08444 -10.07667
  Beta  occ. eigenvalues --  -10.06794 -10.06788 -10.06119 -10.06029  -0.93662
  Beta  occ. eigenvalues --   -0.87456  -0.78870  -0.77322  -0.74239  -0.70160
  Beta  occ. eigenvalues --   -0.66933  -0.66207  -0.64894  -0.62520  -0.58536
  Beta  occ. eigenvalues --   -0.53827  -0.52406  -0.51268  -0.50085  -0.46488
  Beta  occ. eigenvalues --   -0.44668  -0.43363  -0.41806  -0.40249  -0.38444
  Beta  occ. eigenvalues --   -0.37828  -0.36179  -0.34235  -0.34134  -0.33598
  Beta  occ. eigenvalues --   -0.33523  -0.32671  -0.31462  -0.29316  -0.28989
  Beta  occ. eigenvalues --   -0.28539  -0.27881  -0.26583  -0.26184  -0.24935
  Beta  occ. eigenvalues --   -0.24778  -0.23704  -0.21582  -0.21049  -0.20248
  Beta  occ. eigenvalues --   -0.17225  -0.17101  -0.16098  -0.12092  -0.10311
  Beta virt. eigenvalues --    0.05984   0.06504   0.06945   0.07203   0.07270
  Beta virt. eigenvalues --    0.07711   0.07991   0.08719   0.08965   0.09284
  Beta virt. eigenvalues --    0.09994   0.10259   0.11813   0.12019   0.12646

 Mulliken charges and spin densities:
               1          2
     1  C   -0.097616  -0.248393
     2  C   -0.416638   0.138727
     3  C   -0.558100   0.055502
     4  C    0.310957   0.626880
     5  C   -0.179018   0.140141
     6  C   -0.002435  -0.237347
     7  C    1.112454  -1.761829
     8  C   -0.287278   0.368821
     9  C    1.149735  -0.407672
    10  N   -0.137048   0.028880
    11  C   -0.312554  -0.242575
    12  C    1.054454  -0.281895
    13  C   -0.829448   0.191883
    14  C    1.535542  -0.100042
    15  C   -0.424863  -0.003985
    16  C   -0.893551   0.444577
    17  C   -1.300404  -0.216432
    18  N   -0.260872   0.039815
    19  O   -0.199356   0.034269
    20  H    0.109570   0.029558
    21  H    0.086710   0.078058
    22  H    0.191668  -0.015243
    23  H   -0.113515   0.286880
    24  H    0.064159   0.100752
    25  H   -0.002358   0.196758
    26  H   -0.329271   0.525481
    27  H   -0.371094   0.694908
    28  H    0.139707  -0.027788
    29  H    0.156653  -0.000796
    30  H   -0.311309   0.447268
    31  H    0.115119   0.114838
 Sum of Mulliken charges =  -1.00000   1.00000

 Dipole moment (field-independent basis, Debye):
    X=             -6.0728    Y=              0.8807    Z=              1.5563  Tot=              6.3306
 Quadrupole moment (field-independent basis, Debye-Ang):
   XX=           -157.4374   YY=           -182.6212   ZZ=           -128.6061
   XY=             -6.6145   XZ=             -1.2339   YZ=              4.1385

 Summary of Natural Population Analysis:

                                       Natural Population
                Natural  -----------------------------------------------
    Atom  No    Charge         Core      Valence    Rydberg      Total
 -----------------------------------------------------------------------
      C    1   -0.10550      0.99957     2.09613    0.00980     3.10550
      C    2   -0.10174      0.99957     2.09246    0.00972     3.10174
      C    3   -0.08497      0.99950     2.07728    0.00818     3.08497
      C    4   -0.02824      0.99949     2.01716    0.01159     3.02824
      C    5   -0.10286      0.99951     2.09292    0.01044     3.10286
      C    6   -0.09611      0.99957     2.08723    0.00931     3.09611
      C    7    0.05807      0.99947     1.92770    0.01476     2.94193
      C    8   -0.06094      0.99946     2.04943    0.01205     3.06094
      C    9    0.02839      0.99949     1.95976    0.01236     2.97161
      N   10   -0.27112      0.99966     2.76159    0.00988     3.77112
      C   11    0.09552      0.99948     1.89301    0.01199     2.90448
      C   12   -0.04711      0.99947     2.03830    0.00934     3.04711
      C   13   -0.02231      0.99950     2.01502    0.00778     3.02231
      C   14   -0.10248      0.99943     2.09485    0.00820     3.10248
      C   15   -0.09351      0.99955     2.08442    0.00954     3.09351
      C   16   -0.10466      0.99952     2.09579    0.00935     3.10466
      C   17    0.15881      0.99963     1.82286    0.01869     2.84119
      N   18   -0.19319      0.99979     2.68288    0.01053     3.69319
      O   19   -0.36554      0.99990     3.35979    0.00585     4.36554
      H   20    0.09859      0.00000     0.40066    0.00075     0.40141
      H   21    0.09891      0.00000     0.40032    0.00077     0.40109
      H   22    0.10823      0.00000     0.39065    0.00112     0.39177
      H   23    0.10268      0.00000     0.39605    0.00127     0.39732
      H   24    0.09955      0.00000     0.39967    0.00077     0.40045
      H   25    0.08533      0.00000     0.41230    0.00237     0.41467
      H   26    0.10685      0.00000     0.39196    0.00119     0.39315
      H   27    0.20393      0.00000     0.28460    0.01147     0.29607
      H   28    0.10310      0.00000     0.39524    0.00166     0.39690
      H   29    0.10099      0.00000     0.39814    0.00087     0.39901
      H   30    0.10222      0.00000     0.39684    0.00094     0.39778
      H   31    0.22909      0.00000     0.26816    0.00274     0.27091
 =======================================================================
   * Total *    0.00000     18.99156    45.78316    0.22527    65.00000

 Normal termination of Gaussian 16 at Mon Dec 14 19:23:10 2020.
