 Gaussian 16, Revision A.03,

 -----------------------------------------------------------
 # opt freq B3LYP/6-31G(d) empiricaldispersion=gd3bj scf=xqc
 -----------------------------------------------------------

 ------------------------------
 CID_139293870_JID_732_neutraal
 ------------------------------
 Symbolic Z-matrix:
 Charge =  0 Multiplicity = 1

 SCF Done:  E(RB3LYP) =  -429.062984968     A.U. after   13 cycles
 SCF Done:  E(RB3LYP) =  -429.064040323     A.U. after   10 cycles
 SCF Done:  E(RB3LYP) =  -429.064070948     A.U. after   10 cycles
 SCF Done:  E(RB3LYP) =  -429.064427194     A.U. after   10 cycles
 SCF Done:  E(RB3LYP) =  -429.064427092     A.U. after    9 cycles
 SCF Done:  E(RB3LYP) =  -429.064442935     A.U. after    8 cycles
 SCF Done:  E(RB3LYP) =  -429.064443780     A.U. after    7 cycles
 SCF Done:  E(RB3LYP) =  -429.064443822     A.U. after    6 cycles
 Optimization completed.
    -- Stationary point found.

 1\1\GINC-NODE201\FOpt\RB3LYP\6-31G(d)\C9H18O1\VSC10255\08-Dec-2020\0\\
 # opt freq B3LYP/6-31G(d) empiricaldispersion=gd3bj scf=xqc\\CID_13929
 3870_JID_732_neutraal\\0,1\C,1.0976444563,0.0562475784,-0.0583571737\C
 ,-0.0694949596,-0.9289697279,-0.2276819476\C,-1.3075735945,-0.17348900
 21,-0.7367269396\O,-1.1906115781,0.1721237446,-2.1097795124\C,-1.15753
 04945,-0.9971339313,-2.9160766784\C,0.0969666794,-1.8439731059,-2.6480
 741793\C,0.2065441271,-2.1856941302,-1.1224885585\C,1.5713505122,-2.81
 11280083,-0.7921547196\C,-0.8550955131,-3.2601321707,-0.789295657\C,1.

 Normal termination of Gaussian 16 at Tue Dec  8 12:28:01 2020.

 --------------------------------------------------------------------
 #N Geom=AllCheck Guess=TCheck SCRF=Check GenChk RB3LYP/6-31G(d) Freq
 --------------------------------------------------------------------

 Structure from the checkpoint file:  "JID_732.chk"
 ------------------------------
 CID_139293870_JID_732_neutraal
 ------------------------------
 Charge =  0 Multiplicity = 1

 SCF Done:  E(RB3LYP) =  -429.064443822     A.U. after    1 cycles

  Exact polarizability:  93.043  -0.005  98.287  -0.442   0.001  91.288
 Approx polarizability: 129.467  -0.005 136.928  -2.758   0.001 129.291

                      1                      2                      3
                      A                      A                      A
 Frequencies --    102.8811               124.8689               168.1893
 Red. masses --      1.8062                 2.2321                 1.2968
 Frc consts  --      0.0113                 0.0205                 0.0216
 IR Inten    --      0.3101                 0.1162                 0.4133

                      4                      5                      6
                      A                      A                      A
 Frequencies --    236.2263               239.1618               251.3875
 Red. masses --      1.2159                 1.7558                 1.3885
 Frc consts  --      0.0400                 0.0592                 0.0517
 IR Inten    --      0.0563                 3.0862                 0.0021

                      7                      8                      9
                      A                      A                      A
 Frequencies --    272.3117               308.0263               308.6620
 Red. masses --      2.4920                 1.7032                 2.2576
 Frc consts  --      0.1089                 0.0952                 0.1267
 IR Inten    --      0.0344                 0.2624                 2.4517

                     10                     11                     12
                      A                      A                      A
 Frequencies --    368.6381               379.3394               398.6100
 Red. masses --      2.8403                 2.5396                 1.5314
 Frc consts  --      0.2274                 0.2153                 0.1434
 IR Inten    --      0.8636                 0.2666                 0.0053

                     13                     14                     15
                      A                      A                      A
 Frequencies --    432.1967               458.4671               469.0301
 Red. masses --      2.1216                 3.1089                 1.8853
 Frc consts  --      0.2335                 0.3850                 0.2444
 IR Inten    --      0.0425                 0.7023                 2.1188

                     16                     17                     18
                      A                      A                      A
 Frequencies --    524.1750               588.6232               648.2026
 Red. masses --      2.5770                 3.3362                 3.2789
 Frc consts  --      0.4172                 0.6811                 0.8117
 IR Inten    --      2.5834                 0.3807                 2.4805

                     19                     20                     21
                      A                      A                      A
 Frequencies --    752.8776               810.9157               874.9058
 Red. masses --      2.4515                 2.1554                 2.7042
 Frc consts  --      0.8187                 0.8351                 1.2196
 IR Inten    --      2.2206                 0.2129                 3.8305

                     22                     23                     24
                      A                      A                      A
 Frequencies --    915.4414               919.6128               952.7161
 Red. masses --      2.6626                 1.9020                 1.5867
 Frc consts  --      1.3147                 0.9477                 0.8486
 IR Inten    --     13.0968                 3.7096                 0.5434

                     25                     26                     27
                      A                      A                      A
 Frequencies --    966.6547               974.2327              1002.4945
 Red. masses --      1.5902                 1.8559                 1.5888
 Frc consts  --      0.8755                 1.0378                 0.9408
 IR Inten    --      0.0009                 7.8626                18.9790

                     28                     29                     30
                      A                      A                      A
 Frequencies --   1009.1001              1034.4996              1070.1037
 Red. masses --      1.5585                 1.3005                 1.5504
 Frc consts  --      0.9350                 0.8200                 1.0460
 IR Inten    --     13.8710                 5.5737                 5.0464

                     31                     32                     33
                      A                      A                      A
 Frequencies --   1081.0352              1098.2107              1153.5890
 Red. masses --      2.0878                 1.7507                 1.9364
 Frc consts  --      1.4376                 1.2440                 1.5183
 IR Inten    --      2.8200                 1.2017                 4.8572

                     34                     35                     36
                      A                      A                      A
 Frequencies --   1169.7281              1180.2063              1216.4023
 Red. masses --      3.8395                 1.8007                 2.1194
 Frc consts  --      3.0953                 1.4778                 1.8476
 IR Inten    --     67.5919                 0.8635                 3.9339

                     37                     38                     39
                      A                      A                      A
 Frequencies --   1238.2549              1249.8504              1305.2773
 Red. masses --      2.6918                 1.9248                 1.4553
 Frc consts  --      2.4317                 1.7716                 1.4608
 IR Inten    --      0.9668                21.0733                 2.1575

                     40                     41                     42
                      A                      A                      A
 Frequencies --   1325.7922              1339.7780              1361.6752
 Red. masses --      1.5408                 1.2081                 1.7895
 Frc consts  --      1.5956                 1.2777                 1.9550
 IR Inten    --      0.2518                 6.0870                 2.4989

                     43                     44                     45
                      A                      A                      A
 Frequencies --   1378.7844              1399.2241              1405.5997
 Red. masses --      1.3204                 1.2292                 1.3666
 Frc consts  --      1.4790                 1.4179                 1.5908
 IR Inten    --      5.5505                 6.5579                 2.9613

                     46                     47                     48
                      A                      A                      A
 Frequencies --   1425.9279              1433.8764              1435.6306
 Red. masses --      1.2818                 1.2436                 1.2519
 Frc consts  --      1.5356                 1.5065                 1.5202
 IR Inten    --      2.9874                11.5066                 2.4759

                     49                     50                     51
                      A                      A                      A
 Frequencies --   1446.9030              1462.6865              1512.5506
 Red. masses --      1.2440                 1.2439                 1.0502
 Frc consts  --      1.5344                 1.5680                 1.4156
 IR Inten    --     12.2821                 8.8334                 2.0882

                     52                     53                     54
                      A                      A                      A
 Frequencies --   1515.1646              1525.3542              1526.9089
 Red. masses --      1.0561                 1.0481                 1.0671
 Frc consts  --      1.4285                 1.4367                 1.4658
 IR Inten    --      1.0980                 7.7895                 3.7590

                     55                     56                     57
                      A                      A                      A
 Frequencies --   1531.6373              1535.4030              1537.7664
 Red. masses --      1.0717                 1.0490                 1.0553
 Frc consts  --      1.4813                 1.4570                 1.4703
 IR Inten    --      2.8625                 1.7258                 4.2804

                     58                     59                     60
                      A                      A                      A
 Frequencies --   1546.3306              1550.2634              1560.5666
 Red. masses --      1.0522                 1.0690                 1.0550
 Frc consts  --      1.4824                 1.5137                 1.5139
 IR Inten    --      8.9485                 1.3683                 1.3426

                     61                     62                     63
                      A                      A                      A
 Frequencies --   2991.1558              2994.6648              3012.0140
 Red. masses --      1.0712                 1.0718                 1.0826
 Frc consts  --      5.6466                 5.6629                 5.7865
 IR Inten    --      3.9746                67.8331                47.8272

                     64                     65                     66
                      A                      A                      A
 Frequencies --   3015.5864              3043.0138              3051.8439
 Red. masses --      1.0813                 1.0394                 1.0394
 Frc consts  --      5.7935                 5.6708                 5.7038
 IR Inten    --     61.9455                18.4831                60.0938

                     67                     68                     69
                      A                      A                      A
 Frequencies --   3058.7680              3061.9345              3096.0212
 Red. masses --      1.0425                 1.0456                 1.0926
 Frc consts  --      5.7466                 5.7758                 6.1704
 IR Inten    --     31.7422                10.4978                43.9276

                     70                     71                     72
                      A                      A                      A
 Frequencies --   3098.4783              3099.0073              3110.2193
 Red. masses --      1.0935                 1.1020                 1.1017
 Frc consts  --      6.1851                 6.2357                 6.2793
 IR Inten    --     33.3256                18.4909                48.6304

                     73                     74                     75
                      A                      A                      A
 Frequencies --   3120.8046              3122.8516              3133.9847
 Red. masses --      1.0946                 1.0950                 1.0983
 Frc consts  --      6.2812                 6.2915                 6.3557
 IR Inten    --     40.5280                37.7538                36.3990

                     76                     77                     78
                      A                      A                      A
 Frequencies --   3146.7657              3149.7788              3164.0916
 Red. masses --      1.0946                 1.1028                 1.0991
 Frc consts  --      6.3859                 6.4461                 6.4832
 IR Inten    --     37.7058                18.0340                21.0845

 - Thermochemistry -
 -------------------
 Temperature   298.150 Kelvin.  Pressure   1.00000 Atm.
 Atom     1 has atomic number  6 and mass  12.00000

 Molecular mass:   142.13577 amu.
 Principal axes and moments of inertia in atomic units:
                           1         2         3
     Eigenvalues --  1208.444121381.338511539.29410
           X            0.99999  -0.00015   0.00432
           Y            0.00015   1.00000  -0.00001
           Z           -0.00432   0.00001   0.99999
 This molecule is an asymmetric top.
 Rotational symmetry number  1.
 Warning -- assumption of classical behavior for rotation
           may cause significant error
 Rotational temperatures (Kelvin)      0.07167     0.06270     0.05627
 Rotational constants (GHZ):           1.49344     1.30652     1.17245
 Zero-point vibrational energy     684765.9 (Joules/Mol)
                                  163.66297 (Kcal/Mol)
 Warning -- explicit consideration of  17 degrees of freedom as
           vibrations may cause significant error
 Vibrational temperatures:    148.02   179.66   241.99   339.88   344.10
          (Kelvin)            361.69   391.80   443.18   444.10   530.39
                              545.78   573.51   621.83   659.63   674.83
                              754.17   846.90   932.62  1083.22  1166.73
                             1258.79  1317.12  1323.12  1370.75  1390.80
                             1401.70  1442.37  1451.87  1488.41  1539.64
                             1555.37  1580.08  1659.76  1682.98  1698.05
                             1750.13  1781.57  1798.26  1878.00  1907.52
                             1927.64  1959.15  1983.76  2013.17  2022.34
                             2051.59  2063.03  2065.55  2081.77  2104.48
                             2176.22  2179.98  2194.64  2196.88  2203.68
                             2209.10  2212.50  2224.82  2230.48  2245.31
                             4303.61  4308.65  4333.62  4338.76  4378.22
                             4390.92  4400.88  4405.44  4454.48  4458.02
                             4458.78  4474.91  4490.14  4493.09  4509.10
                             4527.49  4531.83  4552.42

 Zero-point correction=                           0.260814 (Hartree/Particle)
 Thermal correction to Energy=                    0.271595
 Thermal correction to Enthalpy=                  0.272540
 Thermal correction to Gibbs Free Energy=         0.226076
 Sum of electronic and zero-point Energies=           -428.803630
 Sum of electronic and thermal Energies=              -428.792849
 Sum of electronic and thermal Enthalpies=            -428.791904
 Sum of electronic and thermal Free Energies=         -428.838368

                     E (Thermal)             CV                S
                      KCal/Mol        Cal/Mol-Kelvin    Cal/Mol-Kelvin
 Total                  170.429             43.141             97.791
 Electronic               0.000              0.000              0.000
 Translational            0.889              2.981             40.766
 Rotational               0.889              2.981             29.331
 Vibrational            168.651             37.180             27.693
 Vibration     1          0.605              1.947              3.399
 Vibration     2          0.610              1.928              3.024
 Vibration     3          0.625              1.882              2.456
 Vibration     4          0.655              1.785              1.831
 Vibration     5          0.657              1.781              1.809
 Vibration     6          0.663              1.760              1.721
 Vibration     7          0.675              1.724              1.581
 Vibration     8          0.698              1.658              1.373
 Vibration     9          0.698              1.657              1.369
 Vibration    10          0.741              1.537              1.085
 Vibration    11          0.749              1.514              1.042
 Vibration    12          0.765              1.473              0.968
 Vibration    13          0.793              1.400              0.852
 Vibration    14          0.816              1.342              0.771
 Vibration    15          0.826              1.319              0.740
 Vibration    16          0.879              1.196              0.600
 Vibration    17          0.946              1.056              0.470

                           ! Non-Optimized Parameters !

 1\1\GINC-NODE201\Freq\RB3LYP\6-31G(d)\C9H18O1\VSC10255\08-Dec-2020\0\\
 #N Geom=AllCheck Guess=TCheck SCRF=Check GenChk RB3LYP/6-31G(d) Freq\\
 CID_139293870_JID_732_neutraal\\0,1\C,1.0976444563,0.0562475784,-0.058
 3571737\C,-0.0694949596,-0.9289697279,-0.2276819476\C,-1.3075735945,-0
 .1734890021,-0.7367269396\O,-1.1906115781,0.1721237446,-2.1097795124\C
 ,-1.1575304945,-0.9971339313,-2.9160766784\C,0.0969666794,-1.843973105
 9,-2.6480741793\C,0.2065441271,-2.1856941302,-1.1224885585\C,1.5713505
 122,-2.8111280083,-0.7921547196\C,-0.8550955131,-3.2601321707,-0.78929

 Normal termination of Gaussian 16 at Tue Dec  8 12:39:23 2020.

 ----------------------------------------------------------------------
 # B3LYP/6-311++G(d,p) empiricaldispersion=gd3bj scf=xqc pop=npa geom=c
 heck
 ----------------------------------------------------------------------

 --------------------------------------
 CID_139293870_JID_732_Energie_neutraal
 --------------------------------------
 Structure from the checkpoint file:  "JID_732.chk"
 Charge =  0 Multiplicity = 1

 SCF Done:  E(RB3LYP) =  -429.185534030     A.U. after   13 cycles
 Normal termination of Gaussian 16 at Tue Dec  8 12:43:32 2020.

 ----------------------------------------------------------------------
 # B3LYP/6-311++G(d,p) empiricaldispersion=gd3bj scf=xqc pop=npa geom=c
 heck
 ----------------------------------------------------------------------

 ------------------------------------
 CID_139293870_JID_732_Energie_kation
 ------------------------------------
 Structure from the checkpoint file:  "JID_732.chk"
 Charge =  1 Multiplicity = 2

 SCF Done:  E(UB3LYP) =  -428.858168472     A.U. after   19 cycles
 Normal termination of Gaussian 16 at Tue Dec  8 12:50:53 2020.
 Gaussian 16:  ES64L-G16RevA.03 25-Dec-2016

 -----------------------------------
 CID_139293870_JID_732_Energie_anion
 -----------------------------------
 Structure from the checkpoint file:  "JID_732.chk"
 Charge = -1 Multiplicity = 2

                         Standard orientation:
 ---------------------------------------------------------------------
 Center     Atomic      Atomic             Coordinates (Angstroms)
 Number     Number       Type             X           Y           Z
 ---------------------------------------------------------------------
      1          6           0       -0.045165   -1.727018   -1.450841
      2          6           0       -0.056099   -1.296492    0.024309
      3          6           0        1.389435   -1.166544    0.530529
      4          8           0        2.024184    0.001200    0.028664
      5          6           0        1.387993    1.168079    0.530688
      6          6           0       -0.057795    1.296429    0.024774
      7          6           0       -0.869573   -0.000616    0.363719
      8          6           0       -2.233026   -0.001409   -0.346197
      9          6           0       -1.170447   -0.001110    1.880949
     10          6           0       -0.048196    1.727629   -1.450167
     11          1           0        0.446963   -2.702740   -1.540787
     12          1           0        0.511275   -1.024829   -2.075627
     13          1           0       -1.052439   -1.831239   -1.862224
     14          1           0       -0.523394   -2.115226    0.591924
     15          1           0        1.422637   -1.158640    1.632067
     16          1           0        1.992519   -2.012594    0.185943
     17          1           0        1.990000    2.014923    0.186167
     18          1           0        1.421297    1.160081    1.632228
     19          1           0       -0.525898    2.114351    0.592908
     20          1           0       -2.811995   -0.887421   -0.058005
     21          1           0       -2.813417    0.883446   -0.057309
     22          1           0       -2.148576   -0.000897   -1.434664
     23          1           0       -0.267956   -0.000549    2.498070
     24          1           0       -1.756942    0.883428    2.155126
     25          1           0       -1.755650   -0.886597    2.154833
     26          1           0       -1.055962    1.832536   -1.860195
     27          1           0        0.444271    2.703167   -1.540246
     28          1           0        0.507029    1.025506   -2.076094
 ---------------------------------------------------------------------

 SCF Done:  E(UB3LYP) =  -429.166954543     A.U. after   27 cycles

 The electronic state is 2-A.
 Alpha  occ. eigenvalues --  -19.01381 -10.10199 -10.10198 -10.07584 -10.06389
 Alpha  occ. eigenvalues --  -10.06387 -10.04749 -10.04749 -10.04488 -10.04482
 Alpha  occ. eigenvalues --   -0.92920  -0.72453  -0.67658  -0.62762  -0.58505
 Alpha  occ. eigenvalues --   -0.58283  -0.54544  -0.49559  -0.49396  -0.40646
 Alpha  occ. eigenvalues --   -0.38232  -0.36663  -0.36325  -0.34868  -0.33657
 Alpha  occ. eigenvalues --   -0.30682  -0.30524  -0.29295  -0.28211  -0.28071
 Alpha  occ. eigenvalues --   -0.27303  -0.25944  -0.25394  -0.23311  -0.22957
 Alpha  occ. eigenvalues --   -0.22744  -0.21305  -0.19116  -0.19093  -0.14426
 Alpha  occ. eigenvalues --    0.04998
 Alpha virt. eigenvalues --    0.07288   0.07818   0.08080   0.09708   0.10022
 Alpha virt. eigenvalues --    0.10163   0.10706   0.11102   0.12678   0.13032
 Alpha virt. eigenvalues --    0.13082   0.13216   0.13722   0.14587   0.14964

  Beta  occ. eigenvalues --  -19.01373 -10.10179 -10.10178 -10.07582 -10.06373
  Beta  occ. eigenvalues --  -10.06372 -10.04725 -10.04724 -10.04453 -10.04446
  Beta  occ. eigenvalues --   -0.92903  -0.72425  -0.67622  -0.62719  -0.58458
  Beta  occ. eigenvalues --   -0.58222  -0.54476  -0.49506  -0.49326  -0.40598
  Beta  occ. eigenvalues --   -0.38171  -0.36622  -0.36299  -0.34814  -0.33610
  Beta  occ. eigenvalues --   -0.30640  -0.30494  -0.29260  -0.28178  -0.28035
  Beta  occ. eigenvalues --   -0.27263  -0.25912  -0.25358  -0.23270  -0.22919
  Beta  occ. eigenvalues --   -0.22705  -0.21260  -0.19068  -0.19066  -0.14371
  Beta virt. eigenvalues --    0.07348   0.08262   0.08589   0.08795   0.10493
  Beta virt. eigenvalues --    0.10629   0.10942   0.11067   0.11456   0.13299
  Beta virt. eigenvalues --    0.13585   0.13589   0.13721   0.14168   0.14787

 Mulliken charges and spin densities:
               1          2
     1  C    0.137092  -0.812231
     2  C   -1.108577   1.500313
     3  C    0.864528  -1.469977
     4  O   -0.150318   0.037389
     5  C    0.866361  -1.471181
     6  C   -1.109429   1.500125
     7  C   -0.782092   0.986457
     8  C    0.981059  -1.578329
     9  C    2.025342  -2.481409
    10  C    0.137913  -0.812843
    11  H   -0.211554   0.339075
    12  H    0.066251   0.091708
    13  H   -0.175762   0.316186
    14  H   -0.337788   0.538161
    15  H   -0.178449   0.321239
    16  H   -0.095067   0.286281
    17  H   -0.094916   0.286162
    18  H   -0.178767   0.321571
    19  H   -0.337261   0.537568
    20  H   -0.243191   0.394439
    21  H   -0.243741   0.394991
    22  H    0.039263   0.083886
    23  H   -0.192626   0.299533
    24  H   -0.178177   0.321566
    25  H   -0.178385   0.321773
    26  H   -0.176380   0.316845
    27  H   -0.211870   0.339324
    28  H    0.066543   0.091375
 Sum of Mulliken charges =  -1.00000   1.00000

 Dipole moment (field-independent basis, Debye):
    X=              2.0736    Y=              0.0010    Z=             -1.5118  Tot=              2.5663
 Quadrupole moment (field-independent basis, Debye-Ang):
   XX=           -109.8549   YY=           -112.4387   ZZ=           -105.3035
   XY=              0.0056   XZ=             -0.5886   YZ=              0.0010

 Summary of Natural Population Analysis:

                                       Natural Population
                Natural  -----------------------------------------------
    Atom  No    Charge         Core      Valence    Rydberg      Total
 -----------------------------------------------------------------------
      C    1   -0.28515      0.99964     2.27899    0.00651     3.28515
      C    2   -0.12269      0.99955     2.11000    0.01313     3.12269
      C    3   -0.00641      0.99954     1.99292    0.01395     3.00641
      O    4   -0.30332      0.99989     3.29449    0.00893     4.30332
      C    5   -0.00640      0.99954     1.99291    0.01395     3.00640
      C    6   -0.12269      0.99955     2.11000    0.01313     3.12269
      C    7   -0.03765      0.99955     2.02241    0.01569     3.03765
      C    8   -0.28781      0.99962     2.28034    0.00785     3.28781
      C    9   -0.28483      0.99962     2.27738    0.00783     3.28483
      C   10   -0.28514      0.99964     2.27899    0.00651     3.28514
      H   11    0.09747      0.00000     0.40158    0.00095     0.40253
      H   12    0.09850      0.00000     0.40014    0.00136     0.40150
      H   13    0.10124      0.00000     0.39774    0.00102     0.39876
      H   14    0.10019      0.00000     0.39766    0.00215     0.39981
      H   15    0.08110      0.00000     0.41739    0.00151     0.41890
      H   16    0.08949      0.00000     0.40919    0.00132     0.41051
      H   17    0.08949      0.00000     0.40919    0.00132     0.41051
      H   18    0.08109      0.00000     0.41740    0.00151     0.41891
      H   19    0.10019      0.00000     0.39766    0.00215     0.39981
      H   20    0.10149      0.00000     0.39730    0.00121     0.39851
      H   21    0.10149      0.00000     0.39730    0.00121     0.39851
      H   22    0.10176      0.00000     0.39704    0.00120     0.39824
      H   23    0.10044      0.00000     0.39792    0.00164     0.39956
      H   24    0.10046      0.00000     0.39816    0.00137     0.39954
      H   25    0.10046      0.00000     0.39816    0.00137     0.39954
      H   26    0.10124      0.00000     0.39774    0.00102     0.39876
      H   27    0.09746      0.00000     0.40159    0.00095     0.40254
      H   28    0.09850      0.00000     0.40014    0.00136     0.40150
 =======================================================================
   * Total *    0.00000      9.99615    29.87175    0.13210    40.00000

 Normal termination of Gaussian 16 at Tue Dec  8 13:04:44 2020.
