 Gaussian 16, Revision A.03,

 -----------------------------------------------------------
 # opt freq B3LYP/6-31G(d) empiricaldispersion=gd3bj scf=xqc
 -----------------------------------------------------------

 -----------------------------
 CID_85672212_JID_606_neutraal
 -----------------------------
 Symbolic Z-matrix:
 Charge =  0 Multiplicity = 1

 SCF Done:  E(RB3LYP) =  -463.638891935     A.U. after   13 cycles
 SCF Done:  E(RB3LYP) =  -463.653004993     A.U. after   12 cycles
 SCF Done:  E(RB3LYP) =  -463.656317805     A.U. after   12 cycles
 SCF Done:  E(RB3LYP) =  -463.656965147     A.U. after   11 cycles
 SCF Done:  E(RB3LYP) =  -463.657048347     A.U. after   10 cycles
 SCF Done:  E(RB3LYP) =  -463.657062116     A.U. after   10 cycles
 SCF Done:  E(RB3LYP) =  -463.657070659     A.U. after    8 cycles
 SCF Done:  E(RB3LYP) =  -463.657072838     A.U. after    8 cycles
 SCF Done:  E(RB3LYP) =  -463.657073956     A.U. after    8 cycles
 SCF Done:  E(RB3LYP) =  -463.657074377     A.U. after    8 cycles
 SCF Done:  E(RB3LYP) =  -463.657074518     A.U. after    7 cycles
 Optimization completed.
    -- Stationary point found.

 1\1\GINC-NODE320\FOpt\RB3LYP\6-31G(d)\C8H14O2\VSC10255\08-Dec-2020\0\\
 # opt freq B3LYP/6-31G(d) empiricaldispersion=gd3bj scf=xqc\\CID_85672
 212_JID_606_neutraal\\0,1\C,1.0759941932,-0.0119950499,0.0576160398\C,
 0.4075773768,1.2534282749,-0.4985982361\C,0.4447480991,2.3721284859,0.
 6261386586\C,0.2608596167,3.8841840428,0.2142199416\C,1.2139041939,3.8
 918059028,-0.9568520268\C,0.6711264798,3.0710167711,-2.0245750154\C,1.
 13970905,1.6492430162,-1.8557223881\O,1.2508480403,4.3661208497,-2.322
 560524\C,-1.0835812687,0.9263821663,-0.7688757936\O,-1.2943935101,-0.0

 Normal termination of Gaussian 16 at Tue Dec  8 12:24:40 2020.

 --------------------------------------------------------------------
 #N Geom=AllCheck Guess=TCheck SCRF=Check GenChk RB3LYP/6-31G(d) Freq
 --------------------------------------------------------------------

 Structure from the checkpoint file:  "JID_606.chk"
 -----------------------------
 CID_85672212_JID_606_neutraal
 -----------------------------
 Charge =  0 Multiplicity = 1

 SCF Done:  E(RB3LYP) =  -463.657074518     A.U. after    1 cycles

  Exact polarizability:  91.661   1.351  85.822  -1.731  -1.793  77.158
 Approx polarizability: 128.804   0.760 129.812   1.275  -1.711 113.386

                      1                      2                      3
                      A                      A                      A
 Frequencies --     80.6933               157.2473               184.9604
 Red. masses --      4.1612                 2.4931                 3.5247
 Frc consts  --      0.0160                 0.0363                 0.0710
 IR Inten    --      2.5013                 6.9046                 0.2858

                      4                      5                      6
                      A                      A                      A
 Frequencies --    259.0704               281.2882               302.7757
 Red. masses --      1.0775                 3.1376                 1.5326
 Frc consts  --      0.0426                 0.1463                 0.0828
 IR Inten    --      0.0626                50.2760                46.9604

                      7                      8                      9
                      A                      A                      A
 Frequencies --    312.1573               335.4573               377.1958
 Red. masses --      2.4394                 1.7404                 2.6029
 Frc consts  --      0.1401                 0.1154                 0.2182
 IR Inten    --      0.9775                32.1123                 7.3204

                     10                     11                     12
                      A                      A                      A
 Frequencies --    412.5170               439.9749               470.1191
 Red. masses --      2.3340                 3.3457                 3.3857
 Frc consts  --      0.2340                 0.3816                 0.4409
 IR Inten    --      6.5418                 0.8653                 2.2250

                     13                     14                     15
                      A                      A                      A
 Frequencies --    483.6109               533.9761               578.7513
 Red. masses --      3.6902                 2.3921                 2.9022
 Frc consts  --      0.5085                 0.4019                 0.5727
 IR Inten    --      1.1507                 4.8190                 2.1080

                     16                     17                     18
                      A                      A                      A
 Frequencies --    699.2165               794.5020               837.2028
 Red. masses --      3.3671                 1.8093                 2.5591
 Frc consts  --      0.9699                 0.6729                 1.0568
 IR Inten    --      1.5587                 6.6988                10.2800

                     19                     20                     21
                      A                      A                      A
 Frequencies --    883.7728               888.1198               905.9661
 Red. masses --      2.9211                 3.3025                 2.1823
 Frc consts  --      1.3442                 1.5348                 1.0553
 IR Inten    --      3.8307                46.2692                13.7110

                     22                     23                     24
                      A                      A                      A
 Frequencies --    929.4726               944.2393               963.6932
 Red. masses --      2.1252                 2.5116                 1.5518
 Frc consts  --      1.0817                 1.3194                 0.8491
 IR Inten    --     13.6198                 4.5326                 8.9545

                     25                     26                     27
                      A                      A                      A
 Frequencies --   1001.0414              1037.9195              1076.4152
 Red. masses --      1.6600                 1.6147                 2.4233
 Frc consts  --      0.9801                 1.0249                 1.6543
 IR Inten    --      4.7455                18.6926                33.6663

                     28                     29                     30
                      A                      A                      A
 Frequencies --   1087.3989              1110.1697              1117.4900
 Red. masses --      1.7551                 2.2488                 1.6974
 Frc consts  --      1.2227                 1.6329                 1.2489
 IR Inten    --     68.4131                 3.2260                 5.9399

                     31                     32                     33
                      A                      A                      A
 Frequencies --   1139.1168              1154.8913              1205.2785
 Red. masses --      1.5077                 2.2465                 1.3918
 Frc consts  --      1.1526                 1.7654                 1.1913
 IR Inten    --      3.0986                 5.1644                 0.4117

                     34                     35                     36
                      A                      A                      A
 Frequencies --   1210.8785              1219.0955              1270.1562
 Red. masses --      1.5745                 1.2655                 1.5772
 Frc consts  --      1.3601                 1.1081                 1.4992
 IR Inten    --      3.4003                 9.6653                 8.5735

                     37                     38                     39
                      A                      A                      A
 Frequencies --   1288.8901              1307.4602              1344.9137
 Red. masses --      1.6838                 1.5624                 1.3823
 Frc consts  --      1.6481                 1.5736                 1.4731
 IR Inten    --      4.0321                 6.1242                 0.0081

                     40                     41                     42
                      A                      A                      A
 Frequencies --   1369.7106              1380.9262              1408.3272
 Red. masses --      1.5282                 1.3565                 1.2530
 Frc consts  --      1.6893                 1.5241                 1.4642
 IR Inten    --      6.1716                 7.3078                 1.4294

                     43                     44                     45
                      A                      A                      A
 Frequencies --   1425.0266              1441.9829              1446.3818
 Red. masses --      1.1986                 1.2048                 1.1458
 Frc consts  --      1.4340                 1.4760                 1.4123
 IR Inten    --     26.8072                13.1217                 2.5291

                     46                     47                     48
                      A                      A                      A
 Frequencies --   1507.0436              1518.4566              1522.0182
 Red. masses --      1.4550                 1.4401                 1.0571
 Frc consts  --      1.9470                 1.9563                 1.4428
 IR Inten    --      8.7399                18.9644                 7.9048

                     49                     50                     51
                      A                      A                      A
 Frequencies --   1532.6859              1533.5401              1537.8598
 Red. masses --      1.0675                 1.1026                 1.0822
 Frc consts  --      1.4774                 1.5277                 1.5079
 IR Inten    --      6.6361                 1.7670                 2.2412

                     52                     53                     54
                      A                      A                      A
 Frequencies --   1543.4440              3021.5651              3042.2154
 Red. masses --      1.0942                 1.0669                 1.0516
 Frc consts  --      1.5357                 5.7390                 5.7343
 IR Inten    --      7.7219                48.0171                 0.5728

                     55                     56                     57
                      A                      A                      A
 Frequencies --   3047.3016              3059.0853              3061.6133
 Red. masses --      1.0469                 1.0633                 1.0626
 Frc consts  --      5.7280                 5.8629                 5.8685
 IR Inten    --     35.3099                79.8399                26.9463

                     58                     59                     60
                      A                      A                      A
 Frequencies --   3080.0496              3091.7058              3093.5358
 Red. masses --      1.1031                 1.0967                 1.0880
 Frc consts  --      6.1656                 6.1764                 6.1345
 IR Inten    --     10.2940                34.9676                10.0243

                     61                     62                     63
                      A                      A                      A
 Frequencies --   3106.4640              3109.3423              3117.3306
 Red. masses --      1.0960                 1.0959                 1.1024
 Frc consts  --      6.2316                 6.2426                 6.3117
 IR Inten    --     14.6789                24.2477                 1.8588

                     64                     65                     66
                      A                      A                      A
 Frequencies --   3129.5744              3135.2457              3761.9998
 Red. masses --      1.0935                 1.1008                 1.0663
 Frc consts  --      6.3099                 6.3751                 8.8916
 IR Inten    --     87.5670                28.0481                13.0976

 - Thermochemistry -
 -------------------
 Temperature   298.150 Kelvin.  Pressure   1.00000 Atm.
 Atom     1 has atomic number  6 and mass  12.00000

 Molecular mass:   142.09938 amu.
 Principal axes and moments of inertia in atomic units:
                           1         2         3
     Eigenvalues --   854.434491783.791332014.96448
           X            0.99978   0.01146  -0.01755
           Y           -0.01131   0.99990   0.00845
           Z            0.01765  -0.00825   0.99981
 This molecule is an asymmetric top.
 Rotational symmetry number  1.
 Warning -- assumption of classical behavior for rotation
           may cause significant error
 Rotational temperatures (Kelvin)      0.10137     0.04856     0.04299
 Rotational constants (GHZ):           2.11221     1.01174     0.89567
 Zero-point vibrational energy     560160.5 (Joules/Mol)
                                  133.88158 (Kcal/Mol)
 Warning -- explicit consideration of  15 degrees of freedom as
           vibrations may cause significant error
 Vibrational temperatures:    116.10   226.24   266.12   372.74   404.71
          (Kelvin)            435.63   449.12   482.65   542.70   593.52
                              633.03   676.40   695.81   768.27   832.69
                             1006.02  1143.11  1204.55  1271.55  1277.81
                             1303.48  1337.30  1358.55  1386.54  1440.28
                             1493.33  1548.72  1564.52  1597.29  1607.82
                             1638.94  1661.63  1734.13  1742.18  1754.01
                             1827.47  1854.43  1881.14  1935.03  1970.71
                             1986.84  2026.27  2050.30  2074.69  2081.02
                             2168.30  2184.72  2189.84  2205.19  2206.42
                             2212.64  2220.67  4347.36  4377.07  4384.39
                             4401.34  4404.98  4431.50  4448.28  4450.91
                             4469.51  4473.65  4485.14  4502.76  4510.92
                             5412.68

 Zero-point correction=                           0.213354 (Hartree/Particle)
 Thermal correction to Energy=                    0.222991
 Thermal correction to Enthalpy=                  0.223935
 Thermal correction to Gibbs Free Energy=         0.179321
 Sum of electronic and zero-point Energies=           -463.443721
 Sum of electronic and thermal Energies=              -463.434084
 Sum of electronic and thermal Enthalpies=            -463.433140
 Sum of electronic and thermal Free Energies=         -463.477754

                     E (Thermal)             CV                S
                      KCal/Mol        Cal/Mol-Kelvin    Cal/Mol-Kelvin
 Total                  139.929             38.790             93.897
 Electronic               0.000              0.000              0.000
 Translational            0.889              2.981             40.765
 Rotational               0.889              2.981             29.508
 Vibrational            138.151             32.828             23.624
 Vibration     1          0.600              1.962              3.874
 Vibration     2          0.621              1.895              2.583
 Vibration     3          0.631              1.860              2.278
 Vibration     4          0.668              1.747              1.668
 Vibration     5          0.681              1.708              1.526
 Vibration     6          0.694              1.668              1.402
 Vibration     7          0.701              1.651              1.351
 Vibration     8          0.717              1.605              1.234
 Vibration     9          0.748              1.519              1.050
 Vibration    10          0.776              1.443              0.918
 Vibration    11          0.800              1.383              0.827
 Vibration    12          0.827              1.316              0.737
 Vibration    13          0.840              1.286              0.700
 Vibration    14          0.889              1.175              0.578
 Vibration    15          0.935              1.077              0.488

 Optimization completed.
    -- Stationary point found.

 1\1\GINC-NODE320\Freq\RB3LYP\6-31G(d)\C8H14O2\VSC10255\08-Dec-2020\0\\
 #N Geom=AllCheck Guess=TCheck SCRF=Check GenChk RB3LYP/6-31G(d) Freq\\
 CID_85672212_JID_606_neutraal\\0,1\C,1.0759941932,-0.0119950499,0.0576
 160398\C,0.4075773768,1.2534282749,-0.4985982361\C,0.4447480991,2.3721
 284859,0.6261386586\C,0.2608596167,3.8841840428,0.2142199416\C,1.21390
 41939,3.8918059028,-0.9568520268\C,0.6711264798,3.0710167711,-2.024575
 0154\C,1.13970905,1.6492430162,-1.8557223881\O,1.2508480403,4.36612084
 97,-2.322560524\C,-1.0835812687,0.9263821663,-0.7688757936\O,-1.294393

 Normal termination of Gaussian 16 at Tue Dec  8 12:30:41 2020.

 ----------------------------------------------------------------------
 # B3LYP/6-311++G(d,p) empiricaldispersion=gd3bj scf=xqc pop=npa geom=c
 heck
 ----------------------------------------------------------------------

 -------------------------------------
 CID_85672212_JID_606_Energie_neutraal
 -------------------------------------
 Structure from the checkpoint file:  "JID_606.chk"
 Charge =  0 Multiplicity = 1

 SCF Done:  E(RB3LYP) =  -463.797669863     A.U. after   13 cycles
 Normal termination of Gaussian 16 at Tue Dec  8 12:40:05 2020.

 ----------------------------------------------------------------------
 # B3LYP/6-311++G(d,p) empiricaldispersion=gd3bj scf=xqc pop=npa geom=c
 heck
 ----------------------------------------------------------------------

 -----------------------------------
 CID_85672212_JID_606_Energie_kation
 -----------------------------------
 Structure from the checkpoint file:  "JID_606.chk"
 Charge =  1 Multiplicity = 2

 SCF Done:  E(UB3LYP) =  -463.446729220     A.U. after   33 cycles
 SCF Done:  E(UB3LYP) =  -463.446729220     a.u. after    1 cycles
 Normal termination of Gaussian 16 at Tue Dec  8 12:49:39 2020.
 Gaussian 16:  ES64L-G16RevA.03 25-Dec-2016

 ----------------------------------
 CID_85672212_JID_606_Energie_anion
 ----------------------------------
 Structure from the checkpoint file:  "JID_606.chk"
 Charge = -1 Multiplicity = 2

                         Standard orientation:
 ---------------------------------------------------------------------
 Center     Atomic      Atomic             Coordinates (Angstroms)
 Number     Number       Type             X           Y           Z
 ---------------------------------------------------------------------
      1          6           0       -1.796035    0.971269    1.232278
      2          6           0       -0.782685    0.366791    0.249842
      3          6           0        0.165560    1.529635   -0.266423
      4          6           0        1.559272    1.159163   -0.906832
      5          6           0        2.004521    0.165642    0.139318
      6          6           0        1.158500   -1.012687    0.075109
      7          6           0       -0.030408   -0.830012    0.982109
      8          8           0        2.596071   -1.152575    0.201549
      9          6           0       -1.566182   -0.163336   -0.978434
     10          8           0       -2.489300   -1.203268   -0.681059
     11          1           0       -2.542132    0.223131    1.515966
     12          1           0       -2.326036    1.817650    0.778372
     13          1           0       -1.297832    1.331575    2.139417
     14          1           0       -0.412151    2.140748   -0.971259
     15          1           0        0.373917    2.183066    0.589922
     16          1           0        2.171659    2.063364   -1.005176
     17          1           0        1.450615    0.706787   -1.897005
     18          1           0        2.072474    0.634619    1.123670
     19          1           0        0.869535   -1.318857   -0.930883
     20          1           0        0.263385   -0.530274    1.992279
     21          1           0       -0.709495   -1.685690    1.078262
     22          1           0       -2.172230    0.658304   -1.375112
     23          1           0       -0.880501   -0.468991   -1.781818
     24          1           0       -1.990628   -2.027480   -0.582364
 ---------------------------------------------------------------------

 SCF Done:  E(UB3LYP) =  -463.781859484     A.U. after   31 cycles

 The electronic state is 2-A.
 Alpha  occ. eigenvalues --  -19.03867 -19.01386 -10.11108 -10.10896 -10.10550
 Alpha  occ. eigenvalues --  -10.08790 -10.07873 -10.07416 -10.07256 -10.05068
 Alpha  occ. eigenvalues --   -0.96492  -0.91546  -0.73388  -0.66367  -0.63190
 Alpha  occ. eigenvalues --   -0.57441  -0.54773  -0.50129  -0.49319  -0.45013
 Alpha  occ. eigenvalues --   -0.39836  -0.37937  -0.36526  -0.35897  -0.34417
 Alpha  occ. eigenvalues --   -0.33752  -0.32480  -0.29809  -0.28939  -0.27444
 Alpha  occ. eigenvalues --   -0.26292  -0.25379  -0.24407  -0.24079  -0.22360
 Alpha  occ. eigenvalues --   -0.21062  -0.17078  -0.16694  -0.15524   0.04896
 Alpha virt. eigenvalues --    0.06997   0.07730   0.08581   0.09771   0.10473
 Alpha virt. eigenvalues --    0.10674   0.11355   0.11525   0.13125   0.13729
 Alpha virt. eigenvalues --    0.13983   0.14244   0.14863   0.15478   0.16003

  Beta  occ. eigenvalues --  -19.03862 -19.01343 -10.11102 -10.10879 -10.10518
  Beta  occ. eigenvalues --  -10.08786 -10.07852 -10.07384 -10.07233 -10.05039
  Beta  occ. eigenvalues --   -0.96482  -0.91458  -0.73355  -0.66330  -0.63144
  Beta  occ. eigenvalues --   -0.57352  -0.54708  -0.50062  -0.49265  -0.44950
  Beta  occ. eigenvalues --   -0.39734  -0.37896  -0.36483  -0.35835  -0.34385
  Beta  occ. eigenvalues --   -0.33710  -0.32433  -0.29763  -0.28899  -0.27406
  Beta  occ. eigenvalues --   -0.26254  -0.25329  -0.24368  -0.24042  -0.22319
  Beta  occ. eigenvalues --   -0.21022  -0.17044  -0.16664  -0.15492
  Beta virt. eigenvalues --    0.07519   0.08339   0.08541   0.09302   0.10715
  Beta virt. eigenvalues --    0.11032   0.11140   0.11747   0.11853   0.13670
  Beta virt. eigenvalues --    0.14257   0.14545   0.14729   0.15156   0.15715

 Mulliken charges and spin densities:
               1          2
     1  C    0.418501  -0.908841
     2  C   -2.579890   3.179890
     3  C    0.669988  -1.100998
     4  C    0.367404  -0.730329
     5  C   -0.830990   0.724081
     6  C    0.755052  -0.949985
     7  C    0.855385  -1.267081
     8  O   -0.195670   0.040017
     9  C    2.519504  -3.098157
    10  O   -0.208662  -0.004947
    11  H   -0.000128   0.171965
    12  H   -0.176688   0.319979
    13  H   -0.402130   0.540196
    14  H   -0.359706   0.518271
    15  H   -0.254441   0.453309
    16  H   -0.346479   0.505237
    17  H   -0.048079   0.203398
    18  H   -0.000369   0.156628
    19  H   -0.407489   0.577566
    20  H   -0.064266   0.224683
    21  H   -0.153368   0.281109
    22  H   -0.204019   0.398520
    23  H   -0.122218   0.272339
    24  H   -0.231242   0.493150
 Sum of Mulliken charges =  -1.00000   1.00000

 Dipole moment (field-independent basis, Debye):
    X=              2.0265    Y=             -0.3202    Z=              1.1829  Tot=              2.3682
 Quadrupole moment (field-independent basis, Debye-Ang):
   XX=           -109.4024   YY=           -109.9233   ZZ=            -96.7050
   XY=             -0.5558   XZ=             -1.8269   YZ=             -2.2003

 Summary of Natural Population Analysis:

                                       Natural Population
                Natural  -----------------------------------------------
    Atom  No    Charge         Core      Valence    Rydberg      Total
 -----------------------------------------------------------------------
      C    1   -0.28649      0.99961     2.27906    0.00782     3.28649
      C    2   -0.04986      0.99957     2.03561    0.01468     3.04986
      C    3   -0.19013      0.99958     2.17877    0.01178     3.19013
      C    4   -0.19717      0.99960     2.18843    0.00914     3.19717
      C    5    0.03992      0.99937     1.94741    0.01330     2.96008
      C    6    0.03917      0.99936     1.94588    0.01559     2.96083
      C    7   -0.20011      0.99956     2.18975    0.01080     3.20011
      O    8   -0.26787      0.99992     3.26165    0.00630     4.26787
      C    9   -0.00937      0.99950     1.99548    0.01440     3.00937
      O   10   -0.37028      0.99990     3.36331    0.00708     4.37028
      H   11    0.10782      0.00000     0.39091    0.00127     0.39218
      H   12    0.10150      0.00000     0.39729    0.00121     0.39850
      H   13    0.09915      0.00000     0.39960    0.00125     0.40085
      H   14    0.10770      0.00000     0.39011    0.00219     0.39230
      H   15    0.10063      0.00000     0.39752    0.00185     0.39937
      H   16    0.09864      0.00000     0.40010    0.00126     0.40136
      H   17    0.10109      0.00000     0.39732    0.00159     0.39891
      H   18    0.08224      0.00000     0.41638    0.00138     0.41776
      H   19    0.08607      0.00000     0.41202    0.00191     0.41393
      H   20    0.10452      0.00000     0.39401    0.00147     0.39548
      H   21    0.10100      0.00000     0.39729    0.00171     0.39900
      H   22    0.08896      0.00000     0.40938    0.00166     0.41104
      H   23    0.08136      0.00000     0.41650    0.00214     0.41864
      H   24    0.23149      0.00000     0.26204    0.00647     0.26851
 =======================================================================
   * Total *   -0.00000      9.99598    28.86578    0.13824    39.00000

 Normal termination of Gaussian 16 at Tue Dec  8 13:04:47 2020.
