 Gaussian 16, Revision A.03,

 -----------------------------------------------------------
 # opt freq B3LYP/6-31G(d) empiricaldispersion=gd3bj scf=xqc
 -----------------------------------------------------------

 ------------------------------
 CID_66420625_JID_3070_neutraal
 ------------------------------
 Symbolic Z-matrix:
 Charge =  0 Multiplicity = 1

 SCF Done:  E(RB3LYP) =  -936.769550495     A.U. after   14 cycles
 SCF Done:  E(RB3LYP) =  -936.774705979     A.U. after   12 cycles
 SCF Done:  E(RB3LYP) =  -936.775261289     A.U. after   11 cycles
 SCF Done:  E(RB3LYP) =  -936.775288367     A.U. after   11 cycles
 SCF Done:  E(RB3LYP) =  -936.775591062     A.U. after   11 cycles
 SCF Done:  E(RB3LYP) =  -936.775607965     A.U. after    9 cycles
 SCF Done:  E(RB3LYP) =  -936.775615278     A.U. after   10 cycles
 SCF Done:  E(RB3LYP) =  -936.775616756     A.U. after    8 cycles
 SCF Done:  E(RB3LYP) =  -936.775617693     A.U. after    8 cycles
 SCF Done:  E(RB3LYP) =  -936.775618101     A.U. after    7 cycles
 SCF Done:  E(RB3LYP) =  -936.775624220     A.U. after   10 cycles
 SCF Done:  E(RB3LYP) =  -936.775625303     A.U. after   10 cycles
 SCF Done:  E(RB3LYP) =  -936.775625495     A.U. after    7 cycles
 SCF Done:  E(RB3LYP) =  -936.775625550     A.U. after    7 cycles
 SCF Done:  E(RB3LYP) =  -936.775625537     A.U. after    7 cycles
 SCF Done:  E(RB3LYP) =  -936.775625538     A.U. after    6 cycles
 Optimization completed.
    -- Stationary point found.
 Normal termination of Gaussian 16 at Wed Dec  9 22:28:17 2020.

 --------------------------------------------------------------------
 #N Geom=AllCheck Guess=TCheck SCRF=Check GenChk RB3LYP/6-31G(d) Freq
 --------------------------------------------------------------------

 Structure from the checkpoint file:  "JID_3070.chk"
 ------------------------------
 CID_66420625_JID_3070_neutraal
 ------------------------------
 Charge =  0 Multiplicity = 1

 SCF Done:  E(RB3LYP) =  -936.775625538     A.U. after    1 cycles

  Exact polarizability: 154.333   0.441 122.846   6.857   2.092  97.734
 Approx polarizability: 190.893   3.104 192.579  11.066  11.624 152.482

                      1                      2                      3
                      A                      A                      A
 Frequencies --     20.3645                36.1255                59.8106
 Red. masses --      2.3001                 3.6514                 2.7963
 Frc consts  --      0.0006                 0.0028                 0.0059
 IR Inten    --      1.1861                 0.1691                 0.3368

                      4                      5                      6
                      A                      A                      A
 Frequencies --     70.0732                91.2577               120.5669
 Red. masses --      2.0980                 2.7130                 3.7091
 Frc consts  --      0.0061                 0.0133                 0.0318
 IR Inten    --      0.5645                 1.3762                 0.4064

                      7                      8                      9
                      A                      A                      A
 Frequencies --    143.9142               174.4419               212.5161
 Red. masses --      4.4787                 2.1895                 3.4128
 Frc consts  --      0.0547                 0.0393                 0.0908
 IR Inten    --      1.4392                 0.7196                 9.5652

                     10                     11                     12
                      A                      A                      A
 Frequencies --    236.2408               268.8731               323.5054
 Red. masses --      1.1709                 2.3396                 2.8283
 Frc consts  --      0.0385                 0.0997                 0.1744
 IR Inten    --      3.3529                 2.2961                 3.1794

                     13                     14                     15
                      A                      A                      A
 Frequencies --    350.0888               387.3148               404.9155
 Red. masses --      3.1744                 3.4886                 2.7896
 Frc consts  --      0.2292                 0.3083                 0.2695
 IR Inten    --      5.1294                 1.4127                 2.4584

                     16                     17                     18
                      A                      A                      A
 Frequencies --    417.8114               431.8998               482.6899
 Red. masses --      2.7851                 2.6487                 2.1584
 Frc consts  --      0.2864                 0.2911                 0.2963
 IR Inten    --      6.8032                 2.5376                 9.2886

                     19                     20                     21
                      A                      A                      A
 Frequencies --    497.2720               594.2350               629.2636
 Red. masses --      2.4273                 2.7883                 3.9600
 Frc consts  --      0.3536                 0.5801                 0.9239
 IR Inten    --      9.4200                32.8483                10.9540

                     22                     23                     24
                      A                      A                      A
 Frequencies --    666.8021               689.2348               726.1794
 Red. masses --      4.0574                 4.8674                 4.1390
 Frc consts  --      1.0629                 1.3623                 1.2860
 IR Inten    --      4.0769                 4.4975                11.7692

                     25                     26                     27
                      A                      A                      A
 Frequencies --    754.9051               780.4227               799.9197
 Red. masses --      3.0500                 1.7059                 1.1951
 Frc consts  --      1.0241                 0.6122                 0.4505
 IR Inten    --     14.6200                48.7254                 9.4754

                     28                     29                     30
                      A                      A                      A
 Frequencies --    851.4793               867.5423               905.0273
 Red. masses --      1.5822                 3.0198                 2.3692
 Frc consts  --      0.6759                 1.3391                 1.1433
 IR Inten    --      1.0961                14.5792                 2.6176

                     31                     32                     33
                      A                      A                      A
 Frequencies --    927.9236               990.2830              1010.3100
 Red. masses --      2.3421                 1.9731                 2.4713
 Frc consts  --      1.1882                 1.1400                 1.4862
 IR Inten    --      0.7009                 1.1863                17.9655

                     34                     35                     36
                      A                      A                      A
 Frequencies --   1033.2465              1035.9904              1058.1167
 Red. masses --      2.3716                 1.9662                 1.7382
 Frc consts  --      1.4917                 1.2433                 1.1466
 IR Inten    --     13.0322                20.9741                24.1960

                     37                     38                     39
                      A                      A                      A
 Frequencies --   1084.1392              1102.7571              1118.5759
 Red. masses --      2.0134                 1.5950                 1.6752
 Frc consts  --      1.3943                 1.1428                 1.2349
 IR Inten    --     15.3624                20.9347                44.5325

                     40                     41                     42
                      A                      A                      A
 Frequencies --   1143.9800              1161.2515              1162.9586
 Red. masses --      1.4765                 1.8749                 1.7214
 Frc consts  --      1.1385                 1.4897                 1.3717
 IR Inten    --     56.3514                 5.7382                15.1636

                     43                     44                     45
                      A                      A                      A
 Frequencies --   1214.1911              1228.1411              1246.6340
 Red. masses --      1.2572                 1.5143                 1.1949
 Frc consts  --      1.0920                 1.3457                 1.0941
 IR Inten    --      3.1982                11.2776                 1.8323

                     46                     47                     48
                      A                      A                      A
 Frequencies --   1269.2636              1276.7550              1310.2587
 Red. masses --      2.7942                 1.1961                 1.3448
 Frc consts  --      2.6523                 1.1488                 1.3602
 IR Inten    --     18.0340                14.8764                 3.6274

                     49                     50                     51
                      A                      A                      A
 Frequencies --   1325.6758              1328.5573              1354.3439
 Red. masses --      1.4575                 1.2472                 1.5638
 Frc consts  --      1.5091                 1.2971                 1.6901
 IR Inten    --      5.3069                17.9736               112.2675

                     52                     53                     54
                      A                      A                      A
 Frequencies --   1367.7189              1392.6173              1406.9469
 Red. masses --      1.2501                 1.2553                 1.2539
 Frc consts  --      1.3778                 1.4343                 1.4624
 IR Inten    --     16.6831                45.9978                 5.8951

                     55                     56                     57
                      A                      A                      A
 Frequencies --   1435.0874              1437.1342              1456.8337
 Red. masses --      1.2902                 1.4629                 1.8197
 Frc consts  --      1.5655                 1.7802                 2.2755
 IR Inten    --     20.5971                10.9514               102.2685

                     58                     59                     60
                      A                      A                      A
 Frequencies --   1479.3747              1490.6325              1493.0265
 Red. masses --      1.0932                 1.0996                 1.2319
 Frc consts  --      1.4097                 1.4396                 1.6179
 IR Inten    --      5.2045                19.8384                17.6455

                     61                     62                     63
                      A                      A                      A
 Frequencies --   1512.1216              1512.4127              1517.8676
 Red. masses --      1.1934                 1.0936                 1.2326
 Frc consts  --      1.6077                 1.4738                 1.6732
 IR Inten    --     30.9443                 5.8105                 4.6488

                     64                     65                     66
                      A                      A                      A
 Frequencies --   1521.0256              1527.6605              1534.5830
 Red. masses --      1.0568                 1.0968                 1.1180
 Frc consts  --      1.4405                 1.5080                 1.5513
 IR Inten    --      4.1387                 3.8675                 3.2449

                     67                     68                     69
                      A                      A                      A
 Frequencies --   1537.8107              1558.1282              1736.2344
 Red. masses --      1.0553                 1.1562                 9.0700
 Frc consts  --      1.4705                 1.6538                16.1092
 IR Inten    --      3.7789                41.5484               229.5307

                     70                     71                     72
                      A                      A                      A
 Frequencies --   2979.2918              3022.1287              3031.5897
 Red. masses --      1.0702                 1.0838                 1.0417
 Frc consts  --      5.5966                 5.8321                 5.6404
 IR Inten    --     56.1818                30.7070                48.2695

                     73                     74                     75
                      A                      A                      A
 Frequencies --   3053.5443              3061.0050              3064.1048
 Red. masses --      1.0376                 1.0801                 1.0682
 Frc consts  --      5.7003                 5.9625                 5.9089
 IR Inten    --     20.5034                14.6551                51.7673

                     76                     77                     78
                      A                      A                      A
 Frequencies --   3073.8632              3074.3756              3076.0909
 Red. masses --      1.1022                 1.0713                 1.0676
 Frc consts  --      6.1359                 5.9659                 5.9516
 IR Inten    --     36.5107                62.9652                21.9212

                     79                     80                     81
                      A                      A                      A
 Frequencies --   3083.7740              3113.4526              3129.8055
 Red. masses --      1.0633                 1.1012                 1.1060
 Frc consts  --      5.9573                 6.2891                 6.3830
 IR Inten    --     21.3982                26.6652                13.4702

                     82                     83                     84
                      A                      A                      A
 Frequencies --   3141.2463              3142.3944              3152.3331
 Red. masses --      1.0969                 1.0976                 1.1019
 Frc consts  --      6.3773                 6.3860                 6.4513
 IR Inten    --     19.2379                 3.8792                18.6200

                     85                     86                     87
                      A                      A                      A
 Frequencies --   3156.8477              3191.2085              3501.9052
 Red. masses --      1.1033                 1.0924                 1.0744
 Frc consts  --      6.4783                 6.5547                 7.7628
 IR Inten    --      0.9102                19.4014                 1.6845

 - Thermochemistry -
 -------------------
 Temperature   298.150 Kelvin.  Pressure   1.00000 Atm.
 Atom     1 has atomic number  6 and mass  12.00000

 Molecular mass:   202.11399 amu.
 Principal axes and moments of inertia in atomic units:
                           1         2         3
     Eigenvalues --  1271.309684868.431665491.19618
           X            0.99991  -0.00954   0.00970
           Y            0.00992   0.99916  -0.03974
           Z           -0.00931   0.03984   0.99916
 This molecule is an asymmetric top.
 Rotational symmetry number  1.
 Warning -- assumption of classical behavior for rotation
           may cause significant error
 Rotational temperatures (Kelvin)      0.06813     0.01779     0.01577
 Rotational constants (GHZ):           1.41959     0.37070     0.32866
 Zero-point vibrational energy     719818.3 (Joules/Mol)
                                  172.04071 (Kcal/Mol)
 Warning -- explicit consideration of  20 degrees of freedom as
           vibrations may cause significant error
 Vibrational temperatures:     29.30    51.98    86.05   100.82   131.30
          (Kelvin)            173.47   207.06   250.98   305.76   339.90
                              386.85   465.45   503.70   557.26   582.58
                              601.14   621.41   694.48   715.46   854.97
                              905.37   959.38   991.66  1044.81  1086.14
                             1122.85  1150.91  1225.09  1248.20  1302.13
                             1335.08  1424.80  1453.61  1486.61  1490.56
                             1522.39  1559.83  1586.62  1609.38  1645.93
                             1670.78  1673.24  1746.95  1767.02  1793.63
                             1826.19  1836.97  1885.17  1907.35  1911.50
                             1948.60  1967.84  2003.67  2024.28  2064.77
                             2067.72  2096.06  2128.49  2144.69  2148.13
                             2175.61  2176.02  2183.87  2188.42  2197.96
                             2207.92  2212.57  2241.80  2498.05  4286.54
                             4348.17  4361.78  4393.37  4404.10  4408.56
                             4422.60  4423.34  4425.81  4436.86  4479.56
                             4503.09  4519.55  4521.20  4535.50  4542.00
                             4591.44  5038.46

 Zero-point correction=                           0.274164 (Hartree/Particle)
 Thermal correction to Energy=                    0.288636
 Thermal correction to Enthalpy=                  0.289580
 Thermal correction to Gibbs Free Energy=         0.230870
 Sum of electronic and zero-point Energies=           -936.501461
 Sum of electronic and thermal Energies=              -936.486990
 Sum of electronic and thermal Enthalpies=            -936.486045
 Sum of electronic and thermal Free Energies=         -936.544755

                     E (Thermal)             CV                S
                      KCal/Mol        Cal/Mol-Kelvin    Cal/Mol-Kelvin
 Total                  181.122             53.222            123.565
 Electronic               0.000              0.000              0.000
 Translational            0.889              2.981             41.815
 Rotational               0.889              2.981             31.897
 Vibrational            179.344             47.261             49.853
 Vibration     1          0.593              1.986              6.598
 Vibration     2          0.594              1.982              5.461
 Vibration     3          0.597              1.973              4.463
 Vibration     4          0.598              1.968              4.151
 Vibration     5          0.602              1.955              3.633
 Vibration     6          0.609              1.932              3.091
 Vibration     7          0.616              1.909              2.751
 Vibration     8          0.627              1.874              2.387
 Vibration     9          0.644              1.822              2.022
 Vibration    10          0.655              1.785              1.831
 Vibration    11          0.673              1.730              1.603
 Vibration    12          0.708              1.628              1.292
 Vibration    13          0.727              1.575              1.166
 Vibration    14          0.756              1.497              1.010
 Vibration    15          0.770              1.460              0.945
 Vibration    16          0.781              1.432              0.899
 Vibration    17          0.793              1.401              0.852
 Vibration    18          0.839              1.288              0.703
 Vibration    19          0.853              1.256              0.665
 Vibration    20          0.952              1.044              0.460

 Optimization completed.
    -- Stationary point found.
 Normal termination of Gaussian 16 at Wed Dec  9 22:36:06 2020.

 ----------------------------------------------------------------------
 # B3LYP/6-311++G(d,p) empiricaldispersion=gd3bj scf=xqc pop=npa geom=c
 heck
 ----------------------------------------------------------------------

 --------------------------------------
 CID_66420625_JID_3070_Energie_neutraal
 --------------------------------------
 Structure from the checkpoint file:  "JID_3070.chk"
 Charge =  0 Multiplicity = 1

 SCF Done:  E(RB3LYP) =  -936.959058436     A.U. after   15 cycles
 Normal termination of Gaussian 16 at Wed Dec  9 22:39:27 2020.

 ----------------------------------------------------------------------
 # B3LYP/6-311++G(d,p) empiricaldispersion=gd3bj scf=xqc pop=npa geom=c
 heck
 ----------------------------------------------------------------------

 ------------------------------------
 CID_66420625_JID_3070_Energie_kation
 ------------------------------------
 Structure from the checkpoint file:  "JID_3070.chk"
 Charge =  1 Multiplicity = 2

 SCF Done:  E(UB3LYP) =  -936.668456384     A.U. after   27 cycles
 Normal termination of Gaussian 16 at Wed Dec  9 22:47:25 2020.
 Gaussian 16:  ES64L-G16RevA.03 25-Dec-2016

 ----------------------------------------------------------------------
 # B3LYP/6-311++G(d,p) empiricaldispersion=gd3bj scf=xqc pop=npa geom=c
 heck
 ----------------------------------------------------------------------

 -----------------------------------
 CID_66420625_JID_3070_Energie_anion
 -----------------------------------
 Structure from the checkpoint file:  "JID_3070.chk"
 Charge = -1 Multiplicity = 2

                         Standard orientation:
 ---------------------------------------------------------------------
 Center     Atomic      Atomic             Coordinates (Angstroms)
 Number     Number       Type             X           Y           Z
 ---------------------------------------------------------------------
      1          6           0        3.841946   -0.956220    1.119255
      2          6           0        3.703593   -0.306337   -0.258331
      3          7           0        2.468468    0.471105   -0.391675
      4          6           0        2.542134    1.856430    0.036486
      5          6           0        1.328602   -0.210654   -0.739796
      6          8           0        1.357058   -1.426676   -0.934047
      7          6           0        0.014903    0.549227   -0.832496
      8          6           0       -0.720074    0.556220    0.538066
      9          6           0       -1.218077   -0.843679    0.923030
     10         16           0       -2.592340   -1.436083   -0.136853
     11          6           0       -3.678902    0.024502    0.082338
     12          6           0       -2.946788    1.316785   -0.265258
     13          7           0       -1.816133    1.525188    0.643326
     14          1           0        3.819546   -0.208978    1.921107
     15          1           0        4.789238   -1.501801    1.193437
     16          1           0        3.022759   -1.663250    1.275501
     17          1           0        4.541734    0.371726   -0.456794
     18          1           0        3.693747   -1.075534   -1.032290
     19          1           0        1.561082    2.326822    0.024729
     20          1           0        2.932316    1.923515    1.060520
     21          1           0        3.209554    2.431869   -0.618598
     22          1           0        0.145197    1.578192   -1.182673
     23          1           0       -0.592120    0.018941   -1.568823
     24          1           0        0.006504    0.847896    1.309689
     25          1           0       -0.415930   -1.574683    0.804553
     26          1           0       -1.552089   -0.833272    1.964803
     27          1           0       -4.035020    0.065096    1.117256
     28          1           0       -4.536553   -0.124673   -0.579926
     29          1           0       -3.631307    2.163111   -0.127899
     30          1           0       -2.662433    1.291329   -1.331161
     31          1           0       -1.445603    2.462736    0.507254
 ---------------------------------------------------------------------

 SCF Done:  E(UB3LYP) =  -936.951028238     A.U. after   29 cycles

 The electronic state is 2-A.
 Alpha  occ. eigenvalues --  -88.74081 -18.98361 -14.24357 -14.20278 -10.16945
 Alpha  occ. eigenvalues --  -10.11459 -10.10588 -10.10327 -10.10233 -10.10003
 Alpha  occ. eigenvalues --  -10.09793 -10.07308 -10.06806  -7.82711  -5.79089
 Alpha  occ. eigenvalues --   -5.78759  -5.78075  -0.93719  -0.83567  -0.82137
 Alpha  occ. eigenvalues --   -0.70095  -0.69409  -0.66607  -0.62623  -0.60311
 Alpha  occ. eigenvalues --   -0.54984  -0.54330  -0.52788  -0.45574  -0.43969
 Alpha  occ. eigenvalues --   -0.41960  -0.40121  -0.38764  -0.37268  -0.36219
 Alpha  occ. eigenvalues --   -0.35776  -0.34079  -0.32430  -0.31908  -0.31386
 Alpha  occ. eigenvalues --   -0.30613  -0.30067  -0.29805  -0.28970  -0.28100
 Alpha  occ. eigenvalues --   -0.27449  -0.26749  -0.26106  -0.24829  -0.23294
 Alpha  occ. eigenvalues --   -0.20623  -0.16104  -0.14519  -0.13515  -0.12741
 Alpha  occ. eigenvalues --    0.04070
 Alpha virt. eigenvalues --    0.06222   0.07300   0.07809   0.08509   0.09021
 Alpha virt. eigenvalues --    0.09233   0.10088   0.10570   0.10852   0.11209
 Alpha virt. eigenvalues --    0.11603   0.11757   0.12563   0.12893   0.13427

  Beta  occ. eigenvalues --  -88.74080 -18.98360 -14.24353 -14.20247 -10.16943
  Beta  occ. eigenvalues --  -10.11450 -10.10573 -10.10318 -10.10212 -10.09933
  Beta  occ. eigenvalues --  -10.09788 -10.07289 -10.06784  -7.82710  -5.79088
  Beta  occ. eigenvalues --   -5.78758  -5.78074  -0.93714  -0.83551  -0.82089
  Beta  occ. eigenvalues --   -0.70073  -0.69383  -0.66574  -0.62581  -0.60231
  Beta  occ. eigenvalues --   -0.54943  -0.54291  -0.52751  -0.45527  -0.43905
  Beta  occ. eigenvalues --   -0.41888  -0.40081  -0.38718  -0.37242  -0.36189
  Beta  occ. eigenvalues --   -0.35738  -0.34049  -0.32396  -0.31885  -0.31369
  Beta  occ. eigenvalues --   -0.30564  -0.30026  -0.29759  -0.28928  -0.28075
  Beta  occ. eigenvalues --   -0.27418  -0.26729  -0.26080  -0.24806  -0.23267
  Beta  occ. eigenvalues --   -0.20605  -0.16087  -0.14496  -0.13490  -0.12724
  Beta virt. eigenvalues --    0.06541   0.06922   0.08078   0.08314   0.08986
  Beta virt. eigenvalues --    0.09336   0.09530   0.10696   0.10862   0.11025
  Beta virt. eigenvalues --    0.11406   0.11753   0.11967   0.12989   0.13272

 Mulliken charges and spin densities:
               1          2
     1  C    0.507850  -0.927663
     2  C   -0.740246   0.583151
     3  N   -0.055987   0.197605
     4  C    1.789821  -2.149188
     5  C   -0.742255   0.315009
     6  O   -0.318115  -0.000606
     7  C   -0.033594  -0.300607
     8  C    0.927600  -0.672387
     9  C   -0.519006  -0.288088
    10  S    0.095478  -0.019445
    11  C   -0.547316  -0.186968
    12  C    0.479689  -0.599209
    13  N   -0.167674   0.138177
    14  H   -0.069455   0.202670
    15  H   -0.072684   0.201686
    16  H    0.089754   0.077792
    17  H   -0.174801   0.321446
    18  H    0.082024   0.097168
    19  H   -0.136660   0.307379
    20  H   -0.480615   0.640393
    21  H   -0.696755   0.862451
    22  H   -0.275137   0.502743
    23  H    0.086103   0.053707
    24  H    0.153147   0.087769
    25  H    0.236455  -0.020532
    26  H    0.044304   0.167801
    27  H    0.240753  -0.051984
    28  H   -0.022624   0.218731
    29  H   -0.606992   0.782959
    30  H    0.127610  -0.015785
    31  H   -0.200673   0.473826
 Sum of Mulliken charges =  -1.00000   1.00000

 Dipole moment (field-independent basis, Debye):
    X=             -2.5171    Y=             -5.8329    Z=             -0.2466  Tot=              6.3576
 Quadrupole moment (field-independent basis, Debye-Ang):
   XX=           -154.8072   YY=           -149.0210   ZZ=           -117.2924
   XY=             -5.5912   XZ=             -1.6661   YZ=             -4.7029

 Summary of Natural Population Analysis:

                                       Natural Population
                Natural  -----------------------------------------------
    Atom  No    Charge         Core      Valence    Rydberg      Total
 -----------------------------------------------------------------------
      C    1   -0.29213      0.99966     2.28765    0.00483     3.29213
      C    2   -0.08560      0.99962     2.07527    0.01071     3.08560
      N    3   -0.25358      0.99965     2.74215    0.01179     3.75358
      C    4   -0.17490      0.99962     2.16681    0.00847     3.17490
      C    5    0.34610      0.99963     1.63080    0.02347     2.65390
      O    6   -0.33667      0.99988     3.33183    0.00495     4.33667
      C    7   -0.24582      0.99957     2.23601    0.01025     3.24582
      C    8   -0.01318      0.99957     1.99857    0.01505     3.01318
      C    9   -0.25329      0.99955     2.24314    0.01060     3.25329
      S   10    0.08307      4.99964     2.90029    0.01700     7.91693
      C   11   -0.25302      0.99959     2.24273    0.01070     3.25302
      C   12   -0.09536      0.99960     2.08226    0.01350     3.09536
      N   13   -0.34363      0.99973     2.82981    0.01409     3.84363
      H   14    0.09871      0.00000     0.40028    0.00101     0.40129
      H   15    0.09711      0.00000     0.40214    0.00075     0.40289
      H   16    0.10448      0.00000     0.39453    0.00099     0.39552
      H   17    0.09375      0.00000     0.40508    0.00117     0.40625
      H   18    0.10683      0.00000     0.39209    0.00108     0.39317
      H   19    0.10560      0.00000     0.39150    0.00289     0.39440
      H   20    0.09728      0.00000     0.40015    0.00257     0.40272
      H   21    0.09696      0.00000     0.40060    0.00244     0.40304
      H   22    0.10796      0.00000     0.39051    0.00153     0.39204
      H   23    0.11743      0.00000     0.38095    0.00162     0.38257
      H   24    0.10011      0.00000     0.39754    0.00236     0.39989
      H   25    0.11923      0.00000     0.37970    0.00106     0.38077
      H   26    0.10267      0.00000     0.39600    0.00133     0.39733
      H   27    0.09999      0.00000     0.39850    0.00151     0.40001
      H   28    0.10478      0.00000     0.39429    0.00093     0.39522
      H   29    0.09938      0.00000     0.39884    0.00178     0.40062
      H   30    0.08255      0.00000     0.41571    0.00174     0.41745
      H   31    0.18319      0.00000     0.31080    0.00602     0.31681
 =======================================================================
   * Total *    0.00000     16.99530    37.81651    0.18819    55.00000

 Normal termination of Gaussian 16 at Wed Dec  9 22:56:01 2020.
