 Gaussian 16, Revision A.03,

 -----------------------------------------------------------
 # opt freq B3LYP/6-31G(d) empiricaldispersion=gd3bj scf=xqc
 -----------------------------------------------------------

 ------------------------------
 CID_152215755_JID_998_neutraal
 ------------------------------
 Symbolic Z-matrix:
 Charge =  0 Multiplicity = 1

 SCF Done:  E(RB3LYP) =  -833.564519576     A.U. after   15 cycles
 SCF Done:  E(RB3LYP) =  -833.566441706     A.U. after   16 cycles
 SCF Done:  E(RB3LYP) =  -833.567897883     A.U. after   14 cycles
 SCF Done:  E(RB3LYP) =  -833.568195866     A.U. after   14 cycles
 SCF Done:  E(RB3LYP) =  -833.569032340     A.U. after   14 cycles
 SCF Done:  E(RB3LYP) =  -833.566794417     A.U. after   16 cycles
 SCF Done:  E(RB3LYP) =  -833.569143946     A.U. after   15 cycles
 SCF Done:  E(RB3LYP) =  -833.569393487     A.U. after   14 cycles
 SCF Done:  E(RB3LYP) =  -833.569397342     A.U. after   14 cycles
 SCF Done:  E(RB3LYP) =  -833.569487031     A.U. after   13 cycles
 SCF Done:  E(RB3LYP) =  -833.569494270     A.U. after   11 cycles
 SCF Done:  E(RB3LYP) =  -833.569495010     A.U. after   10 cycles
 SCF Done:  E(RB3LYP) =  -833.569495328     A.U. after    9 cycles
 SCF Done:  E(RB3LYP) =  -833.569495364     A.U. after    8 cycles
 Optimization completed.
    -- Stationary point found.
 Normal termination of Gaussian 16 at Tue Dec  8 13:58:30 2020.

 --------------------------------------------------------------------
 #N Geom=AllCheck Guess=TCheck SCRF=Check GenChk RB3LYP/6-31G(d) Freq
 --------------------------------------------------------------------

 Structure from the checkpoint file:  "JID_998.chk"
 ------------------------------
 CID_152215755_JID_998_neutraal
 ------------------------------
 Charge =  0 Multiplicity = 1

 SCF Done:  E(RB3LYP) =  -833.569495364     A.U. after    1 cycles

  Exact polarizability:  97.033  -8.012 104.469  -2.365   5.025  66.878
 Approx polarizability: 138.580 -27.352 191.095  -5.871  28.048 109.488

                      1                      2                      3
                      A                      A                      A
 Frequencies --     24.6486                52.4431                61.1086
 Red. masses --      7.1433                 7.2357                 9.2275
 Frc consts  --      0.0026                 0.0117                 0.0203
 IR Inten    --      0.2676                 0.8212                 0.5161

                      4                      5                      6
                      A                      A                      A
 Frequencies --    100.0902               133.1329               158.0757
 Red. masses --      5.1928                 3.9020                 2.8202
 Frc consts  --      0.0307                 0.0407                 0.0415
 IR Inten    --      7.7342                 6.2662                 3.2530

                      7                      8                      9
                      A                      A                      A
 Frequencies --    189.7055               228.6173               272.6191
 Red. masses --      4.5602                 2.9406                 2.6929
 Frc consts  --      0.0967                 0.0906                 0.1179
 IR Inten    --      2.7438                 0.1956                10.7407

                     10                     11                     12
                      A                      A                      A
 Frequencies --    298.5556               339.5776               476.2971
 Red. masses --      2.7657                 3.9992                 3.6987
 Frc consts  --      0.1452                 0.2717                 0.4944
 IR Inten    --      0.9231                 2.3033                 3.7616

                     13                     14                     15
                      A                      A                      A
 Frequencies --    504.5579               574.0058               663.1387
 Red. masses --      2.3844                13.3167                 4.6267
 Frc consts  --      0.3576                 2.5851                 1.1988
 IR Inten    --     12.1582                15.5513                 1.5094

                     16                     17                     18
                      A                      A                      A
 Frequencies --    672.9635               727.5892               766.3165
 Red. masses --      4.9273                 2.4636                 1.5992
 Frc consts  --      1.3147                 0.7684                 0.5533
 IR Inten    --      5.9240                 3.4667                 6.8146

                     19                     20                     21
                      A                      A                      A
 Frequencies --    863.6252               888.9714               906.6683
 Red. masses --      3.1882                 2.0984                 1.9127
 Frc consts  --      1.4010                 0.9771                 0.9264
 IR Inten    --      8.8537                 2.0988                 4.1036

                     22                     23                     24
                      A                      A                      A
 Frequencies --    979.9312              1013.7797              1044.5141
 Red. masses --      1.6624                 2.3947                 2.1653
 Frc consts  --      0.9405                 1.4501                 1.3918
 IR Inten    --      2.6872                11.5722                15.5914

                     25                     26                     27
                      A                      A                      A
 Frequencies --   1071.1767              1103.8232              1196.1255
 Red. masses --      2.3432                 2.0631                 1.3361
 Frc consts  --      1.5841                 1.4810                 1.1262
 IR Inten    --      3.8731                 7.2093                15.3667

                     28                     29                     30
                      A                      A                      A
 Frequencies --   1209.1093              1248.2483              1256.8707
 Red. masses --      1.2469                 1.2717                 1.2397
 Frc consts  --      1.0740                 1.1675                 1.1538
 IR Inten    --     10.9414                 8.0502                 1.1965

                     31                     32                     33
                      A                      A                      A
 Frequencies --   1302.5249              1332.3539              1347.1714
 Red. masses --      1.4793                 1.7038                 1.5661
 Frc consts  --      1.4787                 1.7820                 1.6746
 IR Inten    --     30.2762                82.1217                56.4065

                     34                     35                     36
                      A                      A                      A
 Frequencies --   1399.0006              1411.6211              1430.0308
 Red. masses --      1.3431                 1.3517                 1.1836
 Frc consts  --      1.5488                 1.5869                 1.4261
 IR Inten    --      4.8478                 7.4143                 3.2918

                     37                     38                     39
                      A                      A                      A
 Frequencies --   1487.1126              1501.0716              1516.4763
 Red. masses --      1.1119                 1.0871                 1.0890
 Frc consts  --      1.4488                 1.4432                 1.4755
 IR Inten    --      8.3423                 6.1094                 5.3715

                     40                     41                     42
                      A                      A                      A
 Frequencies --   1524.3912              1812.2563              2264.8277
 Red. masses --      1.0865                 9.2756                13.6292
 Frc consts  --      1.4876                17.9487                41.1898
 IR Inten    --      2.8368               131.9961               407.2476

                     43                     44                     45
                      A                      A                      A
 Frequencies --   2944.5612              3041.1368              3063.6300
 Red. masses --      1.0858                 1.0682                 1.0604
 Frc consts  --      5.5469                 5.8205                 5.8641
 IR Inten    --    103.1518                38.0903                19.9557

                     46                     47                     48
                      A                      A                      A
 Frequencies --   3077.7055              3091.4313              3105.2021
 Red. masses --      1.0647                 1.0585                 1.0997
 Frc consts  --      5.9418                 5.9603                 6.2474
 IR Inten    --     10.8812                 6.4547                 3.6185

                     49                     50                     51
                      A                      A                      A
 Frequencies --   3126.7814              3142.2009              3157.3433
 Red. masses --      1.0977                 1.1029                 1.1087
 Frc consts  --      6.3231                 6.4158                 6.5118
 IR Inten    --     21.9852                10.7059                 6.3414

 - Thermochemistry -
 -------------------
 Temperature   298.150 Kelvin.  Pressure   1.00000 Atm.
 Atom     1 has atomic number  6 and mass  12.00000

 Molecular mass:   159.04663 amu.
 Principal axes and moments of inertia in atomic units:
                           1         2         3
     Eigenvalues --  1065.717722396.771083199.80750
           X            0.99902   0.04428  -0.00058
           Y           -0.04429   0.99899  -0.00772
           Z            0.00024   0.00774   0.99997
 This molecule is an asymmetric top.
 Rotational symmetry number  1.
 Warning -- assumption of classical behavior for rotation
           may cause significant error
 Rotational temperatures (Kelvin)      0.08127     0.03614     0.02707
 Rotational constants (GHZ):           1.69345     0.75299     0.56402
 Zero-point vibrational energy     389415.1 (Joules/Mol)
                                   93.07244 (Kcal/Mol)
 Warning -- explicit consideration of  14 degrees of freedom as
           vibrations may cause significant error
 Vibrational temperatures:     35.46    75.45    87.92   144.01   191.55
          (Kelvin)            227.44   272.94   328.93   392.24   429.55
                              488.58   685.29   725.95   825.87   954.11
                              968.24  1046.84  1102.56  1242.56  1279.03
                             1304.49  1409.90  1458.60  1502.82  1541.18
                             1588.16  1720.96  1739.64  1795.95  1808.36
                             1874.04  1916.96  1938.28  2012.85  2031.01
                             2057.50  2139.62  2159.71  2181.87  2193.26
                             2607.43  3258.58  4236.57  4375.52  4407.88
                             4428.13  4447.88  4467.69  4498.74  4520.93
                             4542.71

 Zero-point correction=                           0.148320 (Hartree/Particle)
 Thermal correction to Energy=                    0.159608
 Thermal correction to Enthalpy=                  0.160552
 Thermal correction to Gibbs Free Energy=         0.109027
 Sum of electronic and zero-point Energies=           -833.421175
 Sum of electronic and thermal Energies=              -833.409888
 Sum of electronic and thermal Enthalpies=            -833.408944
 Sum of electronic and thermal Free Energies=         -833.460468

                     E (Thermal)             CV                S
                      KCal/Mol        Cal/Mol-Kelvin    Cal/Mol-Kelvin
 Total                  100.155             38.223            108.443
 Electronic               0.000              0.000              0.000
 Translational            0.889              2.981             41.101
 Rotational               0.889              2.981             30.481
 Vibrational             98.378             32.261             36.861
 Vibration     1          0.593              1.985              6.219
 Vibration     2          0.596              1.977              4.723
 Vibration     3          0.597              1.973              4.421
 Vibration     4          0.604              1.949              3.453
 Vibration     5          0.613              1.920              2.900
 Vibration     6          0.621              1.894              2.573
 Vibration     7          0.633              1.854              2.231
 Vibration     8          0.651              1.797              1.890
 Vibration     9          0.676              1.724              1.580
 Vibration    10          0.692              1.676              1.425
 Vibration    11          0.719              1.596              1.214
 Vibration    12          0.833              1.303              0.720
 Vibration    13          0.860              1.240              0.647
 Vibration    14          0.930              1.087              0.497

 Optimization completed.
    -- Stationary point found.
 Normal termination of Gaussian 16 at Tue Dec  8 14:03:19 2020.

 ----------------------------------------------------------------------
 # B3LYP/6-311++G(d,p) empiricaldispersion=gd3bj scf=xqc pop=npa geom=c
 heck
 ----------------------------------------------------------------------

 --------------------------------------
 CID_152215755_JID_998_Energie_neutraal
 --------------------------------------
 Structure from the checkpoint file:  "JID_998.chk"
 Charge =  0 Multiplicity = 1

 SCF Done:  E(RB3LYP) =  -833.723293941     A.U. after   15 cycles
 Normal termination of Gaussian 16 at Tue Dec  8 14:05:21 2020.

 ----------------------------------------------------------------------
 # B3LYP/6-311++G(d,p) empiricaldispersion=gd3bj scf=xqc pop=npa geom=c
 heck
 ----------------------------------------------------------------------

 ------------------------------------
 CID_152215755_JID_998_Energie_kation
 ------------------------------------
 Structure from the checkpoint file:  "JID_998.chk"
 Charge =  1 Multiplicity = 2

 SCF Done:  E(UB3LYP) =  -833.409065413     A.U. after   21 cycles
 Normal termination of Gaussian 16 at Tue Dec  8 14:12:15 2020.
 Gaussian 16:  ES64L-G16RevA.03 25-Dec-2016

 ----------------------------------------------------------------------
 # B3LYP/6-311++G(d,p) empiricaldispersion=gd3bj scf=xqc pop=npa geom=c
 heck
 ----------------------------------------------------------------------

 -----------------------------------
 CID_152215755_JID_998_Energie_anion
 -----------------------------------
 Structure from the checkpoint file:  "JID_998.chk"
 Charge = -1 Multiplicity = 2

                         Standard orientation:
 ---------------------------------------------------------------------
 Center     Atomic      Atomic             Coordinates (Angstroms)
 Number     Number       Type             X           Y           Z
 ---------------------------------------------------------------------
      1          6           0       -0.348048   -1.246016    0.663634
      2          6           0       -1.796139   -1.564849    0.272312
      3          7           0       -2.387302   -0.551681   -0.632094
      4          7           0       -2.653610    0.533498   -0.099996
      5          7           0       -2.957070    1.567504    0.275135
      6          6           0        0.565234   -1.170063   -0.557426
      7         16           0        2.330506   -0.827081   -0.179806
      8          6           0        2.201432    0.792129    0.690993
      9          6           0        1.514802    1.756506   -0.241720
     10          8           0        0.329219    2.007648   -0.182688
     11          1           0        0.011078   -2.014293    1.358868
     12          1           0       -0.335185   -0.288508    1.195336
     13          1           0       -1.847667   -2.503071   -0.286195
     14          1           0       -2.413262   -1.678536    1.173658
     15          1           0        0.594670   -2.132473   -1.080486
     16          1           0        0.189396   -0.424544   -1.261845
     17          1           0        1.652199    0.699097    1.630135
     18          1           0        3.235066    1.090910    0.889475
     19          1           0        2.154042    2.172049   -1.048615
 ---------------------------------------------------------------------

 SCF Done:  E(UB3LYP) =  -833.718297425     A.U. after   33 cycles
 SCF Done:  E(UB3LYP) =  -833.718297425     a.u. after    1 cycles

 The electronic state is 2-A.
 Alpha  occ. eigenvalues --  -88.71790 -18.96030 -14.35217 -14.25253 -14.23328
 Alpha  occ. eigenvalues --  -10.09949 -10.09584 -10.07727 -10.07501 -10.05801
 Alpha  occ. eigenvalues --   -7.80395  -5.76783  -5.76434  -5.75772  -1.01344
 Alpha  occ. eigenvalues --   -0.89730  -0.85558  -0.70108  -0.66122  -0.60174
 Alpha  occ. eigenvalues --   -0.53500  -0.48082  -0.43657  -0.41064  -0.39532
 Alpha  occ. eigenvalues --   -0.38358  -0.35736  -0.34237  -0.33337  -0.31650
 Alpha  occ. eigenvalues --   -0.30187  -0.29857  -0.27271  -0.26747  -0.25972
 Alpha  occ. eigenvalues --   -0.23490  -0.22446  -0.19338  -0.17970  -0.13542
 Alpha  occ. eigenvalues --   -0.12136  -0.10147   0.05175
 Alpha virt. eigenvalues --    0.07092   0.08437   0.09191   0.09290   0.10764
 Alpha virt. eigenvalues --    0.11300   0.12005   0.12370   0.12921   0.14358
 Alpha virt. eigenvalues --    0.14604   0.15395   0.15624   0.16719   0.17336

  Beta  occ. eigenvalues --  -88.71741 -18.95586 -14.35139 -14.25104 -14.23354
  Beta  occ. eigenvalues --  -10.09894 -10.09268 -10.07736 -10.07479 -10.05783
  Beta  occ. eigenvalues --   -7.80343  -5.76662  -5.76397  -5.75741  -1.01169
  Beta  occ. eigenvalues --   -0.88918  -0.85462  -0.70000  -0.65929  -0.59980
  Beta  occ. eigenvalues --   -0.53282  -0.47746  -0.43147  -0.40931  -0.39218
  Beta  occ. eigenvalues --   -0.38268  -0.35500  -0.34059  -0.33059  -0.31393
  Beta  occ. eigenvalues --   -0.29883  -0.29633  -0.26896  -0.26191  -0.25784
  Beta  occ. eigenvalues --   -0.23137  -0.21331  -0.18849  -0.17749  -0.13464
  Beta  occ. eigenvalues --   -0.11889  -0.09905
  Beta virt. eigenvalues --    0.08125   0.08936   0.09355   0.09746   0.10566
  Beta virt. eigenvalues --    0.11226   0.11722   0.12235   0.12820   0.13164
  Beta virt. eigenvalues --    0.14511   0.14653   0.15469   0.15777   0.16807

 Mulliken charges and spin densities:
               1          2
     1  C   -1.012075   0.942177
     2  C    1.293873  -2.030688
     3  N   -0.728281   0.340371
     4  N    0.506920  -0.000966
     5  N    0.041971  -0.105736
     6  C    0.537738  -0.801024
     7  S   -0.159593   0.198685
     8  C   -0.175907   0.041199
     9  C   -0.354915   0.311513
    10  O   -0.297511   0.111537
    11  H   -0.434544   0.582067
    12  H    0.262105  -0.159389
    13  H   -0.437516   0.624306
    14  H   -0.322405   0.505467
    15  H   -0.182568   0.389697
    16  H    0.169974   0.011337
    17  H    0.095284   0.059650
    18  H    0.182338   0.000105
    19  H    0.015111  -0.020308
 Sum of Mulliken charges =  -1.00000   1.00000

 Dipole moment (field-independent basis, Debye):
    X=              1.8877    Y=              2.0317    Z=              0.4251  Tot=              2.8057
 Quadrupole moment (field-independent basis, Debye-Ang):
   XX=           -101.7193   YY=           -111.0071   ZZ=            -82.9116
   XY=              3.1273   XZ=              2.3485   YZ=              2.5878

 Summary of Natural Population Analysis:

                                       Natural Population
                Natural  -----------------------------------------------
    Atom  No    Charge         Core      Valence    Rydberg      Total
 -----------------------------------------------------------------------
      C    1   -0.20792      0.99960     2.19702    0.01131     3.20792
      C    2   -0.08893      0.99958     2.07676    0.01259     3.08893
      N    3   -0.19682      0.99971     2.68315    0.01396     3.69682
      N    4    0.12193      0.99970     2.36279    0.01557     3.37807
      N    5   -0.02989      0.99982     2.51676    0.01331     3.52989
      C    6   -0.25451      0.99957     2.24232    0.01262     3.25451
      S    7    0.10135      4.99964     2.87877    0.02024     7.89865
      C    8   -0.29462      0.99959     2.28561    0.00942     3.29462
      C    9    0.23914      0.99973     1.73754    0.02359     2.76086
      O   10   -0.24650      0.99988     3.23863    0.00800     4.24650
      H   11    0.10281      0.00000     0.39512    0.00208     0.39719
      H   12    0.10329      0.00000     0.39487    0.00184     0.39671
      H   13    0.09859      0.00000     0.39894    0.00247     0.40141
      H   14    0.09197      0.00000     0.40630    0.00173     0.40803
      H   15    0.10509      0.00000     0.39363    0.00128     0.39491
      H   16    0.11039      0.00000     0.38774    0.00187     0.38961
      H   17    0.10272      0.00000     0.39579    0.00148     0.39728
      H   18    0.10525      0.00000     0.39390    0.00084     0.39475
      H   19    0.03667      0.00000     0.46076    0.00257     0.46333
 =======================================================================
   * Total *   -0.00000     13.99684    27.84639    0.15677    42.00000

 Normal termination of Gaussian 16 at Tue Dec  8 14:17:22 2020.
