 Gaussian 16, Revision A.03,

 -----------------------------------------------------------
 # opt freq B3LYP/6-31G(d) empiricaldispersion=gd3bj scf=xqc
 -----------------------------------------------------------

 -------------------------------
 CID_112578654_JID_8809_neutraal
 -------------------------------
 Symbolic Z-matrix:
 Charge =  0 Multiplicity = 1

 SCF Done:  E(RB3LYP) =  -842.641820081     A.U. after   15 cycles
 SCF Done:  E(RB3LYP) =  -842.644312716     A.U. after   12 cycles
 SCF Done:  E(RB3LYP) =  -842.646928871     A.U. after   13 cycles
 SCF Done:  E(RB3LYP) =  -842.650063999     A.U. after   12 cycles
 SCF Done:  E(RB3LYP) =  -842.649589156     A.U. after   13 cycles
 SCF Done:  E(RB3LYP) =  -842.652362630     A.U. after   12 cycles
 SCF Done:  E(RB3LYP) =  -842.653955106     A.U. after   13 cycles
 SCF Done:  E(RB3LYP) =  -842.655232275     A.U. after   14 cycles
 SCF Done:  E(RB3LYP) =  -842.656145937     A.U. after   13 cycles
 SCF Done:  E(RB3LYP) =  -842.656894961     A.U. after   11 cycles
 SCF Done:  E(RB3LYP) =  -842.661868080     A.U. after    9 cycles
 SCF Done:  E(RB3LYP) =  -842.661870631     A.U. after   10 cycles
 SCF Done:  E(RB3LYP) =  -842.661871119     A.U. after    8 cycles
 SCF Done:  E(RB3LYP) =  -842.661871376     A.U. after    8 cycles
 SCF Done:  E(RB3LYP) =  -842.661871508     A.U. after    7 cycles
 Optimization completed.
    -- Stationary point found.
 Normal termination of Gaussian 16 at Fri Dec 11 22:43:08 2020.

 --------------------------------------------------------------------
 #N Geom=AllCheck Guess=TCheck SCRF=Check GenChk RB3LYP/6-31G(d) Freq
 --------------------------------------------------------------------

 Structure from the checkpoint file:  "JID_8809.chk"
 -------------------------------
 CID_112578654_JID_8809_neutraal
 -------------------------------
 Charge =  0 Multiplicity = 1

 SCF Done:  E(RB3LYP) =  -842.661871509     A.U. after    1 cycles

  Exact polarizability: 193.249  -9.763 176.205  24.104  13.855 111.506
 Approx polarizability: 258.911  -9.966 282.031  47.390  38.546 184.703

                      1                      2                      3
                      A                      A                      A
 Frequencies --     22.5603                37.9408                45.7628
 Red. masses --      3.7048                 4.3975                 5.2671
 Frc consts  --      0.0011                 0.0037                 0.0065
 IR Inten    --      0.0270                 0.6930                 1.6782

                      4                      5                      6
                      A                      A                      A
 Frequencies --     60.0111                85.9655                89.8382
 Red. masses --      3.9364                 3.7229                 3.6800
 Frc consts  --      0.0084                 0.0162                 0.0175
 IR Inten    --      0.0667                 0.3895                 1.5461

                      7                      8                      9
                      A                      A                      A
 Frequencies --    104.5590               136.7479               140.9091
 Red. masses --      2.3667                 3.0913                 1.4536
 Frc consts  --      0.0152                 0.0341                 0.0170
 IR Inten    --      5.9993                 0.2521                 1.4993

                     10                     11                     12
                      A                      A                      A
 Frequencies --    158.9558               172.2831               198.3064
 Red. masses --      2.1322                 3.5164                 2.4756
 Frc consts  --      0.0317                 0.0615                 0.0574
 IR Inten    --      1.5602                 3.3114                 2.4381

                     13                     14                     15
                      A                      A                      A
 Frequencies --    225.7601               237.5041               255.7205
 Red. masses --      3.3763                 1.3606                 1.3766
 Frc consts  --      0.1014                 0.0452                 0.0530
 IR Inten    --     18.7803                 7.3934                94.9773

                     16                     17                     18
                      A                      A                      A
 Frequencies --    289.3488               304.9175               317.9951
 Red. masses --      1.9530                 2.4426                 4.3807
 Frc consts  --      0.0963                 0.1338                 0.2610
 IR Inten    --      0.7081                11.6849                23.3321

                     19                     20                     21
                      A                      A                      A
 Frequencies --    336.1277               348.8488               367.7786
 Red. masses --      2.8036                 5.6914                 3.3428
 Frc consts  --      0.1866                 0.4081                 0.2664
 IR Inten    --      3.3290                 0.9207                 8.5879

                     22                     23                     24
                      A                      A                      A
 Frequencies --    384.9697               410.3383               461.4381
 Red. masses --      2.8516                 4.8460                 2.6971
 Frc consts  --      0.2490                 0.4808                 0.3384
 IR Inten    --      3.2588                 6.1379                 1.8564

                     25                     26                     27
                      A                      A                      A
 Frequencies --    498.0934               532.3122               558.3861
 Red. masses --      4.5276                 3.0875                 1.9049
 Frc consts  --      0.6618                 0.5155                 0.3499
 IR Inten    --      2.4097                41.4287               111.1910

                     28                     29                     30
                      A                      A                      A
 Frequencies --    570.2773               601.9839               608.7036
 Red. masses --      3.9648                 2.9673                 2.3237
 Frc consts  --      0.7597                 0.6335                 0.5073
 IR Inten    --      2.0851                 4.8892                89.2965

                     31                     32                     33
                      A                      A                      A
 Frequencies --    638.7066               723.0691               746.6087
 Red. masses --      4.4641                 1.3909                 6.7053
 Frc consts  --      1.0730                 0.4284                 2.2022
 IR Inten    --     27.2395                 9.0901                17.9274

                     34                     35                     36
                      A                      A                      A
 Frequencies --    759.7727               782.7148               788.6932
 Red. masses --      2.0331                 3.3755                 1.9569
 Frc consts  --      0.6915                 1.2184                 0.7172
 IR Inten    --     21.6909                47.8534                44.6318

                     37                     38                     39
                      A                      A                      A
 Frequencies --    814.7757               828.1463               858.5755
 Red. masses --      2.7183                 3.6768                 2.0598
 Frc consts  --      1.0632                 1.4857                 0.8946
 IR Inten    --      1.8040                 3.1196                45.2432

                     40                     41                     42
                      A                      A                      A
 Frequencies --    898.4971               902.3206               940.0128
 Red. masses --      2.1203                 1.3967                 3.6926
 Frc consts  --      1.0085                 0.6700                 1.9224
 IR Inten    --      8.8787                 1.2445                13.2818

                     43                     44                     45
                      A                      A                      A
 Frequencies --    959.5222               962.8089              1004.2057
 Red. masses --      1.2720                 2.1525                 2.4156
 Frc consts  --      0.6900                 1.1756                 1.4352
 IR Inten    --      0.9355                 8.2098                14.7051

                     46                     47                     48
                      A                      A                      A
 Frequencies --   1029.9235              1047.8364              1081.2614
 Red. masses --      4.3964                 1.8589                 2.1909
 Frc consts  --      2.7476                 1.2025                 1.5092
 IR Inten    --     19.2762                14.2803                12.7262

                     49                     50                     51
                      A                      A                      A
 Frequencies --   1098.3477              1122.0294              1134.1718
 Red. masses --      1.8364                 2.7133                 2.2437
 Frc consts  --      1.3053                 2.0126                 1.7005
 IR Inten    --      3.5067                 9.1401               127.6480

                     52                     53                     54
                      A                      A                      A
 Frequencies --   1146.2286              1174.1893              1179.5808
 Red. masses --      2.0644                 4.4564                 1.6374
 Frc consts  --      1.5980                 3.6200                 1.3424
 IR Inten    --     14.5516               157.3743                61.9533

                     55                     56                     57
                      A                      A                      A
 Frequencies --   1186.2568              1194.5806              1205.5057
 Red. masses --      1.2734                 1.2790                 1.2699
 Frc consts  --      1.0558                 1.0753                 1.0873
 IR Inten    --      1.3065                 5.9086                18.3774

                     58                     59                     60
                      A                      A                      A
 Frequencies --   1218.6684              1222.8446              1250.1153
 Red. masses --      1.4669                 1.6095                 2.2458
 Frc consts  --      1.2836                 1.4180                 2.0679
 IR Inten    --      2.0325                75.5711                38.0531

                     61                     62                     63
                      A                      A                      A
 Frequencies --   1260.6816              1268.2925              1299.8763
 Red. masses --      1.3934                 1.6836                 1.4776
 Frc consts  --      1.3048                 1.5956                 1.4710
 IR Inten    --     68.8959                57.7975               103.8538

                     64                     65                     66
                      A                      A                      A
 Frequencies --   1329.4045              1336.6355              1356.5695
 Red. masses --      2.2532                 2.0849                 1.3019
 Frc consts  --      2.3462                 2.1946                 1.4116
 IR Inten    --    187.3089                65.6815                 9.0423

                     67                     68                     69
                      A                      A                      A
 Frequencies --   1369.4000              1393.8636              1406.6636
 Red. masses --      3.9987                 1.4138                 1.3657
 Frc consts  --      4.4181                 1.6183                 1.5921
 IR Inten    --     16.1168                 3.8424                25.8890

                     70                     71                     72
                      A                      A                      A
 Frequencies --   1430.9427              1445.7680              1486.5191
 Red. masses --      1.3609                 1.3697                 1.4336
 Frc consts  --      1.6418                 1.6869                 1.8665
 IR Inten    --      3.0321                15.1254                 3.1938

                     73                     74                     75
                      A                      A                      A
 Frequencies --   1490.6910              1501.8490              1505.4254
 Red. masses --      1.5584                 1.2321                 1.0946
 Frc consts  --      2.0403                 1.6373                 1.4616
 IR Inten    --     11.2995                29.0777                 1.1190

                     76                     77                     78
                      A                      A                      A
 Frequencies --   1509.2665              1509.9980              1514.9266
 Red. masses --      1.0683                 1.7162                 1.0611
 Frc consts  --      1.4337                 2.3055                 1.4347
 IR Inten    --      6.3124                70.4230                 5.8492

                     79                     80                     81
                      A                      A                      A
 Frequencies --   1517.2707              1524.5296              1525.7459
 Red. masses --      1.1060                 1.1329                 1.2605
 Frc consts  --      1.5002                 1.5513                 1.7288
 IR Inten    --      6.0693                26.9512                16.2012

                     82                     83                     84
                      A                      A                      A
 Frequencies --   1534.9166              1552.5061              1562.6515
 Red. masses --      1.0700                 1.5519                 1.1273
 Frc consts  --      1.4853                 2.2039                 1.6218
 IR Inten    --     19.0105                23.3967                 4.8533

                     85                     86                     87
                      A                      A                      A
 Frequencies --   1635.2159              1652.3386              1666.9339
 Red. masses --      2.0937                 5.3015                 1.6425
 Frc consts  --      3.2985                 8.5280                 2.6890
 IR Inten    --     12.5946                58.1796                60.1475

                     88                     89                     90
                      A                      A                      A
 Frequencies --   1792.7362              2967.8539              2988.1996
 Red. masses --     11.3770                 1.0523                 1.0456
 Frc consts  --     21.5433                 5.4608                 5.5010
 IR Inten    --    242.3013                48.5818                70.1632

                     91                     92                     93
                      A                      A                      A
 Frequencies --   2990.8744              3028.5949              3051.4378
 Red. masses --      1.0987                 1.1046                 1.0618
 Frc consts  --      5.7907                 5.9693                 5.8251
 IR Inten    --     82.3009                66.0986                 8.7044

                     94                     95                     96
                      A                      A                      A
 Frequencies --   3062.9276              3071.4833              3077.7340
 Red. masses --      1.0635                 1.0683                 1.0293
 Frc consts  --      5.8783                 5.9382                 5.7446
 IR Inten    --     56.5503                29.7999                32.6575

                     97                     98                     99
                      A                      A                      A
 Frequencies --   3090.4145              3111.9461              3126.7390
 Red. masses --      1.1025                 1.1010                 1.0940
 Frc consts  --      6.2037                 6.2819                 6.3018
 IR Inten    --     15.6068                37.3217                40.8177

                    100                    101                    102
                      A                      A                      A
 Frequencies --   3137.0888              3154.9454              3180.5445
 Red. masses --      1.0962                 1.1069                 1.0879
 Frc consts  --      6.3564                 6.4914                 6.4841
 IR Inten    --     33.6474                21.9925                14.0859

                    103                    104                    105
                      A                      A                      A
 Frequencies --   3181.8641              3204.6946              3235.8956
 Red. masses --      1.1078                 1.0923                 1.0928
 Frc consts  --      6.6079                 6.6092                 6.7419
 IR Inten    --     14.0836                20.6208                 4.6665

                    106                    107                    108
                      A                      A                      A
 Frequencies --   3584.1244              3589.2589              3694.5056
 Red. masses --      1.0469                 1.0735                 1.0993
 Frc consts  --      7.9234                 8.1484                 8.8404
 IR Inten    --     16.6932                57.2642                21.9400

 - Thermochemistry -
 -------------------
 Temperature   298.150 Kelvin.  Pressure   1.00000 Atm.
 Atom     1 has atomic number  6 and mass  12.00000

 Molecular mass:   252.14739 amu.
 Principal axes and moments of inertia in atomic units:
                           1         2         3
     Eigenvalues --  3098.123096066.020377989.82654
           X            0.99989  -0.01175   0.00854
           Y            0.01181   0.99991  -0.00649
           Z           -0.00847   0.00659   0.99994
 This molecule is an asymmetric top.
 Rotational symmetry number  1.
 Warning -- assumption of classical behavior for rotation
           may cause significant error
 Rotational temperatures (Kelvin)      0.02796     0.01428     0.01084
 Rotational constants (GHZ):           0.58253     0.29752     0.22588
 Zero-point vibrational energy     857585.3 (Joules/Mol)
                                  204.96780 (Kcal/Mol)
 Warning -- explicit consideration of  30 degrees of freedom as
           vibrations may cause significant error
 Vibrational temperatures:     32.46    54.59    65.84    86.34   123.69
          (Kelvin)            129.26   150.44   196.75   202.74   228.70
                              247.88   285.32   324.82   341.72   367.92
                              416.31   438.71   457.52   483.61   501.92
                              529.15   553.89   590.39   663.91   716.65
                              765.88   803.39   820.50   866.12   875.79
                              918.96  1040.34  1074.20  1093.14  1126.15
                             1134.75  1172.28  1191.52  1235.30  1292.74
                             1298.24  1352.47  1380.54  1385.27  1444.83
                             1481.83  1507.60  1555.69  1580.28  1614.35
                             1631.82  1649.17  1689.40  1697.15  1706.76
                             1718.74  1734.45  1753.39  1759.40  1798.64
                             1813.84  1824.79  1870.23  1912.72  1923.12
                             1951.80  1970.26  2005.46  2023.88  2058.81
                             2080.14  2138.77  2144.77  2160.83  2165.97
                             2171.50  2172.55  2179.64  2183.01  2193.46
                             2195.21  2208.40  2233.71  2248.31  2352.71
                             2377.35  2398.35  2579.35  4270.08  4299.35
                             4303.20  4357.47  4390.34  4406.87  4419.18
                             4428.17  4446.42  4477.40  4498.68  4513.57
                             4539.26  4576.09  4577.99  4610.84  4655.73
                             5156.76  5164.14  5315.57

 Zero-point correction=                           0.326637 (Hartree/Particle)
 Thermal correction to Energy=                    0.345621
 Thermal correction to Enthalpy=                  0.346565
 Thermal correction to Gibbs Free Energy=         0.278328
 Sum of electronic and zero-point Energies=           -842.335235
 Sum of electronic and thermal Energies=              -842.316251
 Sum of electronic and thermal Enthalpies=            -842.315307
 Sum of electronic and thermal Free Energies=         -842.383543

                     E (Thermal)             CV                S
                      KCal/Mol        Cal/Mol-Kelvin    Cal/Mol-Kelvin
 Total                  216.880             70.304            143.615
 Electronic               0.000              0.000              0.000
 Translational            0.889              2.981             42.475
 Rotational               0.889              2.981             33.373
 Vibrational            215.103             64.342             67.767
 Vibration     1          0.593              1.985              6.395
 Vibration     2          0.594              1.982              5.364
 Vibration     3          0.595              1.979              4.993
 Vibration     4          0.597              1.973              4.457
 Vibration     5          0.601              1.959              3.750
 Vibration     6          0.602              1.956              3.664
 Vibration     7          0.605              1.946              3.368
 Vibration     8          0.614              1.917              2.849
 Vibration     9          0.615              1.912              2.791
 Vibration    10          0.621              1.893              2.562
 Vibration    11          0.626              1.877              2.410
 Vibration    12          0.637              1.842              2.149
 Vibration    13          0.650              1.802              1.912
 Vibration    14          0.656              1.783              1.821
 Vibration    15          0.666              1.753              1.691
 Vibration    16          0.686              1.694              1.478
 Vibration    17          0.696              1.664              1.390
 Vibration    18          0.704              1.639              1.320
 Vibration    19          0.717              1.603              1.230
 Vibration    20          0.726              1.578              1.171
 Vibration    21          0.740              1.538              1.089
 Vibration    22          0.754              1.502              1.020
 Vibration    23          0.775              1.448              0.925
 Vibration    24          0.819              1.336              0.762
 Vibration    25          0.854              1.254              0.663
 Vibration    26          0.887              1.179              0.582
 Vibration    27          0.914              1.121              0.527
 Vibration    28          0.926              1.096              0.504
 Vibration    29          0.960              1.028              0.446
 Vibration    30          0.968              1.013              0.435

 Optimization completed.
    -- Stationary point found.
 Normal termination of Gaussian 16 at Fri Dec 11 23:00:16 2020.

 ----------------------------------------------------------------------
 # B3LYP/6-311++G(d,p) empiricaldispersion=gd3bj scf=xqc pop=npa geom=c
 heck
 ----------------------------------------------------------------------

 ---------------------------------------
 CID_112578654_JID_8809_Energie_neutraal
 ---------------------------------------
 Structure from the checkpoint file:  "JID_8809.chk"
 Charge =  0 Multiplicity = 1

 SCF Done:  E(RB3LYP) =  -842.909686059     A.U. after   15 cycles
 Normal termination of Gaussian 16 at Fri Dec 11 23:06:52 2020.

 ----------------------------------------------------------------------
 # B3LYP/6-311++G(d,p) empiricaldispersion=gd3bj scf=xqc pop=npa geom=c
 heck
 ----------------------------------------------------------------------

 -------------------------------------
 CID_112578654_JID_8809_Energie_kation
 -------------------------------------
 Structure from the checkpoint file:  "JID_8809.chk"
 Charge =  1 Multiplicity = 2

 SCF Done:  E(UB3LYP) =  -842.642108558     A.U. after   22 cycles
 Normal termination of Gaussian 16 at Fri Dec 11 23:19:50 2020.
 Gaussian 16:  ES64L-G16RevA.03 25-Dec-2016

 ----------------------------------------------------------------------
 # B3LYP/6-311++G(d,p) empiricaldispersion=gd3bj scf=xqc pop=npa geom=c
 heck
 ----------------------------------------------------------------------

 ------------------------------------
 CID_112578654_JID_8809_Energie_anion
 ------------------------------------
 Structure from the checkpoint file:  "JID_8809.chk"
 Charge = -1 Multiplicity = 2

                         Standard orientation:
 ---------------------------------------------------------------------
 Center     Atomic      Atomic             Coordinates (Angstroms)
 Number     Number       Type             X           Y           Z
 ---------------------------------------------------------------------
      1          6           0       -4.950667   -0.871126   -0.295047
      2          8           0       -3.825165   -0.963737    0.548657
      3          6           0       -2.951352    0.141629    0.411866
      4          6           0       -1.764661   -0.044347    1.346328
      5          6           0       -1.022686   -1.378096    1.168458
      6          6           0       -0.693429   -1.781242   -0.275582
      7          7           0        0.166201   -0.863146   -1.051644
      8          6           0        1.397101   -0.485657   -0.465626
      9          6           0        1.685809    0.806384    0.036019
     10          6           0        2.903616    1.057688    0.693547
     11          6           0        3.840766    0.048067    0.846082
     12          6           0        3.601154   -1.208486    0.291870
     13          6           0        2.408956   -1.480193   -0.385430
     14          7           0        2.241746   -2.692528   -1.052892
     15          6           0        0.781988    1.982197   -0.054556
     16          8           0        0.882402    2.987253    0.620911
     17          8           0       -0.188097    1.868815   -1.011030
     18          6           0       -1.077383    2.991376   -1.109918
     19          1           0       -5.557387   -1.764814   -0.128239
     20          1           0       -4.660193   -0.828511   -1.357770
     21          1           0       -5.557006    0.020916   -0.068636
     22          1           0       -2.615185    0.224731   -0.636429
     23          1           0       -3.480698    1.080339    0.649926
     24          1           0       -1.084730    0.799853    1.199666
     25          1           0       -2.118677    0.023237    2.381820
     26          1           0       -0.095521   -1.346690    1.753507
     27          1           0       -1.637698   -2.182074    1.589455
     28          1           0       -0.219765   -2.768651   -0.242938
     29          1           0       -1.618445   -1.900164   -0.848097
     30          1           0       -0.353796   -0.041952   -1.333814
     31          1           0        3.078908    2.054883    1.079097
     32          1           0        4.775296    0.241933    1.363725
     33          1           0        4.360194   -1.985311    0.343211
     34          1           0        2.574455   -3.524575   -0.586408
     35          1           0        1.350344   -2.802842   -1.513292
     36          1           0       -1.612561    3.140400   -0.168386
     37          1           0       -0.519467    3.899408   -1.348718
     38          1           0       -1.772088    2.741785   -1.912290
 ---------------------------------------------------------------------

 SCF Done:  E(UB3LYP) =  -842.908251522     A.U. after   33 cycles
 SCF Done:  E(UB3LYP) =  -842.908251522     a.u. after    1 cycles

 The electronic state is 2-A.
 Alpha  occ. eigenvalues --  -19.04218 -19.03013 -18.96454 -14.20190 -14.18735
 Alpha  occ. eigenvalues --  -10.15056 -10.11688 -10.11611 -10.11602 -10.08680
 Alpha  occ. eigenvalues --  -10.08375 -10.07494 -10.06278 -10.05795 -10.04510
 Alpha  occ. eigenvalues --  -10.04340 -10.03686 -10.03470  -0.97769  -0.94376
 Alpha  occ. eigenvalues --   -0.88363  -0.82005  -0.78188  -0.71238  -0.68822
 Alpha  occ. eigenvalues --   -0.64066  -0.62505  -0.60153  -0.59706  -0.57108
 Alpha  occ. eigenvalues --   -0.52940  -0.50960  -0.47806  -0.46292  -0.45001
 Alpha  occ. eigenvalues --   -0.41633  -0.40224  -0.40003  -0.39210  -0.38208
 Alpha  occ. eigenvalues --   -0.36961  -0.36544  -0.35552  -0.35242  -0.34277
 Alpha  occ. eigenvalues --   -0.33470  -0.32032  -0.31519  -0.30442  -0.29630
 Alpha  occ. eigenvalues --   -0.29573  -0.28434  -0.27651  -0.25826  -0.25046
 Alpha  occ. eigenvalues --   -0.24866  -0.24296  -0.23825  -0.22842  -0.22765
 Alpha  occ. eigenvalues --   -0.21671  -0.19283  -0.18610  -0.16768  -0.15746
 Alpha  occ. eigenvalues --   -0.14861  -0.11175  -0.08112   0.04296
 Alpha virt. eigenvalues --    0.05738   0.07436   0.07877   0.08591   0.08955
 Alpha virt. eigenvalues --    0.09381   0.09992   0.10883   0.11190   0.11412
 Alpha virt. eigenvalues --    0.12041   0.12370   0.12516   0.12967   0.13613

  Beta  occ. eigenvalues --  -19.04142 -19.03007 -18.96199 -14.20200 -14.18735
  Beta  occ. eigenvalues --  -10.14824 -10.11685 -10.11599 -10.11561 -10.08657
  Beta  occ. eigenvalues --  -10.08416 -10.07321 -10.06273 -10.05794 -10.04410
  Beta  occ. eigenvalues --  -10.04374 -10.03456 -10.03370  -0.97509  -0.94362
  Beta  occ. eigenvalues --   -0.87970  -0.81908  -0.78156  -0.71021  -0.68787
  Beta  occ. eigenvalues --   -0.63781  -0.62387  -0.59963  -0.59560  -0.57044
  Beta  occ. eigenvalues --   -0.52875  -0.50536  -0.47737  -0.46212  -0.44834
  Beta  occ. eigenvalues --   -0.41487  -0.40156  -0.39942  -0.39158  -0.38144
  Beta  occ. eigenvalues --   -0.36730  -0.36363  -0.35481  -0.35072  -0.34130
  Beta  occ. eigenvalues --   -0.33389  -0.31929  -0.31416  -0.30342  -0.29566
  Beta  occ. eigenvalues --   -0.29452  -0.27634  -0.27578  -0.25627  -0.24953
  Beta  occ. eigenvalues --   -0.24565  -0.24201  -0.23777  -0.22765  -0.22648
  Beta  occ. eigenvalues --   -0.21599  -0.18794  -0.17982  -0.16729  -0.15276
  Beta  occ. eigenvalues --   -0.14617  -0.10275  -0.07587
  Beta virt. eigenvalues --    0.06496   0.07308   0.08039   0.08655   0.08854
  Beta virt. eigenvalues --    0.09095   0.09564   0.10212   0.10884   0.11246
  Beta virt. eigenvalues --    0.11487   0.12135   0.12438   0.12601   0.13010

 Mulliken charges and spin densities:
               1          2
     1  C    0.876407  -1.122967
     2  O   -0.125224   0.032636
     3  C   -0.942679   0.347707
     4  C   -0.058789  -0.080064
     5  C   -0.657717   0.065328
     6  C    0.102039  -0.130690
     7  N   -0.059403   0.036340
     8  C   -0.088083   0.012526
     9  C    1.007988   0.076681
    10  C   -0.613300   0.109927
    11  C   -0.601121  -0.041698
    12  C   -0.088837   0.182556
    13  C   -0.177089   0.003334
    14  N   -0.363193  -0.012330
    15  C   -0.701674   0.132579
    16  O   -0.272194   0.086292
    17  O   -0.083062   0.016580
    18  C   -0.004161  -0.184404
    19  H   -0.168660   0.305468
    20  H   -0.444939   0.572219
    21  H   -0.316303   0.437759
    22  H    0.470343  -0.316371
    23  H    0.094223   0.031080
    24  H    0.192976   0.002024
    25  H    0.176221   0.008537
    26  H    0.132731   0.001514
    27  H    0.164827  -0.002232
    28  H    0.097283   0.000000
    29  H    0.121279   0.069942
    30  H    0.254373   0.091247
    31  H    0.174429  -0.005427
    32  H    0.118084   0.002101
    33  H    0.101754  -0.002934
    34  H    0.203408   0.020237
    35  H    0.246106   0.006431
    36  H    0.141182   0.031268
    37  H    0.148389   0.026054
    38  H   -0.057615   0.190754
 Sum of Mulliken charges =  -1.00000   1.00000

 Dipole moment (field-independent basis, Debye):
    X=              1.5106    Y=             -1.9314    Z=              1.0785  Tot=              2.6787
 Quadrupole moment (field-independent basis, Debye-Ang):
   XX=           -184.5630   YY=           -134.9267   ZZ=           -132.9273
   XY=            -10.1201   XZ=             -4.4319   YZ=             -5.8414

 Summary of Natural Population Analysis:

                                       Natural Population
                Natural  -----------------------------------------------
    Atom  No    Charge         Core      Valence    Rydberg      Total
 -----------------------------------------------------------------------
      C    1   -0.09653      0.99962     2.08753    0.00938     3.09653
      O    2   -0.30232      0.99988     3.29245    0.00998     4.30232
      C    3   -0.01051      0.99959     1.99798    0.01294     3.01051
      C    4   -0.20314      0.99961     2.19423    0.00930     3.20314
      C    5   -0.19930      0.99962     2.19199    0.00769     3.19930
      C    6   -0.08920      0.99961     2.07645    0.01314     3.08920
      N    7   -0.34727      0.99970     2.83571    0.01186     3.84727
      C    8    0.10577      0.99943     1.88248    0.01232     2.89423
      C    9   -0.07590      0.99942     2.06548    0.01099     3.07590
      C   10   -0.07278      0.99955     2.06501    0.00822     3.07278
      C   11   -0.12159      0.99957     2.11315    0.00887     3.12159
      C   12   -0.07280      0.99953     2.06511    0.00815     3.07280
      C   13    0.05585      0.99946     1.93259    0.01210     2.94415
      N   14   -0.41132      0.99972     2.90146    0.01015     3.91132
      C   15    0.42606      0.99963     1.55054    0.02377     2.57394
      O   16   -0.29729      0.99987     3.29249    0.00493     4.29729
      O   17   -0.29175      0.99986     3.28335    0.00854     4.29175
      C   18   -0.10651      0.99960     2.09696    0.00995     3.10651
      H   19    0.08891      0.00000     0.40990    0.00118     0.41109
      H   20    0.07961      0.00000     0.41835    0.00204     0.42039
      H   21    0.07717      0.00000     0.42098    0.00185     0.42283
      H   22    0.07804      0.00000     0.41985    0.00211     0.42196
      H   23    0.07871      0.00000     0.41984    0.00145     0.42129
      H   24    0.10868      0.00000     0.39011    0.00121     0.39132
      H   25    0.09604      0.00000     0.40295    0.00101     0.40396
      H   26    0.10305      0.00000     0.39606    0.00089     0.39695
      H   27    0.09883      0.00000     0.40026    0.00092     0.40117
      H   28    0.08566      0.00000     0.41301    0.00133     0.41434
      H   29    0.09551      0.00000     0.40334    0.00115     0.40449
      H   30    0.19634      0.00000     0.30050    0.00317     0.30366
      H   31    0.10530      0.00000     0.39368    0.00102     0.39470
      H   32    0.09207      0.00000     0.40695    0.00097     0.40793
      H   33    0.08780      0.00000     0.41081    0.00139     0.41220
      H   34    0.18094      0.00000     0.31778    0.00128     0.31906
      H   35    0.19132      0.00000     0.30721    0.00147     0.30868
      H   36    0.08846      0.00000     0.41050    0.00104     0.41154
      H   37    0.09065      0.00000     0.40847    0.00087     0.40935
      H   38    0.08743      0.00000     0.41170    0.00088     0.41257
 =======================================================================
   * Total *    0.00000     17.99329    49.78721    0.21949    68.00000

 Normal termination of Gaussian 16 at Fri Dec 11 23:39:17 2020.
