 Gaussian 16, Revision A.03,

 -----------------------------------------------------------
 # opt freq B3LYP/6-31G(d) empiricaldispersion=gd3bj scf=xqc
 -----------------------------------------------------------

 -------------------------------
 CID_138994325_JID_9004_neutraal
 -------------------------------
 Symbolic Z-matrix:
 Charge =  0 Multiplicity = 1

 SCF Done:  E(RB3LYP) =  -846.070808934     A.U. after   15 cycles
 SCF Done:  E(RB3LYP) =  -846.073768149     A.U. after   12 cycles
 SCF Done:  E(RB3LYP) =  -846.074385186     A.U. after   13 cycles
 SCF Done:  E(RB3LYP) =  -846.075183061     A.U. after   13 cycles
 SCF Done:  E(RB3LYP) =  -846.077538887     A.U. after   12 cycles
 SCF Done:  E(RB3LYP) =  -846.077229691     A.U. after   12 cycles
 SCF Done:  E(RB3LYP) =  -846.078707426     A.U. after   12 cycles
 SCF Done:  E(RB3LYP) =  -846.078679198     A.U. after   12 cycles
 SCF Done:  E(RB3LYP) =  -846.079015413     A.U. after   12 cycles
 SCF Done:  E(RB3LYP) =  -846.079134367     A.U. after   11 cycles
 SCF Done:  E(RB3LYP) =  -846.079275085     A.U. after   10 cycles
 SCF Done:  E(RB3LYP) =  -846.079278557     A.U. after    8 cycles
 SCF Done:  E(RB3LYP) =  -846.079280361     A.U. after    8 cycles
 SCF Done:  E(RB3LYP) =  -846.079280769     A.U. after    7 cycles
 SCF Done:  E(RB3LYP) =  -846.079280985     A.U. after    7 cycles
 Optimization completed.
    -- Stationary point found.
 Normal termination of Gaussian 16 at Mon Dec 14 17:01:21 2020.

 --------------------------------------------------------------------
 #N Geom=AllCheck Guess=TCheck SCRF=Check GenChk RB3LYP/6-31G(d) Freq
 --------------------------------------------------------------------

 Structure from the checkpoint file:  "JID_9004.chk"
 -------------------------------
 CID_138994325_JID_9004_neutraal
 -------------------------------
 Charge =  0 Multiplicity = 1

 SCF Done:  E(RB3LYP) =  -846.079280985     A.U. after    1 cycles

  Exact polarizability: 200.669   1.128 174.298  16.772  -0.623 132.869
 Approx polarizability: 258.278  -1.548 266.786  33.222   2.819 210.929

                      1                      2                      3
                      A                      A                      A
 Frequencies --     36.7661                43.5629                56.8987
 Red. masses --      3.9453                 4.7656                 3.4335
 Frc consts  --      0.0031                 0.0053                 0.0065
 IR Inten    --      1.2323                 0.8539                 0.1096

                      4                      5                      6
                      A                      A                      A
 Frequencies --     71.6680                83.7586               107.6870
 Red. masses --      5.0036                 3.8358                 3.5364
 Frc consts  --      0.0151                 0.0159                 0.0242
 IR Inten    --      3.1628                 1.6993                 1.5173

                      7                      8                      9
                      A                      A                      A
 Frequencies --    130.8925               137.0059               150.3648
 Red. masses --      2.3814                 2.4703                 1.9298
 Frc consts  --      0.0240                 0.0273                 0.0257
 IR Inten    --      0.3589                 4.3423                 0.2175

                     10                     11                     12
                      A                      A                      A
 Frequencies --    182.4843               188.7588               199.3806
 Red. masses --      3.5778                 2.7512                 4.0992
 Frc consts  --      0.0702                 0.0578                 0.0960
 IR Inten    --      8.5411                 3.3219                 7.1151

                     13                     14                     15
                      A                      A                      A
 Frequencies --    228.5586               248.7920               274.7083
 Red. masses --      2.9760                 2.4646                 3.5160
 Frc consts  --      0.0916                 0.0899                 0.1563
 IR Inten    --      1.1338                 3.2297                 3.4420

                     16                     17                     18
                      A                      A                      A
 Frequencies --    296.1286               315.4703               329.9055
 Red. masses --      2.3000                 1.3518                 2.0448
 Frc consts  --      0.1188                 0.0793                 0.1311
 IR Inten    --      3.1418                92.2611                29.5055

                     19                     20                     21
                      A                      A                      A
 Frequencies --    337.9496               355.9093               401.2478
 Red. masses --      3.0579                 2.0767                 2.7733
 Frc consts  --      0.2058                 0.1550                 0.2631
 IR Inten    --      2.0561                 2.2442                 5.3515

                     22                     23                     24
                      A                      A                      A
 Frequencies --    425.7185               453.6485               471.1215
 Red. masses --      3.2390                 3.9939                 3.1052
 Frc consts  --      0.3459                 0.4843                 0.4061
 IR Inten    --      1.9330                 2.2681                 8.0398

                     25                     26                     27
                      A                      A                      A
 Frequencies --    478.7180               493.5781               548.4099
 Red. masses --      1.5589                 1.7325                 4.1004
 Frc consts  --      0.2105                 0.2487                 0.7266
 IR Inten    --     83.2715                 6.2998                 4.7805

                     28                     29                     30
                      A                      A                      A
 Frequencies --    590.9844               636.2403               647.0043
 Red. masses --      2.9168                 2.4320                 2.6429
 Frc consts  --      0.6002                 0.5800                 0.6518
 IR Inten    --      2.1848                 2.0279                 5.5729

                     31                     32                     33
                      A                      A                      A
 Frequencies --    665.0309               692.5851               705.1435
 Red. masses --      3.0487                 2.1931                 1.7783
 Frc consts  --      0.7944                 0.6198                 0.5210
 IR Inten    --     28.4021                 7.8239                 6.2580

                     34                     35                     36
                      A                      A                      A
 Frequencies --    724.6011               740.6658               772.4145
 Red. masses --      3.6261                 3.0013                 1.7171
 Frc consts  --      1.1217                 0.9701                 0.6036
 IR Inten    --     12.0109                30.7712                16.0466

                     37                     38                     39
                      A                      A                      A
 Frequencies --    791.1553               814.5814               826.3577
 Red. masses --      1.4992                 2.5460                 3.2185
 Frc consts  --      0.5529                 0.9954                 1.2949
 IR Inten    --      0.3203                13.3663                 7.1246

                     40                     41                     42
                      A                      A                      A
 Frequencies --    851.2272               867.5616               875.0438
 Red. masses --      1.8237                 2.0959                 1.8369
 Frc consts  --      0.7786                 0.9294                 0.8287
 IR Inten    --      5.6971                 3.3395                52.8968

                     43                     44                     45
                      A                      A                      A
 Frequencies --    890.6299               917.6897               932.8368
 Red. masses --      1.9656                 3.9455                 1.9043
 Frc consts  --      0.9186                 1.9577                 0.9763
 IR Inten    --     29.8578                 4.8042                29.2628

                     46                     47                     48
                      A                      A                      A
 Frequencies --    949.0993               960.0639              1021.9611
 Red. masses --      1.3913                 2.2768                 1.5026
 Frc consts  --      0.7384                 1.2364                 0.9246
 IR Inten    --      6.1267                 1.5164                 1.7373

                     49                     50                     51
                      A                      A                      A
 Frequencies --   1035.6561              1041.1231              1054.0164
 Red. masses --      2.5973                 1.8716                 1.8589
 Frc consts  --      1.6414                 1.1953                 1.2168
 IR Inten    --     27.7942                 2.6368                 6.6647

                     52                     53                     54
                      A                      A                      A
 Frequencies --   1062.2291              1081.8922              1086.1960
 Red. masses --      1.7522                 1.4475                 2.2718
 Frc consts  --      1.1648                 0.9982                 1.5792
 IR Inten    --      3.2839                 1.3901                13.7560

                     55                     56                     57
                      A                      A                      A
 Frequencies --   1094.3367              1098.1920              1106.1722
 Red. masses --      2.8389                 1.8348                 1.9763
 Frc consts  --      2.0031                 1.3038                 1.4248
 IR Inten    --     28.4210                24.3966                 9.0565

                     58                     59                     60
                      A                      A                      A
 Frequencies --   1125.4329              1149.6872              1158.5116
 Red. masses --      1.9300                 1.4563                 1.3389
 Frc consts  --      1.4403                 1.1341                 1.0587
 IR Inten    --      0.2624                10.5897                 7.6460

                     61                     62                     63
                      A                      A                      A
 Frequencies --   1170.1264              1187.6454              1191.8222
 Red. masses --      1.7050                 2.1471                 1.8654
 Frc consts  --      1.3754                 1.7843                 1.5612
 IR Inten    --     20.4290                50.0895                 6.5580

                     64                     65                     66
                      A                      A                      A
 Frequencies --   1228.7890              1245.0465              1271.0395
 Red. masses --      1.1986                 1.7757                 1.1661
 Frc consts  --      1.0663                 1.6217                 1.1100
 IR Inten    --     10.0932                38.6890                 4.3936

                     67                     68                     69
                      A                      A                      A
 Frequencies --   1284.6612              1303.4698              1310.5385
 Red. masses --      1.2579                 2.1174                 1.4566
 Frc consts  --      1.2231                 2.1196                 1.4739
 IR Inten    --     14.7666                54.1679                20.5785

                     70                     71                     72
                      A                      A                      A
 Frequencies --   1323.4381              1329.8587              1342.7439
 Red. masses --      1.1976                 1.2583                 1.2868
 Frc consts  --      1.2359                 1.3111                 1.3669
 IR Inten    --     16.8646                 7.4814                19.1088

                     73                     74                     75
                      A                      A                      A
 Frequencies --   1361.7649              1371.3322              1378.5610
 Red. masses --      1.4037                 1.3826                 1.4728
 Frc consts  --      1.5336                 1.5319                 1.6491
 IR Inten    --      6.7168                 2.6502                 0.9229

                     76                     77                     78
                      A                      A                      A
 Frequencies --   1391.9186              1396.8580              1397.8061
 Red. masses --      1.6569                 1.3552                 2.6738
 Frc consts  --      1.8914                 1.5580                 3.0781
 IR Inten    --     22.8612                 3.9290                26.2397

                     79                     80                     81
                      A                      A                      A
 Frequencies --   1401.5717              1410.5152              1414.3636
 Red. masses --      1.6081                 1.5876                 1.5561
 Frc consts  --      1.8612                 1.8610                 1.8340
 IR Inten    --      8.6606                19.2403                43.4944

                     82                     83                     84
                      A                      A                      A
 Frequencies --   1419.1723              1430.1646              1452.6847
 Red. masses --      2.4834                 1.3634                 1.2917
 Frc consts  --      2.9469                 1.6430                 1.6060
 IR Inten    --     87.7251                 3.6315                11.1307

                     85                     86                     87
                      A                      A                      A
 Frequencies --   1477.2718              1490.7438              1498.4086
 Red. masses --      1.3856                 2.4295                 1.3345
 Frc consts  --      1.7816                 3.1811                 1.7654
 IR Inten    --      5.8156                53.6295                18.9040

                     88                     89                     90
                      A                      A                      A
 Frequencies --   1507.7756              1512.7451              1515.8530
 Red. masses --      1.0958                 1.1029                 1.0660
 Frc consts  --      1.4678                 1.4870                 1.4431
 IR Inten    --      3.2758                 0.7481                13.5629

                     91                     92                     93
                      A                      A                      A
 Frequencies --   1516.7785              1526.0414              1530.3374
 Red. masses --      1.1312                 1.0913                 1.0903
 Frc consts  --      1.5333                 1.4973                 1.5045
 IR Inten    --      4.2672                11.9399                23.1772

                     94                     95                     96
                      A                      A                      A
 Frequencies --   1532.6585              1545.5914              1558.0231
 Red. masses --      1.0921                 1.0935                 1.1195
 Frc consts  --      1.5114                 1.5391                 1.6011
 IR Inten    --      3.6987                 3.2311                21.1260

                     97                     98                     99
                      A                      A                      A
 Frequencies --   1564.3784              1617.8540              1737.3918
 Red. masses --      3.9706                 4.3169                 7.2761
 Frc consts  --      5.7251                 6.6574                12.9403
 IR Inten    --     83.3056                20.8106               311.1090

                    100                    101                    102
                      A                      A                      A
 Frequencies --   3011.2954              3016.3081              3019.1254
 Red. masses --      1.0674                 1.0665                 1.0626
 Frc consts  --      5.7026                 5.7171                 5.7069
 IR Inten    --     70.6864                18.7515                18.8561

                    103                    104                    105
                      A                      A                      A
 Frequencies --   3020.9647              3041.0313              3045.8965
 Red. masses --      1.0727                 1.0691                 1.0432
 Frc consts  --      5.7677                 5.8252                 5.7022
 IR Inten    --     39.6634                22.1191                33.2942

                    106                    107                    108
                      A                      A                      A
 Frequencies --   3049.6327              3053.8061              3055.6804
 Red. masses --      1.0703                 1.0903                 1.0761
 Frc consts  --      5.8647                 5.9909                 5.9197
 IR Inten    --     58.9292                34.8380                36.8745

                    109                    110                    111
                      A                      A                      A
 Frequencies --   3058.2500              3067.0405              3076.1540
 Red. masses --      1.0861                 1.0931                 1.0959
 Frc consts  --      5.9852                 6.0582                 6.1098
 IR Inten    --     39.0290                67.1525                17.2119

                    112                    113                    114
                      A                      A                      A
 Frequencies --   3081.2673              3099.7545              3105.7873
 Red. masses --      1.1018                 1.0960                 1.0897
 Frc consts  --      6.1635                 6.2047                 6.1927
 IR Inten    --     77.7063                30.7423                22.7560

                    115                    116                    117
                      A                      A                      A
 Frequencies --   3114.0940              3120.4332              3132.8372
 Red. masses --      1.0938                 1.0836                 1.1014
 Frc consts  --      6.2498                 6.2164                 6.3688
 IR Inten    --     53.0818                17.5719                15.3058

                    118                    119                    120
                      A                      A                      A
 Frequencies --   3158.3757              3271.8383              3295.2180
 Red. masses --      1.0886                 1.0966                 1.0973
 Frc consts  --      6.3980                 6.9164                 7.0202
 IR Inten    --     23.0596                 2.9874                 0.4711

                    121                    122                    123
                      A                      A                      A
 Frequencies --   3531.0672              3669.2792              3753.3714
 Red. masses --      1.0736                 1.0807                 1.0664
 Frc consts  --      7.8868                 8.5730                 8.8515
 IR Inten    --     47.1612                73.2700                24.0964

 - Thermochemistry -
 -------------------
 Temperature   298.150 Kelvin.  Pressure   1.00000 Atm.
 Atom     1 has atomic number  6 and mass  12.00000

 Molecular mass:   264.18378 amu.
 Principal axes and moments of inertia in atomic units:
                           1         2         3
     Eigenvalues --  2883.323057405.039918917.11424
           X            1.00000   0.00075   0.00119
           Y           -0.00072   0.99973  -0.02332
           Z           -0.00121   0.02332   0.99973
 This molecule is an asymmetric top.
 Rotational symmetry number  1.
 Warning -- assumption of classical behavior for rotation
           may cause significant error
 Rotational temperatures (Kelvin)      0.03004     0.01170     0.00971
 Rotational constants (GHZ):           0.62592     0.24372     0.20239
 Zero-point vibrational energy    1004932.9 (Joules/Mol)
                                  240.18474 (Kcal/Mol)
 Warning -- explicit consideration of  28 degrees of freedom as
           vibrations may cause significant error
 Vibrational temperatures:     52.90    62.68    81.86   103.11   120.51
          (Kelvin)            154.94   188.33   197.12   216.34   262.55
                              271.58   286.86   328.84   357.96   395.24
                              426.06   453.89   474.66   486.23   512.07
                              577.31   612.51   652.70   677.84   688.77
                              710.15   789.04   850.29   915.41   930.89
                              956.83   996.48  1014.54  1042.54  1065.65
                             1111.33  1138.30  1172.00  1188.94  1224.73
                             1248.23  1258.99  1281.42  1320.35  1342.14
                             1365.54  1381.32  1470.37  1490.08  1497.94
                             1516.49  1528.31  1556.60  1562.79  1574.51
                             1580.05  1591.54  1619.25  1654.14  1666.84
                             1683.55  1708.76  1714.77  1767.95  1791.34
                             1828.74  1848.34  1875.40  1885.57  1904.13
                             1913.37  1931.91  1959.28  1973.04  1983.44
                             2002.66  2009.77  2011.13  2016.55  2029.42
                             2034.95  2041.87  2057.69  2090.09  2125.46
                             2144.85  2155.88  2169.35  2176.50  2180.97
                             2182.31  2195.63  2201.81  2205.15  2223.76
                             2241.65  2250.79  2327.73  2499.72  4332.58
                             4339.79  4343.85  4346.49  4375.37  4382.37
                             4387.74  4393.75  4396.44  4400.14  4412.79
                             4425.90  4433.26  4459.86  4468.54  4480.49
                             4489.61  4507.45  4544.20  4707.45  4741.08
                             5080.42  5279.27  5400.26

 Zero-point correction=                           0.382759 (Hartree/Particle)
 Thermal correction to Energy=                    0.401667
 Thermal correction to Enthalpy=                  0.402612
 Thermal correction to Gibbs Free Energy=         0.335704
 Sum of electronic and zero-point Energies=           -845.696522
 Sum of electronic and thermal Energies=              -845.677614
 Sum of electronic and thermal Enthalpies=            -845.676669
 Sum of electronic and thermal Free Energies=         -845.743577

                     E (Thermal)             CV                S
                      KCal/Mol        Cal/Mol-Kelvin    Cal/Mol-Kelvin
 Total                  252.050             73.402            140.818
 Electronic               0.000              0.000              0.000
 Translational            0.889              2.981             42.614
 Rotational               0.889              2.981             33.609
 Vibrational            250.273             67.440             64.595
 Vibration     1          0.594              1.982              5.426
 Vibration     2          0.595              1.980              5.090
 Vibration     3          0.596              1.975              4.562
 Vibration     4          0.598              1.968              4.107
 Vibration     5          0.601              1.960              3.801
 Vibration     6          0.606              1.943              3.310
 Vibration     7          0.612              1.922              2.933
 Vibration     8          0.614              1.916              2.845
 Vibration     9          0.618              1.902              2.668
 Vibration    10          0.630              1.864              2.303
 Vibration    11          0.633              1.855              2.240
 Vibration    12          0.638              1.841              2.139
 Vibration    13          0.651              1.797              1.890
 Vibration    14          0.662              1.765              1.739
 Vibration    15          0.677              1.720              1.566
 Vibration    16          0.690              1.681              1.439
 Vibration    17          0.703              1.644              1.333
 Vibration    18          0.713              1.616              1.261
 Vibration    19          0.718              1.600              1.222
 Vibration    20          0.731              1.563              1.140
 Vibration    21          0.767              1.467              0.958
 Vibration    22          0.788              1.414              0.873
 Vibration    23          0.812              1.353              0.785
 Vibration    24          0.828              1.314              0.734
 Vibration    25          0.835              1.297              0.714
 Vibration    26          0.849              1.264              0.674
 Vibration    27          0.904              1.143              0.547
 Vibration    28          0.948              1.051              0.465

                           ! Non-Optimized Parameters !
 Normal termination of Gaussian 16 at Mon Dec 14 17:29:28 2020.

 ----------------------------------------------------------------------
 # B3LYP/6-311++G(d,p) empiricaldispersion=gd3bj scf=xqc pop=npa geom=c
 heck
 ----------------------------------------------------------------------

 ---------------------------------------
 CID_138994325_JID_9004_Energie_neutraal
 ---------------------------------------
 Structure from the checkpoint file:  "JID_9004.chk"
 Charge =  0 Multiplicity = 1

 SCF Done:  E(RB3LYP) =  -846.327693095     A.U. after   16 cycles
 Normal termination of Gaussian 16 at Mon Dec 14 17:43:18 2020.

 ----------------------------------------------------------------------
 # B3LYP/6-311++G(d,p) empiricaldispersion=gd3bj scf=xqc pop=npa geom=c
 heck
 ----------------------------------------------------------------------

 -------------------------------------
 CID_138994325_JID_9004_Energie_kation
 -------------------------------------
 Structure from the checkpoint file:  "JID_9004.chk"
 Charge =  1 Multiplicity = 2

 SCF Done:  E(UB3LYP) =  -846.037502721     A.U. after   27 cycles
 Normal termination of Gaussian 16 at Mon Dec 14 18:16:04 2020.
 Gaussian 16:  ES64L-G16RevA.03 25-Dec-2016

 ----------------------------------------------------------------------
 # B3LYP/6-311++G(d,p) empiricaldispersion=gd3bj scf=xqc pop=npa geom=c
 heck
 ----------------------------------------------------------------------

 ------------------------------------
 CID_138994325_JID_9004_Energie_anion
 ------------------------------------
 Structure from the checkpoint file:  "JID_9004.chk"
 Charge = -1 Multiplicity = 2

                         Standard orientation:
 ---------------------------------------------------------------------
 Center     Atomic      Atomic             Coordinates (Angstroms)
 Number     Number       Type             X           Y           Z
 ---------------------------------------------------------------------
      1          6           0       -1.892336   -2.176606    1.125778
      2          6           0       -2.751278   -1.268942    0.293499
      3          6           0       -3.873437   -1.654584   -0.407458
      4          7           0       -4.431045   -0.534570   -0.990489
      5          6           0       -3.699806    0.568806   -0.661199
      6          6           0       -2.635557    0.158486    0.123731
      7          6           0       -1.688258    1.139659    0.699492
      8          8           0       -2.058448    2.271710    1.018567
      9          7           0       -0.374842    0.748957    0.888951
     10          6           0        0.381260   -0.022510   -0.110620
     11          6           0        0.827048    0.886671   -1.302483
     12          6           0        0.791195    2.388606   -1.040577
     13          8           0        1.633109    2.695319    0.077471
     14          6           0        1.463867   -0.868047    0.609965
     15          6           0        2.007532   -2.036946   -0.246226
     16          6           0        3.198205   -1.697923   -1.156024
     17          6           0        4.319839   -1.009873   -0.367841
     18          6           0        3.806116    0.235408    0.365211
     19          6           0        2.622401   -0.098760    1.284885
     20          1           0       -1.022902   -2.555917    0.574480
     21          1           0       -1.508096   -1.652941    2.005917
     22          1           0       -2.463700   -3.046174    1.467181
     23          1           0       -4.328911   -2.628218   -0.517915
     24          1           0       -5.263554   -0.530233   -1.558997
     25          1           0       -3.968550    1.561607   -0.987945
     26          1           0        0.164698    1.533472    1.246887
     27          1           0       -0.323380   -0.746817   -0.522068
     28          1           0        1.825451    0.610960   -1.642210
     29          1           0        0.151997    0.708436   -2.149328
     30          1           0        1.144188    2.913859   -1.941021
     31          1           0       -0.235330    2.717109   -0.838597
     32          1           0        1.485253    3.623981    0.312460
     33          1           0        0.893067   -1.328751    1.424513
     34          1           0        2.338680   -2.822280    0.447934
     35          1           0        1.192036   -2.477243   -0.836396
     36          1           0        2.881887   -1.051973   -1.984181
     37          1           0        3.571426   -2.620614   -1.618649
     38          1           0        5.149210   -0.747176   -1.036619
     39          1           0        4.724067   -1.720582    0.368711
     40          1           0        3.515821    1.007222   -0.354059
     41          1           0        4.612594    0.673138    0.967502
     42          1           0        2.249102    0.816067    1.754324
     43          1           0        2.998123   -0.734550    2.099736
 ---------------------------------------------------------------------

 SCF Done:  E(UB3LYP) =  -846.318783151     A.U. after   33 cycles
 SCF Done:  E(UB3LYP) =  -846.318783151     a.u. after    1 cycles

 The electronic state is 2-A.
 Alpha  occ. eigenvalues --  -19.04287 -18.98769 -14.26431 -14.22567 -10.17365
 Alpha  occ. eigenvalues --  -10.12866 -10.11879 -10.10266 -10.09593 -10.08475
 Alpha  occ. eigenvalues --  -10.08109 -10.08091 -10.08004 -10.07912 -10.07835
 Alpha  occ. eigenvalues --  -10.07729 -10.07395 -10.07192 -10.07032  -0.94253
 Alpha  occ. eigenvalues --   -0.93482  -0.88521  -0.82361  -0.74480  -0.70494
 Alpha  occ. eigenvalues --   -0.68648  -0.66113  -0.65516  -0.64991  -0.60071
 Alpha  occ. eigenvalues --   -0.58994  -0.54728  -0.52873  -0.52386  -0.49309
 Alpha  occ. eigenvalues --   -0.46914  -0.45484  -0.45342  -0.44787  -0.43350
 Alpha  occ. eigenvalues --   -0.39952  -0.38799  -0.37782  -0.37082  -0.35920
 Alpha  occ. eigenvalues --   -0.34946  -0.34706  -0.33657  -0.33279  -0.33168
 Alpha  occ. eigenvalues --   -0.32444  -0.31703  -0.30853  -0.30313  -0.29657
 Alpha  occ. eigenvalues --   -0.29541  -0.29109  -0.28845  -0.28019  -0.26862
 Alpha  occ. eigenvalues --   -0.26622  -0.25815  -0.25505  -0.24299  -0.22015
 Alpha  occ. eigenvalues --   -0.21244  -0.21176  -0.19710  -0.17101  -0.15407
 Alpha  occ. eigenvalues --   -0.14666  -0.12367   0.03770
 Alpha virt. eigenvalues --    0.05179   0.05703   0.06730   0.07032   0.07756
 Alpha virt. eigenvalues --    0.08035   0.08235   0.08844   0.09159   0.09698
 Alpha virt. eigenvalues --    0.09931   0.10495   0.11097   0.11492   0.11901

  Beta  occ. eigenvalues --  -19.04267 -18.98767 -14.26373 -14.22564 -10.17361
  Beta  occ. eigenvalues --  -10.12848 -10.11877 -10.10258 -10.09575 -10.08475
  Beta  occ. eigenvalues --  -10.08101 -10.08083 -10.07995 -10.07903 -10.07835
  Beta  occ. eigenvalues --  -10.07722 -10.07390 -10.07184 -10.07028  -0.94213
  Beta  occ. eigenvalues --   -0.93472  -0.88454  -0.82356  -0.74468  -0.70449
  Beta  occ. eigenvalues --   -0.68625  -0.66090  -0.65500  -0.64964  -0.60028
  Beta  occ. eigenvalues --   -0.58968  -0.54682  -0.52844  -0.52360  -0.49281
  Beta  occ. eigenvalues --   -0.46860  -0.45464  -0.45273  -0.44740  -0.43295
  Beta  occ. eigenvalues --   -0.39931  -0.38782  -0.37761  -0.37059  -0.35908
  Beta  occ. eigenvalues --   -0.34931  -0.34675  -0.33640  -0.33259  -0.33122
  Beta  occ. eigenvalues --   -0.32423  -0.31684  -0.30833  -0.30288  -0.29643
  Beta  occ. eigenvalues --   -0.29517  -0.29093  -0.28828  -0.28005  -0.26843
  Beta  occ. eigenvalues --   -0.26604  -0.25795  -0.25490  -0.24278  -0.21999
  Beta  occ. eigenvalues --   -0.21229  -0.21162  -0.19688  -0.17093  -0.15392
  Beta  occ. eigenvalues --   -0.14651  -0.12356
  Beta virt. eigenvalues --    0.05437   0.06198   0.06769   0.06933   0.07673
  Beta virt. eigenvalues --    0.08105   0.08179   0.08495   0.08945   0.09411
  Beta virt. eigenvalues --    0.09911   0.10215   0.10571   0.11240   0.11700

 Mulliken charges and spin densities:
               1          2
     1  C   -0.120062  -0.957110
     2  C   -0.024050   0.427523
     3  C   -0.194571   0.231003
     4  N    0.129212  -0.217045
     5  C    0.363044  -0.754473
     6  C    0.335102   0.450994
     7  C    0.104035  -0.846064
     8  O   -0.304436   0.011808
     9  N    0.097460   0.024726
    10  C    0.031440  -0.524098
    11  C   -0.910243   0.446481
    12  C    0.477325  -1.109979
    13  O   -0.305358   0.028289
    14  C    0.405475   0.341076
    15  C   -0.693234   0.144700
    16  C   -0.063562  -0.202496
    17  C    0.142329  -0.720878
    18  C   -0.385254   0.139432
    19  C   -0.413612   0.042364
    20  H    0.127280   0.042401
    21  H    0.143900   0.036534
    22  H    0.100919   0.063310
    23  H   -0.744251   0.918874
    24  H   -0.567653   0.916987
    25  H   -0.108460   0.296975
    26  H    0.372513  -0.078492
    27  H    0.418577  -0.296284
    28  H    0.550901  -0.428741
    29  H   -0.214916   0.396452
    30  H   -0.335028   0.513841
    31  H    0.195999   0.020775
    32  H    0.072651   0.194976
    33  H    0.310368  -0.064131
    34  H    0.039534   0.113655
    35  H   -0.076597   0.212811
    36  H   -0.109183   0.240327
    37  H   -0.023876   0.201343
    38  H   -0.021642   0.188575
    39  H    0.087816   0.031879
    40  H   -0.012171   0.162271
    41  H    0.018963   0.146239
    42  H    0.087890   0.076329
    43  H    0.015429   0.136844
 Sum of Mulliken charges =  -1.00000   1.00000

 Dipole moment (field-independent basis, Debye):
    X=              7.9480    Y=             -0.9027    Z=              3.3581  Tot=              8.6754
 Quadrupole moment (field-independent basis, Debye-Ang):
   XX=           -227.5918   YY=           -162.7501   ZZ=           -154.1168
   XY=             -7.1431   XZ=            -11.7016   YZ=             -6.7184

 Summary of Natural Population Analysis:

                                       Natural Population
                Natural  -----------------------------------------------
    Atom  No    Charge         Core      Valence    Rydberg      Total
 -----------------------------------------------------------------------
      C    1   -0.29371      0.99963     2.28933    0.00475     3.29371
      C    2   -0.04831      0.99950     2.03902    0.00979     3.04831
      C    3   -0.01938      0.99949     2.00618    0.01370     3.01938
      N    4   -0.25373      0.99969     2.74331    0.01072     3.75373
      C    5    0.01458      0.99953     1.97232    0.01358     2.98542
      C    6   -0.11584      0.99942     2.10462    0.01180     3.11584
      C    7    0.33922      0.99960     1.63905    0.02213     2.66078
      O    8   -0.32613      0.99988     3.32122    0.00503     4.32613
      N    9   -0.33052      0.99967     2.82142    0.00943     3.83052
      C   10   -0.01007      0.99955     1.99719    0.01332     3.01007
      C   11   -0.20918      0.99960     2.19988    0.00971     3.20918
      C   12   -0.01654      0.99958     2.00506    0.01189     3.01654
      O   13   -0.37885      0.99989     3.37194    0.00702     4.37885
      C   14   -0.11059      0.99956     2.10033    0.01069     3.11059
      C   15   -0.19099      0.99961     2.18138    0.01000     3.19099
      C   16   -0.19125      0.99962     2.18375    0.00787     3.19125
      C   17   -0.18837      0.99963     2.18169    0.00705     3.18837
      C   18   -0.19434      0.99962     2.18614    0.00857     3.19434
      C   19   -0.18991      0.99961     2.18244    0.00787     3.18991
      H   20    0.10016      0.00000     0.39856    0.00127     0.39984
      H   21    0.10636      0.00000     0.39259    0.00105     0.39364
      H   22    0.10225      0.00000     0.39704    0.00072     0.39775
      H   23    0.10197      0.00000     0.39625    0.00178     0.39803
      H   24    0.21030      0.00000     0.26262    0.02709     0.28970
      H   25    0.10711      0.00000     0.39182    0.00107     0.39289
      H   26    0.19696      0.00000     0.30035    0.00269     0.30304
      H   27    0.10719      0.00000     0.39062    0.00219     0.39281
      H   28    0.10096      0.00000     0.39735    0.00169     0.39904
      H   29    0.10578      0.00000     0.39305    0.00117     0.39422
      H   30    0.08078      0.00000     0.41792    0.00130     0.41922
      H   31    0.08885      0.00000     0.40950    0.00165     0.41115
      H   32    0.23355      0.00000     0.26341    0.00304     0.26645
      H   33    0.10366      0.00000     0.39449    0.00185     0.39634
      H   34    0.09525      0.00000     0.40371    0.00104     0.40475
      H   35    0.09978      0.00000     0.39921    0.00101     0.40022
      H   36    0.09305      0.00000     0.40557    0.00137     0.40695
      H   37    0.09709      0.00000     0.40200    0.00091     0.40291
      H   38    0.09725      0.00000     0.40178    0.00097     0.40275
      H   39    0.08942      0.00000     0.40932    0.00125     0.41058
      H   40    0.10195      0.00000     0.39622    0.00183     0.39805
      H   41    0.09586      0.00000     0.40327    0.00087     0.40414
      H   42    0.10615      0.00000     0.39257    0.00128     0.39385
      H   43    0.09222      0.00000     0.40669    0.00109     0.40778
 =======================================================================
   * Total *   -0.00000     18.99270    52.75219    0.25511    72.00000

 Normal termination of Gaussian 16 at Mon Dec 14 18:56:16 2020.
