 Gaussian 16, Revision A.03,

 -----------------------------------------------------------
 # opt freq B3LYP/6-31G(d) empiricaldispersion=gd3bj scf=xqc
 -----------------------------------------------------------

 -------------------------------
 CID_103027223_JID_7106_neutraal
 -------------------------------
 Symbolic Z-matrix:
 Charge =  0 Multiplicity = 1

 SCF Done:  E(RB3LYP) =  -748.752510395     A.U. after   14 cycles
 SCF Done:  E(RB3LYP) =  -748.756321552     A.U. after   12 cycles
 SCF Done:  E(RB3LYP) =  -748.754490632     A.U. after   13 cycles
 SCF Done:  E(RB3LYP) =  -748.756276773     A.U. after   12 cycles
 SCF Done:  E(RB3LYP) =  -748.756929632     A.U. after    9 cycles
 SCF Done:  E(RB3LYP) =  -748.757272701     A.U. after   11 cycles
 SCF Done:  E(RB3LYP) =  -748.757509433     A.U. after   12 cycles
 SCF Done:  E(RB3LYP) =  -748.757567848     A.U. after   11 cycles
 SCF Done:  E(RB3LYP) =  -748.757583395     A.U. after   10 cycles
 SCF Done:  E(RB3LYP) =  -748.757586274     A.U. after    9 cycles
 SCF Done:  E(RB3LYP) =  -748.757587164     A.U. after    8 cycles
 SCF Done:  E(RB3LYP) =  -748.757587594     A.U. after    8 cycles
 SCF Done:  E(RB3LYP) =  -748.757587741     A.U. after    7 cycles
 SCF Done:  E(RB3LYP) =  -748.757587819     A.U. after    7 cycles
 SCF Done:  E(RB3LYP) =  -748.757587843     A.U. after    7 cycles
 Optimization completed.
    -- Stationary point found.
 Normal termination of Gaussian 16 at Sun Dec 13 16:13:42 2020.

 --------------------------------------------------------------------
 #N Geom=AllCheck Guess=TCheck SCRF=Check GenChk RB3LYP/6-31G(d) Freq
 --------------------------------------------------------------------

 Structure from the checkpoint file:  "JID_7106.chk"
 -------------------------------
 CID_103027223_JID_7106_neutraal
 -------------------------------
 Charge =  0 Multiplicity = 1

 SCF Done:  E(RB3LYP) =  -748.757587843     A.U. after    1 cycles

  Exact polarizability: 182.923   1.992 132.232   6.088  -6.814 150.737
 Approx polarizability: 254.595   5.717 179.035   6.538 -16.503 247.523

                      1                      2                      3
                      A                      A                      A
 Frequencies --     22.9833                34.7831                44.2905
 Red. masses --      3.7105                 2.9592                 5.2664
 Frc consts  --      0.0012                 0.0021                 0.0061
 IR Inten    --      0.0342                 0.1264                 0.0443

                      4                      5                      6
                      A                      A                      A
 Frequencies --     68.6809                72.4034                82.8256
 Red. masses --      3.1856                 2.0174                 3.2036
 Frc consts  --      0.0089                 0.0062                 0.0129
 IR Inten    --      0.1464                 3.1380                 0.3911

                      7                      8                      9
                      A                      A                      A
 Frequencies --    100.7846               137.1486               172.7477
 Red. masses --      2.9803                 2.1393                 2.5005
 Frc consts  --      0.0178                 0.0237                 0.0440
 IR Inten    --      0.4131                 0.2713                 0.7028

                     10                     11                     12
                      A                      A                      A
 Frequencies --    177.5499               212.9328               226.1971
 Red. masses --      1.8094                 1.8558                 1.9423
 Frc consts  --      0.0336                 0.0496                 0.0586
 IR Inten    --      1.1978                 0.6947                 1.4728

                     13                     14                     15
                      A                      A                      A
 Frequencies --    235.5948               257.1548               268.3518
 Red. masses --      1.9293                 2.3810                 1.3729
 Frc consts  --      0.0631                 0.0928                 0.0582
 IR Inten    --      0.1353                 1.4877                 1.7601

                     16                     17                     18
                      A                      A                      A
 Frequencies --    289.1799               292.6771               314.2663
 Red. masses --      1.5986                 1.8858                 2.0429
 Frc consts  --      0.0788                 0.0952                 0.1189
 IR Inten    --      0.4830                 1.0700                 0.9889

                     19                     20                     21
                      A                      A                      A
 Frequencies --    335.4292               380.2106               386.8575
 Red. masses --      2.6072                 2.7197                 2.5370
 Frc consts  --      0.1728                 0.2316                 0.2237
 IR Inten    --      0.1687                 1.0197                 1.4025

                     22                     23                     24
                      A                      A                      A
 Frequencies --    407.8946               423.0084               449.2996
 Red. masses --      2.2679                 4.3299                 2.2573
 Frc consts  --      0.2223                 0.4565                 0.2685
 IR Inten    --      1.3007                15.2992                 3.8536

                     25                     26                     27
                      A                      A                      A
 Frequencies --    471.0391               515.7900               548.1727
 Red. masses --      3.3508                 3.0787                 3.0885
 Frc consts  --      0.4380                 0.4826                 0.5468
 IR Inten    --      3.6963                 0.4075                 0.8860

                     28                     29                     30
                      A                      A                      A
 Frequencies --    613.7076               661.9957               684.8527
 Red. masses --      6.1312                 5.0689                 2.9779
 Frc consts  --      1.3606                 1.3088                 0.8229
 IR Inten    --      0.1898                 1.3976                20.0440

                     31                     32                     33
                      A                      A                      A
 Frequencies --    747.4222               766.9042               789.6803
 Red. masses --      3.9142                 1.5975                 2.1581
 Frc consts  --      1.2883                 0.5536                 0.7929
 IR Inten    --      1.8524                31.2372                 7.2104

                     34                     35                     36
                      A                      A                      A
 Frequencies --    797.1830               822.7344               855.5878
 Red. masses --      1.5607                 2.6551                 1.6689
 Frc consts  --      0.5844                 1.0589                 0.7198
 IR Inten    --     37.9148                43.9838                 4.1472

                     37                     38                     39
                      A                      A                      A
 Frequencies --    875.7347               887.4439               919.3177
 Red. masses --      2.1242                 2.4363                 2.1103
 Frc consts  --      0.9598                 1.1305                 1.0508
 IR Inten    --      7.0276                 6.9519                 3.9575

                     40                     41                     42
                      A                      A                      A
 Frequencies --    932.7333               937.3073               959.9718
 Red. masses --      1.4272                 1.5631                 1.4123
 Frc consts  --      0.7316                 0.8091                 0.7668
 IR Inten    --      7.0944                 2.1570                 0.3458

                     43                     44                     45
                      A                      A                      A
 Frequencies --    979.6545               990.7046              1005.5975
 Red. masses --      1.4559                 1.7082                 1.9625
 Frc consts  --      0.8232                 0.9878                 1.1693
 IR Inten    --      0.6467                 8.2170                11.9267

                     46                     47                     48
                      A                      A                      A
 Frequencies --   1028.5050              1036.0477              1040.0869
 Red. masses --      1.5815                 1.5512                 4.8821
 Frc consts  --      0.9857                 0.9810                 3.1117
 IR Inten    --      2.8802                 8.5683                21.8391

                     49                     50                     51
                      A                      A                      A
 Frequencies --   1081.6592              1093.2598              1122.9341
 Red. masses --      2.7146                 2.4482                 5.5341
 Frc consts  --      1.8713                 1.7240                 4.1115
 IR Inten    --      4.8187                 3.6871                81.0612

                     52                     53                     54
                      A                      A                      A
 Frequencies --   1154.6630              1168.5034              1173.0903
 Red. masses --      2.1730                 2.2693                 1.8343
 Frc consts  --      1.7070                 1.8256                 1.4872
 IR Inten    --     12.7146                 7.8415                30.9412

                     55                     56                     57
                      A                      A                      A
 Frequencies --   1186.1015              1192.6739              1195.6554
 Red. masses --      2.0245                 1.4214                 2.2746
 Frc consts  --      1.6780                 1.1912                 1.9158
 IR Inten    --     25.0672                18.3343                68.9523

                     58                     59                     60
                      A                      A                      A
 Frequencies --   1220.3523              1229.1692              1238.9328
 Red. masses --      1.6225                 1.9945                 2.3930
 Frc consts  --      1.4236                 1.7754                 2.1642
 IR Inten    --      7.5642                28.4818                36.0320

                     61                     62                     63
                      A                      A                      A
 Frequencies --   1273.8025              1278.0654              1289.5850
 Red. masses --      2.8606                 2.1422                 1.5222
 Frc consts  --      2.7347                 2.0616                 1.4915
 IR Inten    --      2.1150                27.7326                 5.6713

                     64                     65                     66
                      A                      A                      A
 Frequencies --   1309.7760              1319.7369              1337.8883
 Red. masses --      1.3428                 1.5437                 1.4018
 Frc consts  --      1.3572                 1.5841                 1.4784
 IR Inten    --      1.3994                 8.1039                 6.0276

                     67                     68                     69
                      A                      A                      A
 Frequencies --   1345.1141              1384.2059              1393.9644
 Red. masses --      1.3637                 1.3334                 1.3612
 Frc consts  --      1.4537                 1.5053                 1.5584
 IR Inten    --      4.6085                15.1248                 2.7826

                     70                     71                     72
                      A                      A                      A
 Frequencies --   1416.5908              1424.0882              1429.5335
 Red. masses --      1.4441                 1.2570                 1.3687
 Frc consts  --      1.7074                 1.5020                 1.6479
 IR Inten    --      1.0863                 8.0492                 1.8934

                     73                     74                     75
                      A                      A                      A
 Frequencies --   1441.8806              1446.2581              1455.3992
 Red. masses --      1.2954                 1.2581                 1.9394
 Frc consts  --      1.5868                 1.5505                 2.4204
 IR Inten    --     14.7547                 5.7921                20.5765

                     76                     77                     78
                      A                      A                      A
 Frequencies --   1498.9274              1501.9081              1509.8035
 Red. masses --      1.1128                 1.0969                 1.0821
 Frc consts  --      1.4730                 1.4579                 1.4533
 IR Inten    --      1.0046                 1.8517                 0.2237

                     79                     80                     81
                      A                      A                      A
 Frequencies --   1515.4482              1517.1638              1522.6102
 Red. masses --      1.0628                 1.0969                 1.0803
 Frc consts  --      1.4381                 1.4875                 1.4756
 IR Inten    --      4.6918                 0.9903                 2.5317

                     82                     83                     84
                      A                      A                      A
 Frequencies --   1523.7073              1528.5422              1535.3052
 Red. masses --      1.9088                 1.0746                 1.0901
 Frc consts  --      2.6110                 1.4792                 1.5140
 IR Inten    --     12.7243                 0.8507                33.5663

                     85                     86                     87
                      A                      A                      A
 Frequencies --   1536.7164              1540.1681              1542.7351
 Red. masses --      1.0639                 1.0779                 1.0522
 Frc consts  --      1.4803                 1.5065                 1.4755
 IR Inten    --      1.3007                14.7393                 2.1535

                     88                     89                     90
                      A                      A                      A
 Frequencies --   1551.4724              1558.7208              1594.4865
 Red. masses --      1.0665                 1.1288                 8.5087
 Frc consts  --      1.5125                 1.6158                12.7455
 IR Inten    --     10.9269                46.5955                 8.7713

                     91                     92                     93
                      A                      A                      A
 Frequencies --   1632.3797              2975.4484              3003.2751
 Red. masses --      5.0016                 1.0672                 1.0827
 Frc consts  --      7.8523                 5.5669                 5.7536
 IR Inten    --      1.4339                47.5349                23.2189

                     94                     95                     96
                      A                      A                      A
 Frequencies --   3020.1555              3034.2765              3044.3789
 Red. masses --      1.0349                 1.0777                 1.0363
 Frc consts  --      5.5618                 5.8461                 5.6590
 IR Inten    --     53.7697                16.5660                30.4347

                     97                     98                     99
                      A                      A                      A
 Frequencies --   3047.5765              3051.0223              3055.6609
 Red. masses --      1.0761                 1.0553                 1.0445
 Frc consts  --      5.8884                 5.7880                 5.7460
 IR Inten    --     73.7322                12.7590                10.6584

                    100                    101                    102
                      A                      A                      A
 Frequencies --   3066.2786              3073.9446              3080.9141
 Red. masses --      1.0439                 1.0975                 1.1009
 Frc consts  --      5.7827                 6.1103                 6.1569
 IR Inten    --     33.0435                51.3098                14.5662

                    103                    104                    105
                      A                      A                      A
 Frequencies --   3092.8392              3110.9906              3115.3882
 Red. masses --      1.1004                 1.1017                 1.1024
 Frc consts  --      6.2018                 6.2824                 6.3042
 IR Inten    --     28.8815                60.4636                56.6957

                    106                    107                    108
                      A                      A                      A
 Frequencies --   3119.8235              3126.0893              3131.2185
 Red. masses --      1.1017                 1.1007                 1.1027
 Frc consts  --      6.3181                 6.3378                 6.3700
 IR Inten    --      2.1513                64.3613                17.0970

                    109                    110                    111
                      A                      A                      A
 Frequencies --   3135.0744              3165.8292              3173.9117
 Red. masses --      1.0998                 1.0906                 1.0966
 Frc consts  --      6.3688                 6.4398                 6.5088
 IR Inten    --     30.9892                26.2496                 2.5046

                    112                    113                    114
                      A                      A                      A
 Frequencies --   3174.2284              3194.4025              3554.8489
 Red. masses --      1.0892                 1.0970                 1.0722
 Frc consts  --      6.4657                 6.5953                 7.9832
 IR Inten    --      9.6006                44.4288                 6.9778

 - Thermochemistry -
 -------------------
 Temperature   298.150 Kelvin.  Pressure   1.00000 Atm.
 Atom     1 has atomic number  6 and mass  12.00000

 Molecular mass:   237.18411 amu.
 Principal axes and moments of inertia in atomic units:
                           1         2         3
     Eigenvalues --  3119.694625165.265486518.91939
           X            0.99960   0.02830  -0.00294
           Y           -0.02831   0.99960  -0.00211
           Z            0.00288   0.00219   0.99999
 This molecule is an asymmetric top.
 Rotational symmetry number  1.
 Warning -- assumption of classical behavior for rotation
           may cause significant error
 Rotational temperatures (Kelvin)      0.02776     0.01677     0.01329
 Rotational constants (GHZ):           0.57850     0.34940     0.27685
 Zero-point vibrational energy     933218.7 (Joules/Mol)
                                  223.04462 (Kcal/Mol)
 Warning -- explicit consideration of  28 degrees of freedom as
           vibrations may cause significant error
 Vibrational temperatures:     33.07    50.05    63.72    98.82   104.17
          (Kelvin)            119.17   145.01   197.33   248.55   255.45
                              306.36   325.45   338.97   369.99   386.10
                              416.07   421.10   452.16   482.61   547.04
                              556.60   586.87   608.61   646.44   677.72
                              742.11   788.70   882.99   952.46   985.35
                             1075.37  1103.40  1136.17  1146.97  1183.73
                             1231.00  1259.99  1276.83  1322.69  1342.00
                             1348.58  1381.19  1409.50  1425.40  1446.83
                             1479.79  1490.64  1496.45  1556.27  1572.96
                             1615.65  1661.30  1681.22  1687.82  1706.54
                             1715.99  1720.28  1755.81  1768.50  1782.55
                             1832.72  1838.85  1855.43  1884.48  1898.81
                             1924.92  1935.32  1991.56  2005.60  2038.16
                             2048.95  2056.78  2074.54  2080.84  2093.99
                             2156.62  2160.91  2172.27  2180.39  2182.86
                             2190.70  2192.27  2199.23  2208.96  2210.99
                             2215.96  2219.65  2232.22  2242.65  2294.11
                             2348.63  4281.01  4321.04  4345.33  4365.65
                             4380.18  4384.78  4389.74  4396.41  4411.69
                             4422.72  4432.75  4449.91  4476.02  4482.35
                             4488.73  4497.75  4505.12  4510.67  4554.92
                             4566.55  4567.01  4596.03  5114.63

 Zero-point correction=                           0.355444 (Hartree/Particle)
 Thermal correction to Energy=                    0.373965
 Thermal correction to Enthalpy=                  0.374909
 Thermal correction to Gibbs Free Energy=         0.307785
 Sum of electronic and zero-point Energies=           -748.402144
 Sum of electronic and thermal Energies=              -748.383623
 Sum of electronic and thermal Enthalpies=            -748.382679
 Sum of electronic and thermal Free Energies=         -748.449803

                     E (Thermal)             CV                S
                      KCal/Mol        Cal/Mol-Kelvin    Cal/Mol-Kelvin
 Total                  234.666             69.184            141.275
 Electronic               0.000              0.000              0.000
 Translational            0.889              2.981             42.292
 Rotational               0.889              2.981             33.018
 Vibrational            232.889             63.222             65.965
 Vibration     1          0.593              1.985              6.358
 Vibration     2          0.594              1.983              5.536
 Vibration     3          0.595              1.980              5.057
 Vibration     4          0.598              1.969              4.191
 Vibration     5          0.599              1.967              4.087
 Vibration     6          0.600              1.961              3.823
 Vibration     7          0.604              1.948              3.439
 Vibration     8          0.614              1.916              2.843
 Vibration     9          0.626              1.876              2.405
 Vibration    10          0.628              1.870              2.354
 Vibration    11          0.644              1.821              2.018
 Vibration    12          0.650              1.801              1.909
 Vibration    13          0.655              1.786              1.836
 Vibration    14          0.667              1.751              1.681
 Vibration    15          0.673              1.731              1.607
 Vibration    16          0.686              1.694              1.479
 Vibration    17          0.688              1.687              1.458
 Vibration    18          0.702              1.646              1.340
 Vibration    19          0.717              1.605              1.234
 Vibration    20          0.750              1.512              1.038
 Vibration    21          0.755              1.498              1.012
 Vibration    22          0.772              1.453              0.934
 Vibration    23          0.785              1.420              0.882
 Vibration    24          0.808              1.362              0.798
 Vibration    25          0.828              1.314              0.735
 Vibration    26          0.871              1.215              0.620
 Vibration    27          0.903              1.144              0.548
 Vibration    28          0.973              1.003              0.427

 Optimization completed.
    -- Stationary point found.
 Normal termination of Gaussian 16 at Sun Dec 13 16:31:44 2020.

 ----------------------------------------------------------------------
 # B3LYP/6-311++G(d,p) empiricaldispersion=gd3bj scf=xqc pop=npa geom=c
 heck
 ----------------------------------------------------------------------

 ---------------------------------------
 CID_103027223_JID_7106_Energie_neutraal
 ---------------------------------------
 Structure from the checkpoint file:  "JID_7106.chk"
 Charge =  0 Multiplicity = 1

 SCF Done:  E(RB3LYP) =  -748.964755823     A.U. after   15 cycles
 Normal termination of Gaussian 16 at Sun Dec 13 16:40:46 2020.

 ----------------------------------------------------------------------
 # B3LYP/6-311++G(d,p) empiricaldispersion=gd3bj scf=xqc pop=npa geom=c
 heck
 ----------------------------------------------------------------------

 -------------------------------------
 CID_103027223_JID_7106_Energie_kation
 -------------------------------------
 Structure from the checkpoint file:  "JID_7106.chk"
 Charge =  1 Multiplicity = 2

 SCF Done:  E(UB3LYP) =  -748.680217917     A.U. after   25 cycles
 Normal termination of Gaussian 16 at Sun Dec 13 17:03:21 2020.
 Gaussian 16:  ES64L-G16RevA.03 25-Dec-2016

 ----------------------------------------------------------------------
 # B3LYP/6-311++G(d,p) empiricaldispersion=gd3bj scf=xqc pop=npa geom=c
 heck
 ----------------------------------------------------------------------

 ------------------------------------
 CID_103027223_JID_7106_Energie_anion
 ------------------------------------
 Structure from the checkpoint file:  "JID_7106.chk"
 Charge = -1 Multiplicity = 2

                         Standard orientation:
 ---------------------------------------------------------------------
 Center     Atomic      Atomic             Coordinates (Angstroms)
 Number     Number       Type             X           Y           Z
 ---------------------------------------------------------------------
      1          6           0       -3.325549   -2.025881    1.067611
      2          6           0       -2.952906   -2.499110   -0.341495
      3          6           0       -2.041479   -1.519853   -1.085167
      4          7           0       -0.748045   -1.410253   -0.421213
      5          6           0        0.222565   -0.572733   -1.105900
      6          6           0       -0.194420    0.901565   -1.412151
      7          6           0       -0.543808    1.865917   -0.258141
      8          6           0        0.663811    2.204437    0.630682
      9          6           0       -1.110452    3.153618   -0.879865
     10          8           0       -1.569390    1.186615    0.494562
     11          6           0       -2.067906    1.829310    1.650244
     12          6           0        1.558959   -0.655886   -0.390905
     13          7           0        1.573818   -0.954948    0.914087
     14          6           0        2.770085   -1.001103    1.510157
     15          6           0        3.952848   -0.742730    0.819843
     16          7           0        3.952858   -0.442263   -0.485080
     17          6           0        2.757108   -0.406356   -1.075962
     18          1           0       -2.446505   -1.975392    1.719832
     19          1           0       -4.042001   -2.708236    1.538379
     20          1           0       -3.778778   -1.027260    1.036990
     21          1           0       -2.454513   -3.474557   -0.285884
     22          1           0       -3.868507   -2.635484   -0.932172
     23          1           0       -1.865464   -1.888762   -2.105527
     24          1           0       -2.564401   -0.552085   -1.174386
     25          1           0       -0.876299   -1.029024    0.511076
     26          1           0        0.378764   -1.017908   -2.100587
     27          1           0        0.604596    1.366761   -2.003151
     28          1           0       -1.069076    0.852196   -2.070015
     29          1           0        1.533324    2.455250    0.014413
     30          1           0        0.454041    3.068687    1.269614
     31          1           0        0.927146    1.359362    1.267717
     32          1           0       -2.012422    2.931774   -1.459439
     33          1           0       -1.362872    3.894583   -0.114688
     34          1           0       -0.372244    3.611281   -1.547181
     35          1           0       -1.290288    1.987807    2.409377
     36          1           0       -2.542138    2.794639    1.425244
     37          1           0       -2.825486    1.158993    2.064276
     38          1           0        2.782699   -1.247387    2.570047
     39          1           0        4.917398   -0.778803    1.321316
     40          1           0        2.744598   -0.174259   -2.140018
 ---------------------------------------------------------------------

 SCF Done:  E(UB3LYP) =  -748.962966314     A.U. after   33 cycles
 SCF Done:  E(UB3LYP) =  -748.962966314     a.u. after    1 cycles

 The electronic state is 2-A.
 Alpha  occ. eigenvalues --  -19.01643 -14.17026 -14.15948 -14.15645 -10.12533
 Alpha  occ. eigenvalues --  -10.10782 -10.08564 -10.07885 -10.06993 -10.06724
 Alpha  occ. eigenvalues --  -10.06440 -10.06380 -10.06369 -10.06188 -10.05715
 Alpha  occ. eigenvalues --  -10.05700 -10.04454  -0.92826  -0.83200  -0.79219
 Alpha  occ. eigenvalues --   -0.75455  -0.70010  -0.67565  -0.64160  -0.60428
 Alpha  occ. eigenvalues --   -0.58698  -0.58536  -0.56857  -0.53064  -0.51225
 Alpha  occ. eigenvalues --   -0.47829  -0.47245  -0.44398  -0.39122  -0.38346
 Alpha  occ. eigenvalues --   -0.37918  -0.36844  -0.36138  -0.35954  -0.35289
 Alpha  occ. eigenvalues --   -0.33447  -0.33011  -0.31787  -0.31055  -0.30600
 Alpha  occ. eigenvalues --   -0.29941  -0.29473  -0.28421  -0.27813  -0.27385
 Alpha  occ. eigenvalues --   -0.27051  -0.25987  -0.25093  -0.24181  -0.23970
 Alpha  occ. eigenvalues --   -0.23611  -0.23196  -0.22031  -0.19616  -0.18469
 Alpha  occ. eigenvalues --   -0.15971  -0.15843  -0.12843  -0.10450  -0.10198
 Alpha  occ. eigenvalues --    0.04628
 Alpha virt. eigenvalues --    0.06234   0.07232   0.07661   0.08763   0.09070
 Alpha virt. eigenvalues --    0.09351   0.09710   0.10311   0.10790   0.10854
 Alpha virt. eigenvalues --    0.11741   0.12021   0.12087   0.12250   0.13112

  Beta  occ. eigenvalues --  -19.01640 -14.17025 -14.15424 -14.15136 -10.12531
  Beta  occ. eigenvalues --  -10.10759 -10.08570 -10.07882 -10.06971 -10.06722
  Beta  occ. eigenvalues --  -10.06411 -10.06364 -10.06355 -10.06137 -10.05691
  Beta  occ. eigenvalues --  -10.05675 -10.04441  -0.92820  -0.82598  -0.79128
  Beta  occ. eigenvalues --   -0.74610  -0.69975  -0.67533  -0.63979  -0.60316
  Beta  occ. eigenvalues --   -0.58637  -0.58499  -0.56833  -0.52839  -0.50846
  Beta  occ. eigenvalues --   -0.47735  -0.47093  -0.44353  -0.39046  -0.38288
  Beta  occ. eigenvalues --   -0.37796  -0.36714  -0.36008  -0.35929  -0.35223
  Beta  occ. eigenvalues --   -0.33371  -0.32925  -0.31757  -0.30999  -0.30548
  Beta  occ. eigenvalues --   -0.29866  -0.29441  -0.28067  -0.27609  -0.27316
  Beta  occ. eigenvalues --   -0.26523  -0.25932  -0.25014  -0.24124  -0.23930
  Beta  occ. eigenvalues --   -0.23366  -0.23159  -0.21952  -0.19487  -0.16298
  Beta  occ. eigenvalues --   -0.15718  -0.15293  -0.12065  -0.10359  -0.09697
  Beta virt. eigenvalues --    0.06605   0.07424   0.07796   0.08807   0.09152
  Beta virt. eigenvalues --    0.09516   0.09710   0.10190   0.10534   0.10861
  Beta virt. eigenvalues --    0.11041   0.11836   0.12037   0.12070   0.12330

 Mulliken charges and spin densities:
               1          2
     1  C   -0.380604  -0.156185
     2  C   -0.502220   0.092313
     3  C    0.191707  -0.135901
     4  N    0.257751  -0.003798
     5  C   -0.543664   0.043725
     6  C   -0.029963  -0.312799
     7  C   -0.999826   0.956658
     8  C   -0.476281  -0.407810
     9  C    0.666569  -0.968363
    10  O   -0.053944   0.007756
    11  C    0.539935  -0.728379
    12  C    0.018318   0.024430
    13  N   -0.133399   0.209042
    14  C   -0.023648   0.176925
    15  C   -0.203273  -0.036971
    16  N   -0.094342   0.222591
    17  C   -0.590896   0.088419
    18  H    0.163801   0.012222
    19  H    0.065749   0.064102
    20  H    0.062786   0.069030
    21  H    0.140122  -0.003098
    22  H    0.086794   0.034098
    23  H    0.098481   0.019323
    24  H    0.124891   0.002090
    25  H    0.083406  -0.006306
    26  H    0.195242   0.010367
    27  H    0.207639  -0.047579
    28  H    0.008959   0.147272
    29  H    0.152914   0.030764
    30  H   -0.073267   0.228671
    31  H    0.262951  -0.068924
    32  H   -0.078494   0.236509
    33  H   -0.136781   0.280704
    34  H   -0.050640   0.197316
    35  H   -0.050171   0.189939
    36  H   -0.314962   0.446716
    37  H    0.082922   0.038847
    38  H    0.106064   0.023896
    39  H    0.124728  -0.003166
    40  H    0.094645   0.025553
 Sum of Mulliken charges =  -1.00000   1.00000

 Dipole moment (field-independent basis, Debye):
    X=             -3.3818    Y=             -1.7285    Z=             -0.8250  Tot=              3.8865
 Quadrupole moment (field-independent basis, Debye-Ang):
   XX=           -164.1623   YY=           -148.5037   ZZ=           -125.3447
   XY=             11.6751   XZ=              4.1839   YZ=             -1.3150

 Summary of Natural Population Analysis:

                                       Natural Population
                Natural  -----------------------------------------------
    Atom  No    Charge         Core      Valence    Rydberg      Total
 -----------------------------------------------------------------------
      C    1   -0.28871      0.99967     2.28443    0.00462     3.28871
      C    2   -0.18998      0.99964     2.18289    0.00745     3.18998
      C    3   -0.08911      0.99963     2.07659    0.01289     3.08911
      N    4   -0.33993      0.99972     2.82883    0.01137     3.83993
      C    5   -0.01848      0.99956     2.00419    0.01473     3.01848
      C    6   -0.19668      0.99955     2.18604    0.01108     3.19668
      C    7    0.13820      0.99952     1.84684    0.01544     2.86180
      C    8   -0.30866      0.99960     2.30224    0.00682     3.30866
      C    9   -0.29820      0.99961     2.29186    0.00673     3.29820
      O   10   -0.31714      0.99987     3.30437    0.01290     4.31714
      C   11   -0.09826      0.99959     2.08907    0.00961     3.09826
      C   12    0.09412      0.99947     1.89187    0.01454     2.90588
      N   13   -0.17289      0.99967     2.66100    0.01222     3.67289
      C   14    0.00639      0.99959     1.97947    0.01454     2.99361
      C   15   -0.01107      0.99960     1.99453    0.01694     3.01107
      N   16   -0.15703      0.99972     2.64611    0.01121     3.65703
      C   17    0.00901      0.99949     1.97623    0.01527     2.99099
      H   18    0.10041      0.00000     0.39854    0.00105     0.39959
      H   19    0.09329      0.00000     0.40591    0.00080     0.40671
      H   20    0.09686      0.00000     0.40188    0.00126     0.40314
      H   21    0.09553      0.00000     0.40320    0.00126     0.40447
      H   22    0.08950      0.00000     0.40946    0.00104     0.41050
      H   23    0.08596      0.00000     0.41297    0.00106     0.41404
      H   24    0.08239      0.00000     0.41568    0.00193     0.41761
      H   25    0.18645      0.00000     0.30902    0.00453     0.31355
      H   26    0.09195      0.00000     0.40646    0.00159     0.40805
      H   27    0.10255      0.00000     0.39648    0.00098     0.39745
      H   28    0.09850      0.00000     0.40031    0.00119     0.40150
      H   29    0.10576      0.00000     0.39323    0.00101     0.39424
      H   30    0.09556      0.00000     0.40351    0.00093     0.40444
      H   31    0.11727      0.00000     0.38118    0.00154     0.38273
      H   32    0.10106      0.00000     0.39794    0.00101     0.39894
      H   33    0.10047      0.00000     0.39833    0.00120     0.39953
      H   34    0.10138      0.00000     0.39769    0.00093     0.39862
      H   35    0.08102      0.00000     0.41785    0.00113     0.41898
      H   36    0.07911      0.00000     0.41945    0.00144     0.42089
      H   37    0.08839      0.00000     0.41067    0.00094     0.41161
      H   38    0.08243      0.00000     0.41656    0.00101     0.41757
      H   39    0.08209      0.00000     0.41686    0.00105     0.41791
      H   40    0.08053      0.00000     0.41793    0.00154     0.41947
 =======================================================================
   * Total *    0.00002     16.99353    47.77769    0.22877    64.99998

 Normal termination of Gaussian 16 at Sun Dec 13 17:31:12 2020.
