 Gaussian 16, Revision A.03,

 -----------------------------------------------------------
 # opt freq B3LYP/6-31G(d) empiricaldispersion=gd3bj scf=xqc
 -----------------------------------------------------------

 ------------------------------
 CID_84771050_JID_4873_neutraal
 ------------------------------
 Symbolic Z-matrix:
 Charge =  0 Multiplicity = 1

 SCF Done:  E(RB3LYP) =  -627.134694031     A.U. after   15 cycles
 SCF Done:  E(RB3LYP) =  -627.160759180     A.U. after   13 cycles
 SCF Done:  E(RB3LYP) =  -627.162869012     A.U. after   13 cycles
 SCF Done:  E(RB3LYP) =  -627.163854685     A.U. after   13 cycles
 SCF Done:  E(RB3LYP) =  -627.165520305     A.U. after   14 cycles
 SCF Done:  E(RB3LYP) =  -627.166460060     A.U. after   12 cycles
 SCF Done:  E(RB3LYP) =  -627.167374355     A.U. after   14 cycles
 SCF Done:  E(RB3LYP) =  -627.167630338     A.U. after   12 cycles
 SCF Done:  E(RB3LYP) =  -627.167655886     A.U. after   12 cycles
 SCF Done:  E(RB3LYP) =  -627.167748907     A.U. after   11 cycles
 SCF Done:  E(RB3LYP) =  -627.167756299     A.U. after   10 cycles
 SCF Done:  E(RB3LYP) =  -627.167761605     A.U. after   10 cycles
 SCF Done:  E(RB3LYP) =  -627.167762020     A.U. after    8 cycles
 SCF Done:  E(RB3LYP) =  -627.167762126     A.U. after    8 cycles
 SCF Done:  E(RB3LYP) =  -627.167762165     A.U. after    7 cycles
 Optimization completed.
    -- Stationary point found.
 Normal termination of Gaussian 16 at Thu Dec 10 10:48:23 2020.

 --------------------------------------------------------------------
 #N Geom=AllCheck Guess=TCheck SCRF=Check GenChk RB3LYP/6-31G(d) Freq
 --------------------------------------------------------------------

 Structure from the checkpoint file:  "JID_4873.chk"
 ------------------------------
 CID_84771050_JID_4873_neutraal
 ------------------------------
 Charge =  0 Multiplicity = 1

 SCF Done:  E(RB3LYP) =  -627.167762164     A.U. after    1 cycles

  Exact polarizability: 147.506  -1.017 130.571   1.158   4.377  80.287
 Approx polarizability: 212.339 -10.333 203.211   0.280  10.943 130.068

                      1                      2                      3
                      A                      A                      A
 Frequencies --     39.4005                54.1600                65.5245
 Red. masses --      4.0663                 4.9432                 4.2292
 Frc consts  --      0.0037                 0.0085                 0.0107
 IR Inten    --      2.6480                 1.5960                 5.3382

                      4                      5                      6
                      A                      A                      A
 Frequencies --    119.7697               144.6819               145.6284
 Red. masses --      5.1073                 3.4723                 3.3987
 Frc consts  --      0.0432                 0.0428                 0.0425
 IR Inten    --      6.4296                 0.5627                 1.1804

                      7                      8                      9
                      A                      A                      A
 Frequencies --    163.4848               206.3818               242.5228
 Red. masses --      1.9094                 1.5726                 3.2567
 Frc consts  --      0.0301                 0.0395                 0.1129
 IR Inten    --      0.7320                 0.9676                 4.6594

                     10                     11                     12
                      A                      A                      A
 Frequencies --    279.8888               328.4474               353.3456
 Red. masses --      3.5835                 4.4520                 5.8585
 Frc consts  --      0.1654                 0.2830                 0.4310
 IR Inten    --      1.8039                 0.2681                 0.3266

                     13                     14                     15
                      A                      A                      A
 Frequencies --    375.4420               416.0827               451.6000
 Red. masses --      3.0875                 6.3502                 4.8293
 Frc consts  --      0.2564                 0.6477                 0.5803
 IR Inten    --      0.6400                 1.1558                 5.3306

                     16                     17                     18
                      A                      A                      A
 Frequencies --    482.0809               562.4190               583.2523
 Red. masses --      3.3591                 5.0892                 3.9999
 Frc consts  --      0.4600                 0.9485                 0.8017
 IR Inten    --      0.1413                 3.9417                 6.7624

                     19                     20                     21
                      A                      A                      A
 Frequencies --    627.4524               723.2736               740.4564
 Red. masses --      6.1639                 5.6210                 4.6386
 Frc consts  --      1.4298                 1.7325                 1.4984
 IR Inten    --      9.0584                 1.7876                 0.7059

                     22                     23                     24
                      A                      A                      A
 Frequencies --    792.3310               811.5971               828.8192
 Red. masses --      2.0321                 1.8880                 2.4351
 Frc consts  --      0.7516                 0.7327                 0.9856
 IR Inten    --      1.9760                 6.9618                 3.4282

                     25                     26                     27
                      A                      A                      A
 Frequencies --    834.4494               911.8970               914.5975
 Red. masses --      2.8035                 2.7732                 2.9647
 Frc consts  --      1.1501                 1.3587                 1.4612
 IR Inten    --     12.9744                 9.7533                12.4198

                     28                     29                     30
                      A                      A                      A
 Frequencies --    940.6239               944.2438               975.8387
 Red. masses --      2.0337                 3.7629                 3.6859
 Frc consts  --      1.0602                 1.9767                 2.0680
 IR Inten    --      1.1605                 7.2428                72.2376

                     31                     32                     33
                      A                      A                      A
 Frequencies --    985.1215              1071.1976              1088.4225
 Red. masses --      1.5658                 1.3082                 4.1295
 Frc consts  --      0.8953                 0.8844                 2.8823
 IR Inten    --      5.6775                23.7111                45.9993

                     34                     35                     36
                      A                      A                      A
 Frequencies --   1097.7456              1127.2825              1130.0942
 Red. masses --      1.3279                 1.4360                 1.5520
 Frc consts  --      0.9428                 1.0752                 1.1678
 IR Inten    --      2.8499                 2.4580                 6.2379

                     37                     38                     39
                      A                      A                      A
 Frequencies --   1157.0940              1186.7169              1220.1654
 Red. masses --      2.8268                 1.2680                 1.3623
 Frc consts  --      2.2299                 1.0521                 1.1950
 IR Inten    --     11.8119                 0.5062                 0.4082

                     40                     41                     42
                      A                      A                      A
 Frequencies --   1221.8510              1229.9680              1242.1438
 Red. masses --      1.6917                 1.3803                 2.1438
 Frc consts  --      1.4880                 1.2303                 1.9488
 IR Inten    --     21.3524                10.7904                 8.7818

                     43                     44                     45
                      A                      A                      A
 Frequencies --   1295.0686              1305.4188              1356.4500
 Red. masses --      2.4098                 2.1888                 1.6079
 Frc consts  --      2.3814                 2.1977                 1.7431
 IR Inten    --     12.0982                 0.6450                 8.0172

                     46                     47                     48
                      A                      A                      A
 Frequencies --   1379.5334              1428.9466              1443.7146
 Red. masses --      2.7854                 1.9524                 2.0838
 Frc consts  --      3.1232                 2.3488                 2.5590
 IR Inten    --     97.9878                35.0031               304.0994

                     49                     50                     51
                      A                      A                      A
 Frequencies --   1479.0990              1479.3709              1493.7066
 Red. masses --      1.2748                 2.2841                 1.1082
 Frc consts  --      1.6432                 2.9452                 1.4568
 IR Inten    --     24.7037                81.7350                12.6182

                     52                     53                     54
                      A                      A                      A
 Frequencies --   1512.2841              1517.2626              1525.3646
 Red. masses --      1.0489                 1.3377                 1.0857
 Frc consts  --      1.4133                 1.8143                 1.4884
 IR Inten    --      7.0616                 4.9005                34.7195

                     55                     56                     57
                      A                      A                      A
 Frequencies --   1534.6931              1606.8634              1645.1240
 Red. masses --      1.8421                 7.8079                 6.3395
 Frc consts  --      2.5563                11.8779                10.1089
 IR Inten    --    191.3858               246.3990               236.1510

                     58                     59                     60
                      A                      A                      A
 Frequencies --   2371.5293              3051.0532              3067.1232
 Red. masses --     12.5958                 1.0619                 1.0302
 Frc consts  --     41.7382                 5.8239                 5.7100
 IR Inten    --      6.5643                 7.6368                36.8449

                     61                     62                     63
                      A                      A                      A
 Frequencies --   3092.0823              3137.7761              3155.7638
 Red. masses --      1.1000                 1.1071                 1.0911
 Frc consts  --      6.1964                 6.4221                 6.4019
 IR Inten    --      2.4189                25.2308                31.3803

                     64                     65                     66
                      A                      A                      A
 Frequencies --   3158.9139              3163.4615              3175.7190
 Red. masses --      1.0529                 1.0552                 1.1061
 Frc consts  --      6.1906                 6.2216                 6.5723
 IR Inten    --     13.4947                 9.1517                27.8812

                     67                     68                     69
                      A                      A                      A
 Frequencies --   3213.2312              3244.0412              3257.3972
 Red. masses --      1.0899                 1.1200                 1.1167
 Frc consts  --      6.6300                 6.9443                 6.9810
 IR Inten    --      6.3797                 0.6248                 8.8558

 - Thermochemistry -
 -------------------
 Temperature   298.150 Kelvin.  Pressure   1.00000 Atm.
 Atom     1 has atomic number  6 and mass  12.00000

 Molecular mass:   189.09021 amu.
 Principal axes and moments of inertia in atomic units:
                           1         2         3
     Eigenvalues --  1784.519933379.691964688.13069
           X            0.99963   0.02237   0.01563
           Y           -0.02247   0.99972   0.00682
           Z           -0.01548  -0.00716   0.99985
 This molecule is an asymmetric top.
 Rotational symmetry number  1.
 Warning -- assumption of classical behavior for rotation
           may cause significant error
 Rotational temperatures (Kelvin)      0.04854     0.02563     0.01848
 Rotational constants (GHZ):           1.01133     0.53400     0.38496
 Zero-point vibrational energy     525809.5 (Joules/Mol)
                                  125.67149 (Kcal/Mol)
 Warning -- explicit consideration of  18 degrees of freedom as
           vibrations may cause significant error
 Vibrational temperatures:     56.69    77.92    94.28   172.32   208.16
          (Kelvin)            209.53   235.22   296.94   348.94   402.70
                              472.56   508.39   540.18   598.65   649.75
                              693.61   809.20   839.17   902.76  1040.63
                             1065.35  1139.99  1167.71  1192.49  1200.59
                             1312.02  1315.90  1353.35  1358.56  1404.01
                             1417.37  1541.21  1566.00  1579.41  1621.91
                             1625.95  1664.80  1707.42  1755.55  1757.97
                             1769.65  1787.17  1863.31  1878.21  1951.63
                             1984.84  2055.94  2077.18  2128.09  2128.48
                             2149.11  2175.84  2183.00  2194.66  2208.08
                             2311.92  2366.97  3412.10  4389.79  4412.91
                             4448.82  4514.56  4540.44  4544.97  4551.52
                             4569.15  4623.12  4667.45  4686.67

 Zero-point correction=                           0.200270 (Hartree/Particle)
 Thermal correction to Energy=                    0.213156
 Thermal correction to Enthalpy=                  0.214100
 Thermal correction to Gibbs Free Energy=         0.159881
 Sum of electronic and zero-point Energies=           -626.967492
 Sum of electronic and thermal Energies=              -626.954606
 Sum of electronic and thermal Enthalpies=            -626.953662
 Sum of electronic and thermal Free Energies=         -627.007881

                     E (Thermal)             CV                S
                      KCal/Mol        Cal/Mol-Kelvin    Cal/Mol-Kelvin
 Total                  133.757             47.395            114.113
 Electronic               0.000              0.000              0.000
 Translational            0.889              2.981             41.617
 Rotational               0.889              2.981             31.714
 Vibrational            131.980             41.433             40.782
 Vibration     1          0.594              1.981              5.289
 Vibration     2          0.596              1.976              4.659
 Vibration     3          0.597              1.971              4.283
 Vibration     4          0.609              1.933              3.104
 Vibration     5          0.616              1.908              2.741
 Vibration     6          0.617              1.907              2.729
 Vibration     7          0.623              1.887              2.509
 Vibration     8          0.641              1.831              2.075
 Vibration     9          0.659              1.775              1.784
 Vibration    10          0.680              1.711              1.534
 Vibration    11          0.712              1.619              1.268
 Vibration    12          0.730              1.568              1.151
 Vibration    13          0.746              1.522              1.057
 Vibration    14          0.779              1.435              0.905
 Vibration    15          0.810              1.357              0.791
 Vibration    16          0.838              1.290              0.704
 Vibration    17          0.918              1.113              0.519
 Vibration    18          0.940              1.068              0.479

 Optimization completed.
    -- Stationary point found.
 Normal termination of Gaussian 16 at Thu Dec 10 10:55:44 2020.

 ----------------------------------------------------------------------
 # B3LYP/6-311++G(d,p) empiricaldispersion=gd3bj scf=xqc pop=npa geom=c
 heck
 ----------------------------------------------------------------------

 --------------------------------------
 CID_84771050_JID_4873_Energie_neutraal
 --------------------------------------
 Structure from the checkpoint file:  "JID_4873.chk"
 Charge =  0 Multiplicity = 1

 SCF Done:  E(RB3LYP) =  -627.334738435     A.U. after   15 cycles
 Normal termination of Gaussian 16 at Thu Dec 10 10:58:57 2020.

 ----------------------------------------------------------------------
 # B3LYP/6-311++G(d,p) empiricaldispersion=gd3bj scf=xqc pop=npa geom=c
 heck
 ----------------------------------------------------------------------

 ------------------------------------
 CID_84771050_JID_4873_Energie_kation
 ------------------------------------
 Structure from the checkpoint file:  "JID_4873.chk"
 Charge =  1 Multiplicity = 2

 SCF Done:  E(UB3LYP) =  -627.009452439     A.U. after   25 cycles
 Normal termination of Gaussian 16 at Thu Dec 10 11:06:23 2020.
 Gaussian 16:  ES64L-G16RevA.03 25-Dec-2016

 ----------------------------------------------------------------------
 # B3LYP/6-311++G(d,p) empiricaldispersion=gd3bj scf=xqc pop=npa geom=c
 heck
 ----------------------------------------------------------------------

 -----------------------------------
 CID_84771050_JID_4873_Energie_anion
 -----------------------------------
 Structure from the checkpoint file:  "JID_4873.chk"
 Charge = -1 Multiplicity = 2

                         Standard orientation:
 ---------------------------------------------------------------------
 Center     Atomic      Atomic             Coordinates (Angstroms)
 Number     Number       Type             X           Y           Z
 ---------------------------------------------------------------------
      1          6           0        3.692581    0.489160    0.449077
      2          8           0        3.089440   -0.797225    0.286536
      3          6           0        1.770189   -0.832214    0.055508
      4          7           0        1.272962   -2.069560   -0.078743
      5          6           0       -0.035509   -2.118952   -0.308817
      6          6           0       -0.858006   -0.994485   -0.412790
      7          6           0       -0.224885    0.249093   -0.249567
      8          7           0        1.097638    0.315067   -0.017744
      9          6           0       -0.952481    1.533971   -0.319673
     10          6           0       -0.499238    2.681938    0.570954
     11          6           0       -0.246029    2.753264   -0.897087
     12          6           0       -2.338602   -1.150109   -0.695175
     13          6           0       -3.188942   -0.717217    0.422080
     14          7           0       -3.844183   -0.352278    1.307502
     15          1           0        4.749302    0.287168    0.627919
     16          1           0        3.255727    1.021995    1.298579
     17          1           0        3.566513    1.097791   -0.451061
     18          1           0       -0.463182   -3.115703   -0.421126
     19          1           0       -2.019743    1.464575   -0.493263
     20          1           0       -1.279525    3.299323    1.004873
     21          1           0        0.346952    2.471680    1.216498
     22          1           0        0.770971    2.592115   -1.239318
     23          1           0       -0.844412    3.426164   -1.503969
     24          1           0       -2.635751   -0.584516   -1.587636
     25          1           0       -2.561756   -2.202084   -0.907953
 ---------------------------------------------------------------------

 SCF Done:  E(UB3LYP) =  -627.334820318     A.U. after   33 cycles
 SCF Done:  E(UB3LYP) =  -627.334820319     a.u. after    1 cycles

 The electronic state is 2-A.
 Alpha  occ. eigenvalues --  -19.03208 -14.19725 -14.15043 -14.14475 -10.14435
 Alpha  occ. eigenvalues --  -10.11034 -10.10391 -10.09929 -10.05899 -10.05712
 Alpha  occ. eigenvalues --  -10.05363 -10.04805 -10.04802 -10.04731  -0.96156
 Alpha  occ. eigenvalues --   -0.82486  -0.79573  -0.75397  -0.72148  -0.69281
 Alpha  occ. eigenvalues --   -0.62401  -0.58421  -0.53853  -0.48531  -0.47892
 Alpha  occ. eigenvalues --   -0.45832  -0.42019  -0.40024  -0.38545  -0.36349
 Alpha  occ. eigenvalues --   -0.35849  -0.34727  -0.33487  -0.32590  -0.31069
 Alpha  occ. eigenvalues --   -0.28733  -0.27678  -0.25736  -0.25119  -0.24802
 Alpha  occ. eigenvalues --   -0.22764  -0.22328  -0.22010  -0.21361  -0.19052
 Alpha  occ. eigenvalues --   -0.18401  -0.16985  -0.14907  -0.10795  -0.10635
 Alpha  occ. eigenvalues --    0.05235
 Alpha virt. eigenvalues --    0.07655   0.08210   0.08805   0.10240   0.10672
 Alpha virt. eigenvalues --    0.11258   0.12100   0.12340   0.12791   0.13315
 Alpha virt. eigenvalues --    0.13671   0.14243   0.14535   0.15254   0.15736

  Beta  occ. eigenvalues --  -19.03222 -14.19701 -14.14784 -14.14122 -10.14489
  Beta  occ. eigenvalues --  -10.11032 -10.10372 -10.09932 -10.05434 -10.05414
  Beta  occ. eigenvalues --  -10.05403 -10.04941 -10.04724 -10.04638  -0.96147
  Beta  occ. eigenvalues --   -0.81993  -0.79536  -0.74887  -0.71740  -0.69181
  Beta  occ. eigenvalues --   -0.62257  -0.58123  -0.53247  -0.48422  -0.47690
  Beta  occ. eigenvalues --   -0.45645  -0.41900  -0.39929  -0.38379  -0.36265
  Beta  occ. eigenvalues --   -0.35759  -0.34615  -0.33398  -0.32474  -0.30896
  Beta  occ. eigenvalues --   -0.27872  -0.27412  -0.25684  -0.25007  -0.24683
  Beta  occ. eigenvalues --   -0.22660  -0.22142  -0.21850  -0.20822  -0.18150
  Beta  occ. eigenvalues --   -0.17980  -0.16598  -0.13538  -0.10275  -0.09907
  Beta virt. eigenvalues --    0.07916   0.08254   0.08992   0.10282   0.10738
  Beta virt. eigenvalues --    0.11288   0.11392   0.12143   0.12409   0.13045
  Beta virt. eigenvalues --    0.13326   0.13619   0.14559   0.14566   0.15306

 Mulliken charges and spin densities:
               1          2
     1  C   -0.220719  -0.035028
     2  O   -0.125653  -0.002268
     3  C    0.093381  -0.036230
     4  N   -0.292714   0.154820
     5  C   -0.138181   0.342012
     6  C   -0.305029   0.290422
     7  C    0.316286  -0.185462
     8  N   -0.121780   0.123539
     9  C   -0.361657   0.505431
    10  C   -0.513542   0.030233
    11  C    0.328819  -0.792286
    12  C   -0.052202  -0.183469
    13  C    0.154083  -0.327166
    14  N   -0.354909   0.008290
    15  H    0.129434  -0.003082
    16  H    0.145715   0.014178
    17  H    0.151372   0.008400
    18  H    0.117855  -0.001277
    19  H    0.064362   0.183738
    20  H    0.149639  -0.025921
    21  H    0.125082   0.016869
    22  H    0.170278  -0.029356
    23  H   -0.389395   0.525488
    24  H   -0.218703   0.398910
    25  H    0.148178   0.019214
 Sum of Mulliken charges =  -1.00000   1.00000

 Dipole moment (field-independent basis, Debye):
    X=              2.8101    Y=              0.6462    Z=             -0.2456  Tot=              2.8939
 Quadrupole moment (field-independent basis, Debye-Ang):
   XX=           -121.3508   YY=           -113.3460   ZZ=           -100.4788
   XY=             13.1433   XZ=              6.8452   YZ=              8.2655

 Summary of Natural Population Analysis:

                                       Natural Population
                Natural  -----------------------------------------------
    Atom  No    Charge         Core      Valence    Rydberg      Total
 -----------------------------------------------------------------------
      C    1   -0.10039      0.99961     2.09273    0.00805     3.10039
      O    2   -0.27452      0.99984     3.26519    0.00949     4.27452
      C    3    0.35343      0.99954     1.62666    0.02036     2.64657
      N    4   -0.22684      0.99966     2.71502    0.01216     3.72684
      C    5    0.09923      0.99955     1.88680    0.01442     2.90077
      C    6   -0.09915      0.99944     2.08972    0.01000     3.09915
      C    7    0.21030      0.99948     1.77595    0.01426     2.78970
      N    8   -0.26830      0.99963     2.75980    0.00887     3.76830
      C    9   -0.13564      0.99957     2.12469    0.01138     3.13564
      C   10   -0.18015      0.99962     2.17292    0.00760     3.18015
      C   11   -0.18199      0.99963     2.17418    0.00818     3.18199
      C   12   -0.24678      0.99952     2.23921    0.00805     3.24678
      C   13    0.16560      0.99966     1.81741    0.01734     2.83440
      N   14   -0.19509      0.99979     2.68375    0.01155     3.69509
      H   15    0.08131      0.00000     0.41787    0.00082     0.41869
      H   16    0.08808      0.00000     0.41080    0.00112     0.41192
      H   17    0.08791      0.00000     0.41081    0.00128     0.41209
      H   18    0.07557      0.00000     0.42278    0.00166     0.42443
      H   19    0.10363      0.00000     0.39408    0.00229     0.39637
      H   20    0.09531      0.00000     0.40384    0.00085     0.40469
      H   21    0.10571      0.00000     0.39313    0.00116     0.39429
      H   22    0.10591      0.00000     0.39293    0.00116     0.39409
      H   23    0.09739      0.00000     0.40122    0.00139     0.40261
      H   24    0.12128      0.00000     0.37679    0.00193     0.37872
      H   25    0.11819      0.00000     0.38045    0.00136     0.38181
 =======================================================================
   * Total *    0.00000     13.99454    35.82872    0.17674    50.00000

 Normal termination of Gaussian 16 at Thu Dec 10 11:15:46 2020.
