 Gaussian 16, Revision A.03,

 -----------------------------------------------------------
 # opt freq B3LYP/6-31G(d) empiricaldispersion=gd3bj scf=xqc
 -----------------------------------------------------------

 -------------------------------
 CID_129690640_JID_3066_neutraal
 -------------------------------
 Symbolic Z-matrix:
 Charge =  0 Multiplicity = 1

 SCF Done:  E(RB3LYP) =  -611.246697073     A.U. after   24 cycles
 SCF Done:  E(RB3LYP) =  -611.302215137     A.U. after   17 cycles
 SCF Done:  E(RB3LYP) =  -611.356154849     A.U. after   15 cycles
 SCF Done:  E(RB3LYP) =  -611.373170990     A.U. after   14 cycles
 SCF Done:  E(RB3LYP) =  -611.383230045     A.U. after   14 cycles
 SCF Done:  E(RB3LYP) =  -611.388785976     A.U. after   13 cycles
 SCF Done:  E(RB3LYP) =  -611.388682441     A.U. after   13 cycles
 SCF Done:  E(RB3LYP) =  -611.388987858     A.U. after   13 cycles
 SCF Done:  E(RB3LYP) =  -611.389577636     A.U. after   13 cycles
 SCF Done:  E(RB3LYP) =  -611.389532492     A.U. after   12 cycles
 SCF Done:  E(RB3LYP) =  -611.389721507     A.U. after   11 cycles
 SCF Done:  E(RB3LYP) =  -611.389722087     A.U. after   10 cycles
 SCF Done:  E(RB3LYP) =  -611.389722290     A.U. after    8 cycles
 SCF Done:  E(RB3LYP) =  -611.389722289     A.U. after    8 cycles
 SCF Done:  E(RB3LYP) =  -611.389722300     A.U. after    8 cycles
 Optimization completed.
    -- Stationary point found.

 1\1\GINC-NODE305\FOpt\RB3LYP\6-31G(d)\C10H8O3\VSC10255\09-Dec-2020\0\\
 # opt freq B3LYP/6-31G(d) empiricaldispersion=gd3bj scf=xqc\\CID_12969
 0640_JID_3066_neutraal\\0,1\C,-0.7139298115,1.2653670773,0.1693964086\
 C,-0.68708377,0.4246199444,1.2062429915\C,0.3467258758,-0.5194430712,0
 .6012641339\C,-0.0402761546,-1.5567989301,-0.4456683266\C,-0.052085715
 8,-0.7075688644,-1.4768446135\C,0.328154827,0.5273097749,-0.6679890703
 \C,1.5692266976,0.2330097445,0.1708268942\C,2.1576272556,1.3143149505,
 1.0520814909\O,2.3687697788,1.1419826356,2.2325086531\C,2.4361798155,2

 Normal termination of Gaussian 16 at Wed Dec  9 22:25:34 2020.

 --------------------------------------------------------------------
 #N Geom=AllCheck Guess=TCheck SCRF=Check GenChk RB3LYP/6-31G(d) Freq
 --------------------------------------------------------------------

 Structure from the checkpoint file:  "JID_3066.chk"
 -------------------------------
 CID_129690640_JID_3066_neutraal
 -------------------------------
 Charge =  0 Multiplicity = 1

 SCF Done:  E(RB3LYP) =  -611.389722300     A.U. after    1 cycles

  Exact polarizability:  99.057   4.521 100.011 -10.230   0.916  85.770
 Approx polarizability: 145.083  27.904 172.727 -29.532 -16.575 153.592

                      1                      2                      3
                      A                      A                      A
 Frequencies --     16.7278                38.7375                59.3784
 Red. masses --      5.8941                 5.3368                 7.7797
 Frc consts  --      0.0010                 0.0047                 0.0162
 IR Inten    --      0.9165                 0.4535                 3.4446

                      4                      5                      6
                      A                      A                      A
 Frequencies --    110.5399               150.4609               188.4449
 Red. masses --      5.9807                 4.4489                 5.3742
 Frc consts  --      0.0431                 0.0593                 0.1124
 IR Inten    --      1.0489                 0.6153                 4.2885

                      7                      8                      9
                      A                      A                      A
 Frequencies --    308.6387               348.0884               355.3939
 Red. masses --      3.5655                 4.2054                 2.6093
 Frc consts  --      0.2001                 0.3002                 0.1942
 IR Inten    --      0.4679                 1.8504                 0.0788

                     10                     11                     12
                      A                      A                      A
 Frequencies --    380.1602               423.7201               469.1440
 Red. masses --      3.6114                 3.7863                 4.4514
 Frc consts  --      0.3075                 0.4005                 0.5772
 IR Inten    --      0.7606                 4.8518                 3.7225

                     13                     14                     15
                      A                      A                      A
 Frequencies --    495.3301               520.9918               595.7946
 Red. masses --      2.6491                 2.9547                 3.2499
 Frc consts  --      0.3829                 0.4725                 0.6797
 IR Inten    --      2.8901                16.6036               127.2072

                     16                     17                     18
                      A                      A                      A
 Frequencies --    632.4522               657.9653               691.7731
 Red. masses --      3.7217                 4.6765                 1.5938
 Frc consts  --      0.8771                 1.1928                 0.4494
 IR Inten    --      6.2578                18.9121               106.1969

                     19                     20                     21
                      A                      A                      A
 Frequencies --    743.1566               770.8992               778.9425
 Red. masses --      3.5566                 1.4339                 5.0494
 Frc consts  --      1.1573                 0.5021                 1.8051
 IR Inten    --      9.1423                 6.5798                 2.8318

                     22                     23                     24
                      A                      A                      A
 Frequencies --    804.8659               835.8762               870.0090
 Red. masses --      1.7316                 3.0324                 4.6711
 Frc consts  --      0.6609                 1.2483                 2.0831
 IR Inten    --     93.1940                 5.2023                15.1522

                     25                     26                     27
                      A                      A                      A
 Frequencies --    916.5289               921.8036               924.9295
 Red. masses --      1.5127                 2.4372                 1.8637
 Frc consts  --      0.7487                 1.2202                 0.9394
 IR Inten    --      0.7511                10.2322                 2.7576

                     28                     29                     30
                      A                      A                      A
 Frequencies --    930.0632               969.5829              1025.9121
 Red. masses --      2.6061                 2.8639                 1.7722
 Frc consts  --      1.3282                 1.5863                 1.0989
 IR Inten    --      9.8612                 9.0922                 0.9968

                     31                     32                     33
                      A                      A                      A
 Frequencies --   1070.3425              1099.5200              1132.5028
 Red. masses --      5.2706                 1.2143                 1.2525
 Frc consts  --      3.5576                 0.8649                 0.9465
 IR Inten    --      3.0317                 6.2649                 0.4894

                     34                     35                     36
                      A                      A                      A
 Frequencies --   1150.8590              1155.1775              1176.2900
 Red. masses --      2.0298                 1.7597                 2.8461
 Frc consts  --      1.5840                 1.3835                 2.3202
 IR Inten    --    111.3202                 5.7981               122.3512

                     37                     38                     39
                      A                      A                      A
 Frequencies --   1180.5863              1222.5534              1230.7139
 Red. masses --      3.9744                 1.4508                 2.2412
 Frc consts  --      3.2637                 1.2776                 2.0001
 IR Inten    --     41.7519                56.5780                16.3225

                     40                     41                     42
                      A                      A                      A
 Frequencies --   1297.1618              1304.2296              1305.8779
 Red. masses --      1.5328                 1.8197                 1.4927
 Frc consts  --      1.5196                 1.8237                 1.4998
 IR Inten    --     36.0182                 6.7183                18.2828

                     43                     44                     45
                      A                      A                      A
 Frequencies --   1393.6193              1411.0106              1465.9272
 Red. masses --      2.8933                 2.4564                 1.1335
 Frc consts  --      3.3108                 2.8815                 1.4352
 IR Inten    --      9.2719               112.2681                22.1977

                     46                     47                     48
                      A                      A                      A
 Frequencies --   1628.3157              1650.1422              1824.7384
 Red. masses --      5.6416                 5.9462                12.3711
 Frc consts  --      8.8132                 9.5396                24.2695
 IR Inten    --      1.4297                 1.8274               146.6707

                     49                     50                     51
                      A                      A                      A
 Frequencies --   1842.8283              3073.2198              3121.4520
 Red. masses --      9.7685                 1.0602                 1.1017
 Frc consts  --     19.5455                 5.8995                 6.3245
 IR Inten    --    236.6866                 0.2443                 2.8727

                     52                     53                     54
                      A                      A                      A
 Frequencies --   3178.3223              3183.5107              3186.3621
 Red. masses --      1.0865                 1.0850                 1.0835
 Frc consts  --      6.4666                 6.4788                 6.4814
 IR Inten    --      3.2415                11.8726                17.5216

                     55                     56                     57
                      A                      A                      A
 Frequencies --   3215.9457              3221.3404              3678.4617
 Red. masses --      1.1140                 1.1128                 1.0639
 Frc consts  --      6.7880                 6.8033                 8.4814
 IR Inten    --     66.4675                24.6642                49.9365

 - Thermochemistry -
 -------------------
 Temperature   298.150 Kelvin.  Pressure   1.00000 Atm.
 Atom     1 has atomic number  6 and mass  12.00000

 Molecular mass:   176.04734 amu.
 Principal axes and moments of inertia in atomic units:
                           1         2         3
     Eigenvalues --  1314.514982785.620543201.17228
           X            0.99993  -0.00801  -0.00856
           Y            0.00838   0.99897   0.04465
           Z            0.00819  -0.04472   0.99897
 This molecule is an asymmetric top.
 Rotational symmetry number  1.
 Warning -- assumption of classical behavior for rotation
           may cause significant error
 Rotational temperatures (Kelvin)      0.06589     0.03109     0.02706
 Rotational constants (GHZ):           1.37293     0.64788     0.56378
 Zero-point vibrational energy     408748.0 (Joules/Mol)
                                   97.69311 (Kcal/Mol)
 Warning -- explicit consideration of  15 degrees of freedom as
           vibrations may cause significant error
 Vibrational temperatures:     24.07    55.73    85.43   159.04   216.48
          (Kelvin)            271.13   444.06   500.82   511.33   546.97
                              609.64   674.99   712.67   749.59   857.22
                              909.96   946.67   995.31  1069.24  1109.15
                             1120.72  1158.02  1202.64  1251.75  1318.68
                             1326.27  1330.77  1338.15  1395.01  1476.06
                             1539.98  1581.96  1629.42  1655.83  1662.04
                             1692.42  1698.60  1758.98  1770.72  1866.33
                             1876.50  1878.87  2005.11  2030.13  2109.14
                             2342.78  2374.19  2625.39  2651.42  4421.68
                             4491.07  4572.90  4580.36  4584.46  4627.03
                             4634.79  5292.49

 Zero-point correction=                           0.155684 (Hartree/Particle)
 Thermal correction to Energy=                    0.167005
 Thermal correction to Enthalpy=                  0.167949
 Thermal correction to Gibbs Free Energy=         0.116202
 Sum of electronic and zero-point Energies=           -611.234038
 Sum of electronic and thermal Energies=              -611.222717
 Sum of electronic and thermal Enthalpies=            -611.221773
 Sum of electronic and thermal Free Energies=         -611.273520

                     E (Thermal)             CV                S
                      KCal/Mol        Cal/Mol-Kelvin    Cal/Mol-Kelvin
 Total                  104.797             42.430            108.911
 Electronic               0.000              0.000              0.000
 Translational            0.889              2.981             41.404
 Rotational               0.889              2.981             30.839
 Vibrational            103.020             36.468             36.668
 Vibration     1          0.593              1.986              6.989
 Vibration     2          0.594              1.981              5.323
 Vibration     3          0.597              1.974              4.478
 Vibration     4          0.606              1.941              3.259
 Vibration     5          0.618              1.902              2.666
 Vibration     6          0.633              1.856              2.243
 Vibration     7          0.698              1.657              1.370
 Vibration     8          0.726              1.579              1.175
 Vibration     9          0.731              1.564              1.142
 Vibration    10          0.750              1.512              1.039
 Vibration    11          0.786              1.419              0.879
 Vibration    12          0.826              1.319              0.740
 Vibration    13          0.851              1.260              0.670
 Vibration    14          0.876              1.204              0.608
 Vibration    15          0.954              1.041              0.457

                           ! Non-Optimized Parameters !

 1\1\GINC-NODE305\Freq\RB3LYP\6-31G(d)\C10H8O3\VSC10255\09-Dec-2020\0\\
 #N Geom=AllCheck Guess=TCheck SCRF=Check GenChk RB3LYP/6-31G(d) Freq\\
 CID_129690640_JID_3066_neutraal\\0,1\C,-0.7139298115,1.2653670773,0.16
 93964086\C,-0.68708377,0.4246199444,1.2062429915\C,0.3467258758,-0.519
 4430712,0.6012641339\C,-0.0402761546,-1.5567989301,-0.4456683266\C,-0.
 0520857158,-0.7075688644,-1.4768446135\C,0.328154827,0.5273097749,-0.6
 679890703\C,1.5692266976,0.2330097445,0.1708268942\C,2.1576272556,1.31
 43149505,1.0520814909\O,2.3687697788,1.1419826356,2.2325086531\C,2.436

 Normal termination of Gaussian 16 at Wed Dec  9 22:30:26 2020.

 ----------------------------------------------------------------------
 # B3LYP/6-311++G(d,p) empiricaldispersion=gd3bj scf=xqc pop=npa geom=c
 heck
 ----------------------------------------------------------------------

 ---------------------------------------
 CID_129690640_JID_3066_Energie_neutraal
 ---------------------------------------
 Structure from the checkpoint file:  "JID_3066.chk"
 Charge =  0 Multiplicity = 1

 SCF Done:  E(RB3LYP) =  -611.569516577     A.U. after   15 cycles
 Normal termination of Gaussian 16 at Wed Dec  9 22:32:04 2020.

 ----------------------------------------------------------------------
 # B3LYP/6-311++G(d,p) empiricaldispersion=gd3bj scf=xqc pop=npa geom=c
 heck
 ----------------------------------------------------------------------

 -------------------------------------
 CID_129690640_JID_3066_Energie_kation
 -------------------------------------
 Structure from the checkpoint file:  "JID_3066.chk"
 Charge =  1 Multiplicity = 2

 SCF Done:  E(UB3LYP) =  -611.269838508     A.U. after   23 cycles
 Normal termination of Gaussian 16 at Wed Dec  9 22:35:15 2020.
 Gaussian 16:  ES64L-G16RevA.03 25-Dec-2016

 ------------------------------------
 CID_129690640_JID_3066_Energie_anion
 ------------------------------------
 Structure from the checkpoint file:  "JID_3066.chk"
 Charge = -1 Multiplicity = 2

                         Standard orientation:
 ---------------------------------------------------------------------
 Center     Atomic      Atomic             Coordinates (Angstroms)
 Number     Number       Type             X           Y           Z
 ---------------------------------------------------------------------
      1          6           0        1.398643    0.072856    1.621374
      2          6           0        2.166327    0.933070    0.948083
      3          6           0        1.951866    0.283362   -0.414966
      4          6           0        2.709565   -0.973611   -0.824669
      5          6           0        1.926717   -1.825045   -0.156190
      6          6           0        0.990132   -0.764832    0.411712
      7          6           0        0.490317    0.138345   -0.712983
      8          6           0       -0.473678    1.264120   -0.404132
      9          8           0       -0.259198    2.408496   -0.738931
     10          6           0       -1.719493    0.886653    0.390959
     11          6           0       -2.349360   -0.412445   -0.057364
     12          8           0       -2.297828   -0.864509   -1.180115
     13          8           0       -3.026319   -1.014381    0.946476
     14          1           0        1.077708   -0.016263    2.655934
     15          1           0        2.708431    1.839442    1.199164
     16          1           0        3.555001   -1.077560   -1.498627
     17          1           0        1.880187   -2.906316   -0.061969
     18          1           0        0.224356   -0.383484   -1.629902
     19          1           0       -1.446762    0.814387    1.450217
     20          1           0       -2.451792    1.695211    0.293837
     21          1           0       -3.426587   -1.817097    0.560961
 ---------------------------------------------------------------------

 SCF Done:  E(UB3LYP) =  -611.561234111     A.U. after   33 cycles
 SCF Done:  E(UB3LYP) =  -611.561234111     a.u. after    1 cycles

 The electronic state is 2-A.
 Alpha  occ. eigenvalues --  -19.05616 -19.00449 -18.98587 -10.19778 -10.13262
 Alpha  occ. eigenvalues --  -10.08585 -10.08233 -10.08123 -10.07387 -10.07009
 Alpha  occ. eigenvalues --  -10.06925 -10.06842 -10.06733  -0.99847  -0.92376
 Alpha  occ. eigenvalues --   -0.90998  -0.83134  -0.67373  -0.66696  -0.62126
 Alpha  occ. eigenvalues --   -0.53453  -0.52272  -0.48947  -0.45366  -0.41844
 Alpha  occ. eigenvalues --   -0.39212  -0.38934  -0.37716  -0.36745  -0.35371
 Alpha  occ. eigenvalues --   -0.34372  -0.33972  -0.33227  -0.30998  -0.29392
 Alpha  occ. eigenvalues --   -0.28414  -0.26215  -0.24629  -0.22194  -0.21723
 Alpha  occ. eigenvalues --   -0.21342  -0.19111  -0.17459  -0.14936  -0.13316
 Alpha  occ. eigenvalues --   -0.09814   0.05094
 Alpha virt. eigenvalues --    0.07133   0.07659   0.08367   0.08836   0.09322
 Alpha virt. eigenvalues --    0.09920   0.10287   0.11254   0.12010   0.12523
 Alpha virt. eigenvalues --    0.13431   0.13713   0.14943   0.15580   0.16471

  Beta  occ. eigenvalues --  -19.05544 -19.00438 -18.98371 -10.19763 -10.13075
  Beta  occ. eigenvalues --  -10.08501 -10.08238 -10.08103 -10.07377 -10.06949
  Beta  occ. eigenvalues --  -10.06865 -10.06791 -10.06674  -0.99766  -0.91974
  Beta  occ. eigenvalues --   -0.90926  -0.83036  -0.67215  -0.66536  -0.61924
  Beta  occ. eigenvalues --   -0.53269  -0.52001  -0.48782  -0.45180  -0.41621
  Beta  occ. eigenvalues --   -0.39074  -0.38802  -0.37656  -0.36557  -0.35222
  Beta  occ. eigenvalues --   -0.34257  -0.33811  -0.33076  -0.30777  -0.29237
  Beta  occ. eigenvalues --   -0.28333  -0.26088  -0.23659  -0.21991  -0.21632
  Beta  occ. eigenvalues --   -0.21225  -0.18715  -0.17403  -0.14606  -0.13074
  Beta  occ. eigenvalues --   -0.09646
  Beta virt. eigenvalues --    0.07976   0.08197   0.08565   0.08895   0.09568
  Beta virt. eigenvalues --    0.09580   0.10512   0.10564   0.11494   0.12394
  Beta virt. eigenvalues --    0.12526   0.13756   0.13804   0.14889   0.15575

 Mulliken charges and spin densities:
               1          2
     1  C   -0.457523   0.038359
     2  C    0.014588  -0.398392
     3  C    0.268230   0.218242
     4  C   -0.337152  -0.073869
     5  C   -0.412989   0.159195
     6  C    0.439089   0.064860
     7  C    0.104021  -0.268313
     8  C   -0.529468   0.616370
     9  O   -0.297065   0.073783
    10  C    0.689848  -1.038750
    11  C    0.454286  -0.587984
    12  O   -0.294767   0.040252
    13  O   -0.196063   0.117815
    14  H   -0.207613   0.353377
    15  H    0.085339   0.051307
    16  H    0.130522  -0.006179
    17  H   -0.013480   0.150938
    18  H    0.297429  -0.026538
    19  H   -0.052325   0.326590
    20  H   -0.004044   0.214337
    21  H   -0.680863   0.974597
 Sum of Mulliken charges =  -1.00000   1.00000

 Dipole moment (field-independent basis, Debye):
    X=              5.1159    Y=              1.2695    Z=             -1.2006  Tot=              5.4061
 Quadrupole moment (field-independent basis, Debye-Ang):
   XX=           -119.0869   YY=           -108.6820   ZZ=            -98.3521
   XY=            -13.0025   XZ=              2.7559   YZ=              4.6244

 Summary of Natural Population Analysis:

                                       Natural Population
                Natural  -----------------------------------------------
    Atom  No    Charge         Core      Valence    Rydberg      Total
 -----------------------------------------------------------------------
      C    1   -0.08617      0.99946     2.07489    0.01182     3.08617
      C    2   -0.08494      0.99947     2.07423    0.01124     3.08494
      C    3   -0.03407      0.99944     2.02237    0.01225     3.03407
      C    4   -0.08794      0.99947     2.07851    0.00996     3.08794
      C    5   -0.08108      0.99946     2.06918    0.01243     3.08108
      C    6   -0.03792      0.99945     2.02522    0.01324     3.03792
      C    7   -0.12049      0.99944     2.10482    0.01623     3.12049
      C    8    0.31994      0.99964     1.65748    0.02295     2.68006
      O    9   -0.26251      0.99987     3.25652    0.00612     4.26251
      C   10   -0.28511      0.99953     2.27599    0.00959     3.28511
      C   11    0.41186      0.99973     1.56342    0.02499     2.58814
      O   12   -0.31026      0.99987     3.30442    0.00597     4.31026
      O   13   -0.34016      0.99988     3.33315    0.00714     4.34016
      H   14    0.09613      0.00000     0.40261    0.00126     0.40387
      H   15    0.09454      0.00000     0.40435    0.00111     0.40546
      H   16    0.09137      0.00000     0.40746    0.00117     0.40863
      H   17    0.09339      0.00000     0.40542    0.00119     0.40661
      H   18    0.13006      0.00000     0.36891    0.00104     0.36994
      H   19    0.12813      0.00000     0.36944    0.00244     0.37187
      H   20    0.12077      0.00000     0.37827    0.00096     0.37923
      H   21    0.24447      0.00000     0.21775    0.03778     0.25553
 =======================================================================
   * Total *   -0.00000     12.99471    32.79441    0.21088    46.00000

 Normal termination of Gaussian 16 at Wed Dec  9 22:39:49 2020.
