 Gaussian 16, Revision A.03,

 -----------------------------------------------------------
 # opt freq B3LYP/6-31G(d) empiricaldispersion=gd3bj scf=xqc
 -----------------------------------------------------------

 --------------------------------
 CID_135715522_JID_10059_neutraal
 --------------------------------
 Symbolic Z-matrix:
 Charge =  0 Multiplicity = 1

 SCF Done:  E(RB3LYP) =  -1223.39648299     A.U. after   15 cycles
 SCF Done:  E(RB3LYP) =  -1223.40027034     A.U. after   13 cycles
 SCF Done:  E(RB3LYP) =  -1223.40083919     A.U. after   13 cycles
 SCF Done:  E(RB3LYP) =  -1223.40235841     A.U. after   12 cycles
 SCF Done:  E(RB3LYP) =  -1223.40291936     A.U. after   13 cycles
 SCF Done:  E(RB3LYP) =  -1223.40334874     A.U. after   12 cycles
 SCF Done:  E(RB3LYP) =  -1223.40351716     A.U. after   12 cycles
 SCF Done:  E(RB3LYP) =  -1223.40356753     A.U. after   11 cycles
 SCF Done:  E(RB3LYP) =  -1223.40359670     A.U. after   12 cycles
 SCF Done:  E(RB3LYP) =  -1223.40361195     A.U. after   11 cycles
 SCF Done:  E(RB3LYP) =  -1223.40361832     A.U. after   11 cycles
 SCF Done:  E(RB3LYP) =  -1223.40362302     A.U. after   10 cycles
 SCF Done:  E(RB3LYP) =  -1223.40362390     A.U. after    9 cycles
 SCF Done:  E(RB3LYP) =  -1223.40362428     A.U. after    8 cycles
 SCF Done:  E(RB3LYP) =  -1223.40362434     A.U. after    7 cycles
 Optimization completed.
    -- Stationary point found.
 Normal termination of Gaussian 16 at Sun Dec 13 16:38:12 2020.

 --------------------------------------------------------------------
 #N Geom=AllCheck Guess=TCheck SCRF=Check GenChk RB3LYP/6-31G(d) Freq
 --------------------------------------------------------------------

 Structure from the checkpoint file:  "JID_10059.chk"
 --------------------------------
 CID_135715522_JID_10059_neutraal
 --------------------------------
 Charge =  0 Multiplicity = 1

 SCF Done:  E(RB3LYP) =  -1223.40362434     A.U. after    1 cycles

  Exact polarizability: 283.534 -20.287 194.055  34.517   8.643 125.163
 Approx polarizability: 370.078 -44.433 370.709  59.739  28.955 211.579

                      1                      2                      3
                      A                      A                      A
 Frequencies --     14.4627                26.9722                48.8548
 Red. masses --      5.4038                 4.7677                 4.9202
 Frc consts  --      0.0007                 0.0020                 0.0069
 IR Inten    --      0.0102                 0.1634                 0.3829

                      4                      5                      6
                      A                      A                      A
 Frequencies --     54.2213                82.9664                86.8425
 Red. masses --      4.8551                 6.5503                 4.9970
 Frc consts  --      0.0084                 0.0266                 0.0222
 IR Inten    --      0.0140                 6.9597                 0.4313

                      7                      8                      9
                      A                      A                      A
 Frequencies --     88.0714               129.9302               158.6107
 Red. masses --      3.6818                 4.6379                 5.3322
 Frc consts  --      0.0168                 0.0461                 0.0790
 IR Inten    --      4.0631                 0.6609                 0.5757

                     10                     11                     12
                      A                      A                      A
 Frequencies --    208.9417               220.7516               239.9121
 Red. masses --      5.1917                 4.1143                 2.5033
 Frc consts  --      0.1335                 0.1181                 0.0849
 IR Inten    --      1.1921                 0.9599                 3.1452

                     13                     14                     15
                      A                      A                      A
 Frequencies --    251.1518               284.5040               323.4356
 Red. masses --      1.8342                 2.3026                 4.6510
 Frc consts  --      0.0682                 0.1098                 0.2867
 IR Inten    --      2.2421                 2.3226                 1.4576

                     16                     17                     18
                      A                      A                      A
 Frequencies --    332.8570               377.5084               422.5891
 Red. masses --      3.3282                 3.8166                 3.1502
 Frc consts  --      0.2173                 0.3205                 0.3315
 IR Inten    --      3.9223                 1.7570                 2.3238

                     19                     20                     21
                      A                      A                      A
 Frequencies --    429.7860               446.3641               452.0940
 Red. masses --      3.2058                 4.3393                 3.2508
 Frc consts  --      0.3489                 0.5094                 0.3915
 IR Inten    --      2.2609                 4.8599                 4.4973

                     22                     23                     24
                      A                      A                      A
 Frequencies --    477.2129               487.4554               521.6102
 Red. masses --      4.5498                 3.9085                 4.2519
 Frc consts  --      0.6105                 0.5472                 0.6816
 IR Inten    --      5.2879                10.0430                 0.8430

                     25                     26                     27
                      A                      A                      A
 Frequencies --    528.7078               544.3217               572.3990
 Red. masses --      3.5556                 4.0045                 2.3941
 Frc consts  --      0.5856                 0.6991                 0.4622
 IR Inten    --     11.1894                 3.6654                11.2628

                     28                     29                     30
                      A                      A                      A
 Frequencies --    579.5399               654.8271               656.3210
 Red. masses --      6.2362                 6.1372                 2.8470
 Frc consts  --      1.2341                 1.5505                 0.7226
 IR Inten    --      9.5678                 0.7615                12.7314

                     31                     32                     33
                      A                      A                      A
 Frequencies --    670.2993               698.7052               719.8048
 Red. masses --      1.3796                 4.9542                 3.8334
 Frc consts  --      0.3652                 1.4250                 1.1702
 IR Inten    --     80.4674                12.7522                13.0226

                     34                     35                     36
                      A                      A                      A
 Frequencies --    737.2105               750.6445               777.1799
 Red. masses --      3.6535                 4.0081                 1.3312
 Frc consts  --      1.1699                 1.3306                 0.4737
 IR Inten    --      6.8238                10.5762                42.2115

                     37                     38                     39
                      A                      A                      A
 Frequencies --    824.9820               832.2462               836.2442
 Red. masses --      1.3525                 2.0950                 3.6253
 Frc consts  --      0.5423                 0.8550                 1.4937
 IR Inten    --      4.2080                60.1207                 2.8479

                     40                     41                     42
                      A                      A                      A
 Frequencies --    851.6007               857.4340               875.3324
 Red. masses --      1.6988                 2.3438                 1.4592
 Frc consts  --      0.7259                 1.0153                 0.6587
 IR Inten    --     17.3322                53.6801                 1.3327

                     43                     44                     45
                      A                      A                      A
 Frequencies --    880.0402               940.4486               955.9875
 Red. masses --      2.1645                 1.3131                 1.4569
 Frc consts  --      0.9877                 0.6842                 0.7845
 IR Inten    --     24.1955                 0.2219                10.0623

                     46                     47                     48
                      A                      A                      A
 Frequencies --    959.6063               975.4481               981.8626
 Red. masses --      2.2601                 1.3117                 1.2576
 Frc consts  --      1.2262                 0.7353                 0.7143
 IR Inten    --     11.6536                 8.2086                 0.3619

                     49                     50                     51
                      A                      A                      A
 Frequencies --   1022.8955              1034.4818              1048.1653
 Red. masses --      2.3738                 2.8576                 3.7939
 Frc consts  --      1.4634                 1.8017                 2.4558
 IR Inten    --     28.7344                 1.6190                14.5079

                     52                     53                     54
                      A                      A                      A
 Frequencies --   1067.1523              1083.5148              1094.5369
 Red. masses --      2.1827                 6.1542                 2.6288
 Frc consts  --      1.4645                 4.2569                 1.8556
 IR Inten    --      7.4207                59.6442                 5.1888

                     55                     56                     57
                      A                      A                      A
 Frequencies --   1143.9170              1152.7010              1186.5966
 Red. masses --      1.5872                 1.4036                 1.2715
 Frc consts  --      1.2237                 1.0988                 1.0548
 IR Inten    --     13.4901                 5.8027                 0.7580

                     58                     59                     60
                      A                      A                      A
 Frequencies --   1190.2661              1213.1837              1215.8790
 Red. masses --      1.1204                 1.5175                 1.2264
 Frc consts  --      0.9352                 1.3159                 1.0682
 IR Inten    --     24.5971                60.7942                45.6191

                     61                     62                     63
                      A                      A                      A
 Frequencies --   1219.5154              1224.8913              1240.2428
 Red. masses --      1.4287                 1.5413                 2.5084
 Frc consts  --      1.2519                 1.3625                 2.2733
 IR Inten    --     27.3479                52.3833                 3.3607

                     64                     65                     66
                      A                      A                      A
 Frequencies --   1261.9374              1281.0691              1289.5337
 Red. masses --      1.7836                 1.6117                 3.1212
 Frc consts  --      1.6735                 1.5584                 3.0580
 IR Inten    --     79.6633               157.2253                72.5005

                     67                     68                     69
                      A                      A                      A
 Frequencies --   1306.5618              1353.0620              1353.6836
 Red. masses --      4.0367                 2.5263                 1.8487
 Frc consts  --      4.0601                 2.7250                 1.9960
 IR Inten    --    260.8755                30.0041                 5.0502

                     70                     71                     72
                      A                      A                      A
 Frequencies --   1363.4967              1375.2512              1388.9134
 Red. masses --      2.5944                 3.3455                 1.4393
 Frc consts  --      2.8418                 3.7280                 1.6359
 IR Inten    --     56.3146                92.2099                47.4456

                     73                     74                     75
                      A                      A                      A
 Frequencies --   1405.9002              1422.0904              1473.1323
 Red. masses --      1.4280                 1.4558                 2.8040
 Frc consts  --      1.6630                 1.7346                 3.5851
 IR Inten    --     20.3552                28.1913                 0.3232

                     76                     77                     78
                      A                      A                      A
 Frequencies --   1500.6492              1506.8166              1511.1802
 Red. masses --      1.2013                 1.5524                 1.2256
 Frc consts  --      1.5939                 2.0767                 1.6490
 IR Inten    --     16.0494                12.7345                21.1347

                     79                     80                     81
                      A                      A                      A
 Frequencies --   1513.4207              1521.3769              1530.3580
 Red. masses --      1.2174                 1.0478                 2.2681
 Frc consts  --      1.6429                 1.4289                 3.1296
 IR Inten    --     18.0153                 5.7005                36.2387

                     82                     83                     84
                      A                      A                      A
 Frequencies --   1535.5134              1539.6264              1571.1698
 Red. masses --      1.0743                 1.6492                 2.4451
 Frc consts  --      1.4925                 2.3033                 3.5563
 IR Inten    --     59.1851               141.1437               113.0378

                     85                     86                     87
                      A                      A                      A
 Frequencies --   1633.3738              1635.4991              1676.1760
 Red. masses --      4.8951                 6.3185                 5.6066
 Frc consts  --      7.6945                 9.9579                 9.2808
 IR Inten    --     45.8729                13.2120                80.7520

                     88                     89                     90
                      A                      A                      A
 Frequencies --   1678.3900              3025.0845              3051.3398
 Red. masses --      5.7399                 1.0350                 1.0600
 Frc consts  --      9.5266                 5.5802                 5.8148
 IR Inten    --     64.9464                60.4341                23.1707

                     91                     92                     93
                      A                      A                      A
 Frequencies --   3081.9369              3083.4271              3099.7755
 Red. masses --      1.0787                 1.1066                 1.0931
 Frc consts  --      6.0364                 6.1988                 6.1880
 IR Inten    --      5.6833                44.1690                34.3341

                     94                     95                     96
                      A                      A                      A
 Frequencies --   3160.7522              3168.4742              3174.5594
 Red. masses --      1.0995                 1.0982                 1.0893
 Frc consts  --      6.4720                 6.4956                 6.4677
 IR Inten    --     28.8049                15.8388                14.1271

                     97                     98                     99
                      A                      A                      A
 Frequencies --   3190.0245              3193.7551              3209.6205
 Red. masses --      1.0898                 1.0866                 1.0897
 Frc consts  --      6.5340                 6.5299                 6.6137
 IR Inten    --      2.3697                 5.0644                12.2063

                    100                    101                    102
                      A                      A                      A
 Frequencies --   3219.5068              3219.9944              3225.2290
 Red. masses --      1.0930                 1.0930                 1.0963
 Frc consts  --      6.6748                 6.6771                 6.7192
 IR Inten    --      4.6254                10.0872                11.1644

                    103                    104                    105
                      A                      A                      A
 Frequencies --   3228.2558              3520.5168              3580.9579
 Red. masses --      1.0911                 1.0751                 1.0657
 Frc consts  --      6.6993                 7.8510                 8.0513
 IR Inten    --     13.2760                53.3488               160.7857

 - Thermochemistry -
 -------------------
 Temperature   298.150 Kelvin.  Pressure   1.00000 Atm.
 Atom     1 has atomic number  6 and mass  12.00000

 Molecular mass:   287.09800 amu.
 Principal axes and moments of inertia in atomic units:
                           1         2         3
     Eigenvalues --  2214.98533********************
           X            0.99998   0.00165   0.00593
           Y           -0.00176   0.99984   0.01780
           Z           -0.00590  -0.01781   0.99982
 This molecule is an asymmetric top.
 Rotational symmetry number  1.
 Warning -- assumption of classical behavior for rotation
           may cause significant error
 Rotational temperatures (Kelvin)      0.03910     0.00633     0.00596
 Rotational constants (GHZ):           0.81479     0.13189     0.12425
 Zero-point vibrational energy     795681.9 (Joules/Mol)
                                  190.17255 (Kcal/Mol)
 Warning -- explicit consideration of  28 degrees of freedom as
           vibrations may cause significant error
 Vibrational temperatures:     20.81    38.81    70.29    78.01   119.37
          (Kelvin)            124.95   126.72   186.94   228.21   300.62
                              317.61   345.18   361.35   409.34   465.35
                              478.91   543.15   608.01   618.37   642.22
                              650.46   686.60   701.34   750.48   760.69
                              783.16   823.55   833.83   942.15   944.30
                              964.41  1005.28  1035.64  1060.68  1080.01
                             1118.19  1186.97  1197.42  1203.17  1225.26
                             1233.66  1259.41  1266.18  1353.10  1375.45
                             1380.66  1403.45  1412.68  1471.72  1488.39
                             1508.08  1535.39  1558.94  1574.79  1645.84
                             1658.48  1707.25  1712.53  1745.50  1749.38
                             1754.61  1762.35  1784.43  1815.65  1843.17
                             1855.35  1879.85  1946.75  1947.65  1961.77
                             1978.68  1998.34  2022.78  2046.07  2119.51
                             2159.10  2167.97  2174.25  2177.47  2188.92
                             2201.84  2209.26  2215.18  2260.56  2350.06
                             2353.12  2411.64  2414.83  4352.42  4390.20
                             4434.22  4436.36  4459.89  4547.62  4558.73
                             4567.48  4589.73  4595.10  4617.93  4632.15
                             4632.85  4640.39  4644.74  5065.24  5152.20

 Zero-point correction=                           0.303059 (Hartree/Particle)
 Thermal correction to Energy=                    0.321119
 Thermal correction to Enthalpy=                  0.322063
 Thermal correction to Gibbs Free Energy=         0.254420
 Sum of electronic and zero-point Energies=          -1223.100565
 Sum of electronic and thermal Energies=             -1223.082506
 Sum of electronic and thermal Enthalpies=           -1223.081561
 Sum of electronic and thermal Free Energies=        -1223.149205

                     E (Thermal)             CV                S
                      KCal/Mol        Cal/Mol-Kelvin    Cal/Mol-Kelvin
 Total                  201.505             69.738            142.367
 Electronic               0.000              0.000              0.000
 Translational            0.889              2.981             42.862
 Rotational               0.889              2.981             34.442
 Vibrational            199.728             63.777             65.064
 Vibration     1          0.593              1.986              7.278
 Vibration     2          0.593              1.984              6.041
 Vibration     3          0.595              1.978              4.863
 Vibration     4          0.596              1.976              4.657
 Vibration     5          0.600              1.961              3.819
 Vibration     6          0.601              1.958              3.730
 Vibration     7          0.601              1.958              3.702
 Vibration     8          0.612              1.923              2.947
 Vibration     9          0.621              1.893              2.566
 Vibration    10          0.642              1.827              2.053
 Vibration    11          0.647              1.809              1.953
 Vibration    12          0.657              1.779              1.804
 Vibration    13          0.663              1.761              1.722
 Vibration    14          0.683              1.702              1.506
 Vibration    15          0.708              1.629              1.293
 Vibration    16          0.715              1.610              1.246
 Vibration    17          0.748              1.518              1.049
 Vibration    18          0.785              1.421              0.883
 Vibration    19          0.791              1.405              0.859
 Vibration    20          0.806              1.369              0.807
 Vibration    21          0.811              1.356              0.789
 Vibration    22          0.834              1.301              0.718
 Vibration    23          0.843              1.278              0.690
 Vibration    24          0.877              1.202              0.606
 Vibration    25          0.884              1.186              0.590
 Vibration    26          0.899              1.152              0.556
 Vibration    27          0.929              1.091              0.500
 Vibration    28          0.936              1.076              0.486

 Optimization completed.
    -- Stationary point found.
 Normal termination of Gaussian 16 at Sun Dec 13 16:56:41 2020.

 ----------------------------------------------------------------------
 # B3LYP/6-311++G(d,p) empiricaldispersion=gd3bj scf=xqc pop=npa geom=c
 heck
 ----------------------------------------------------------------------

 ----------------------------------------
 CID_135715522_JID_10059_Energie_neutraal
 ----------------------------------------
 Structure from the checkpoint file:  "JID_10059.chk"
 Charge =  0 Multiplicity = 1

 SCF Done:  E(RB3LYP) =  -1223.65756875     A.U. after   17 cycles
 Normal termination of Gaussian 16 at Sun Dec 13 17:06:11 2020.

 ----------------------------------------------------------------------
 # B3LYP/6-311++G(d,p) empiricaldispersion=gd3bj scf=xqc pop=npa geom=c
 heck
 ----------------------------------------------------------------------

 --------------------------------------
 CID_135715522_JID_10059_Energie_kation
 --------------------------------------
 Structure from the checkpoint file:  "JID_10059.chk"
 Charge =  1 Multiplicity = 2

 SCF Done:  E(UB3LYP) =  -1223.37943427     A.U. after   33 cycles
 SCF Done:  E(UB3LYP) =  -1223.37943427     a.u. after    1 cycles
 Normal termination of Gaussian 16 at Sun Dec 13 17:33:11 2020.
 Gaussian 16:  ES64L-G16RevA.03 25-Dec-2016

 ----------------------------------------------------------------------
 # B3LYP/6-311++G(d,p) empiricaldispersion=gd3bj scf=xqc pop=npa geom=c
 heck
 ----------------------------------------------------------------------

 -------------------------------------
 CID_135715522_JID_10059_Energie_anion
 -------------------------------------
 Structure from the checkpoint file:  "JID_10059.chk"
 Charge = -1 Multiplicity = 2

                         Standard orientation:
 ---------------------------------------------------------------------
 Center     Atomic      Atomic             Coordinates (Angstroms)
 Number     Number       Type             X           Y           Z
 ---------------------------------------------------------------------
      1          6           0       -6.666966   -0.148431   -0.489220
      2          8           0       -5.587204    0.742186   -0.265192
      3          6           0       -4.382352    0.209332    0.088261
      4          6           0       -3.346374    1.128890    0.300481
      5          6           0       -2.082556    0.685001    0.667646
      6          6           0       -1.812273   -0.684039    0.829185
      7          6           0       -2.855704   -1.586780    0.612481
      8          6           0       -4.133827   -1.158536    0.247481
      9          6           0       -0.421023   -1.171082    1.157352
     10          6           0        0.438209   -1.407404   -0.099233
     11          7           0        0.645834   -0.166948   -0.872384
     12          6           0        1.545318    0.803068   -0.474542
     13         16           0        1.163248    2.419007   -0.576371
     14          6           0        2.875672    0.315653   -0.054777
     15          6           0        3.553623    0.938562    1.007234
     16          6           0        4.822423    0.531046    1.392034
     17          6           0        5.454649   -0.500818    0.687812
     18          6           0        4.820695   -1.116344   -0.383996
     19          6           0        3.531554   -0.723040   -0.760939
     20          8           0        2.983097   -1.363687   -1.826438
     21          1           0       -7.520398    0.476124   -0.757940
     22          1           0       -6.908100   -0.724445    0.413987
     23          1           0       -6.451961   -0.843468   -1.311736
     24          1           0       -3.555437    2.186060    0.174056
     25          1           0       -1.291183    1.413571    0.824383
     26          1           0       -2.675279   -2.652598    0.735193
     27          1           0       -4.917924   -1.890852    0.096160
     28          1           0        0.099526   -0.450411    1.799401
     29          1           0       -0.470070   -2.117560    1.709606
     30          1           0        1.410364   -1.813673    0.179095
     31          1           0       -0.052041   -2.127752   -0.761708
     32          1           0       -0.230583    0.247054   -1.183693
     33          1           0        3.049487    1.749198    1.522416
     34          1           0        5.320591    1.013933    2.226425
     35          1           0        6.451958   -0.823173    0.973510
     36          1           0        5.301512   -1.905013   -0.953080
     37          1           0        2.093187   -0.990948   -1.987957
 ---------------------------------------------------------------------

 SCF Done:  E(UB3LYP) =  -1223.68065054     A.U. after   31 cycles

 The electronic state is 2-A.
 Alpha  occ. eigenvalues --  -88.62962 -19.08002 -19.01534 -14.19510 -10.16074
 Alpha  occ. eigenvalues --  -10.14956 -10.09664 -10.09171 -10.09117 -10.08951
 Alpha  occ. eigenvalues --  -10.08474 -10.08103 -10.07650 -10.07170 -10.06558
 Alpha  occ. eigenvalues --  -10.03778 -10.03757 -10.03607 -10.03535 -10.03125
 Alpha  occ. eigenvalues --   -7.71738  -5.68058  -5.67701  -5.67310  -0.99661
 Alpha  occ. eigenvalues --   -0.93026  -0.80971  -0.76949  -0.71722  -0.69524
 Alpha  occ. eigenvalues --   -0.66707  -0.65238  -0.63139  -0.60933  -0.60417
 Alpha  occ. eigenvalues --   -0.56833  -0.53023  -0.51973  -0.50249  -0.48758
 Alpha  occ. eigenvalues --   -0.47013  -0.45806  -0.43801  -0.41164  -0.40855
 Alpha  occ. eigenvalues --   -0.40348  -0.38375  -0.36669  -0.35940  -0.35753
 Alpha  occ. eigenvalues --   -0.34690  -0.34026  -0.33397  -0.32314  -0.31547
 Alpha  occ. eigenvalues --   -0.29980  -0.29794  -0.29166  -0.28231  -0.27948
 Alpha  occ. eigenvalues --   -0.26648  -0.26251  -0.24655  -0.24356  -0.23979
 Alpha  occ. eigenvalues --   -0.23366  -0.22384  -0.21174  -0.20514  -0.18652
 Alpha  occ. eigenvalues --   -0.16926  -0.13787  -0.12322  -0.09884  -0.08717
 Alpha  occ. eigenvalues --   -0.05517   0.03239
 Alpha virt. eigenvalues --    0.04845   0.06961   0.07083   0.08108   0.08596
 Alpha virt. eigenvalues --    0.08806   0.08972   0.09439   0.10192   0.10444
 Alpha virt. eigenvalues --    0.10894   0.11155   0.12086   0.12134   0.12616

  Beta  occ. eigenvalues --  -88.62870 -19.08001 -19.01503 -14.19411 -10.16074
  Beta  occ. eigenvalues --  -10.14955 -10.09515 -10.09130 -10.09109 -10.08951
  Beta  occ. eigenvalues --  -10.08475 -10.08100 -10.07633 -10.07157 -10.05838
  Beta  occ. eigenvalues --  -10.03817 -10.03659 -10.03622 -10.03506 -10.02944
  Beta  occ. eigenvalues --   -7.71655  -5.68026  -5.67396  -5.67256  -0.99659
  Beta  occ. eigenvalues --   -0.92925  -0.80514  -0.76918  -0.71485  -0.69456
  Beta  occ. eigenvalues --   -0.66649  -0.65068  -0.62775  -0.60770  -0.60279
  Beta  occ. eigenvalues --   -0.56388  -0.52965  -0.51857  -0.49837  -0.48684
  Beta  occ. eigenvalues --   -0.46907  -0.45793  -0.43430  -0.41131  -0.40678
  Beta  occ. eigenvalues --   -0.40345  -0.38322  -0.36563  -0.35831  -0.35658
  Beta  occ. eigenvalues --   -0.34391  -0.33963  -0.33318  -0.32194  -0.31364
  Beta  occ. eigenvalues --   -0.29888  -0.29728  -0.29004  -0.28081  -0.27594
  Beta  occ. eigenvalues --   -0.26557  -0.26179  -0.24633  -0.24259  -0.23833
  Beta  occ. eigenvalues --   -0.23095  -0.21945  -0.20531  -0.19830  -0.17572
  Beta  occ. eigenvalues --   -0.16798  -0.13706  -0.11567  -0.09347  -0.07300
  Beta  occ. eigenvalues --   -0.05183
  Beta virt. eigenvalues --    0.04820   0.06938   0.07094   0.08093   0.08555
  Beta virt. eigenvalues --    0.08772   0.08879   0.09368   0.09454   0.10338
  Beta virt. eigenvalues --    0.10419   0.10930   0.11188   0.12051   0.12453

 Mulliken charges and spin densities:
               1          2
     1  C   -0.313712  -0.002880
     2  O   -0.151639   0.000278
     3  C   -0.690839  -0.011238
     4  C   -0.445316   0.014365
     5  C   -0.003097  -0.021113
     6  C    1.018488  -0.006445
     7  C   -0.493111  -0.000049
     8  C    0.156787   0.006729
     9  C   -0.505740   0.001684
    10  C   -0.291103  -0.042107
    11  N   -0.236540   0.042798
    12  C   -0.488002   0.308088
    13  S   -0.864735   0.301827
    14  C    1.905768   0.042839
    15  C   -0.544232   0.147900
    16  C   -0.437968  -0.071782
    17  C   -0.309490   0.179265
    18  C   -0.264394  -0.035188
    19  C   -0.567308   0.016593
    20  O   -0.264595   0.011232
    21  H    0.162276   0.001482
    22  H    0.140138   0.001046
    23  H    0.144270   0.000177
    24  H    0.186706   0.002137
    25  H    0.107425   0.042084
    26  H    0.127363   0.002147
    27  H    0.161287   0.002109
    28  H    0.222961  -0.003886
    29  H    0.142162   0.014245
    30  H    0.165475  -0.000492
    31  H    0.151558   0.021329
    32  H    0.261876   0.032044
    33  H    0.111549   0.000286
    34  H    0.122797   0.003740
    35  H    0.110964  -0.014102
    36  H    0.139112   0.003494
    37  H    0.332858   0.009359
 Sum of Mulliken charges =  -1.00000   1.00000

 Dipole moment (field-independent basis, Debye):
    X=            -10.3657    Y=             -6.4080    Z=              1.9281  Tot=             12.3381
 Quadrupole moment (field-independent basis, Debye-Ang):
   XX=           -172.6343   YY=           -152.8737   ZZ=           -141.9440
   XY=              1.8417   XZ=              8.0768   YZ=              3.5468

 Summary of Natural Population Analysis:

                                       Natural Population
                Natural  -----------------------------------------------
    Atom  No    Charge         Core      Valence    Rydberg      Total
 -----------------------------------------------------------------------
      C    1   -0.10130      0.99961     2.09353    0.00816     3.10130
      O    2   -0.27424      0.99985     3.26512    0.00927     4.27424
      C    3    0.15257      0.99939     1.83660    0.01145     2.84743
      C    4   -0.11540      0.99953     2.10715    0.00872     3.11540
      C    5   -0.09211      0.99952     2.08413    0.00846     3.09211
      C    6   -0.02930      0.99950     2.01927    0.01052     3.02930
      C    7   -0.09498      0.99953     2.08702    0.00843     3.09498
      C    8   -0.14932      0.99953     2.14219    0.00760     3.14932
      C    9   -0.20148      0.99960     2.19475    0.00714     3.20148
      C   10   -0.08204      0.99961     2.07015    0.01228     3.08204
      N   11   -0.32976      0.99967     2.81675    0.01334     3.82976
      C   12    0.16163      0.99957     1.81802    0.02078     2.83837
      S   13   -0.09325      4.99953     3.07935    0.01436     8.09325
      C   14   -0.10013      0.99942     2.08838    0.01233     3.10013
      C   15   -0.03899      0.99954     2.03082    0.00863     3.03899
      C   16   -0.14774      0.99957     2.13862    0.00956     3.14774
      C   17   -0.05461      0.99958     2.04591    0.00912     3.05461
      C   18   -0.14955      0.99953     2.14054    0.00948     3.14955
      C   19    0.19350      0.99936     1.79528    0.01186     2.80650
      O   20   -0.35264      0.99987     3.34642    0.00635     4.35264
      H   21    0.09103      0.00000     0.40822    0.00075     0.40897
      H   22    0.08136      0.00000     0.41717    0.00146     0.41864
      H   23    0.08234      0.00000     0.41621    0.00145     0.41766
      H   24    0.10643      0.00000     0.39211    0.00145     0.39357
      H   25    0.12150      0.00000     0.37678    0.00172     0.37850
      H   26    0.09622      0.00000     0.40255    0.00124     0.40378
      H   27    0.09923      0.00000     0.39973    0.00105     0.40077
      H   28    0.10940      0.00000     0.38942    0.00119     0.39060
      H   29    0.09723      0.00000     0.40180    0.00097     0.40277
      H   30    0.10623      0.00000     0.39288    0.00090     0.39377
      H   31    0.08803      0.00000     0.41103    0.00094     0.41197
      H   32    0.19257      0.00000     0.30537    0.00206     0.30743
      H   33    0.10464      0.00000     0.39430    0.00106     0.39536
      H   34    0.09253      0.00000     0.40647    0.00101     0.40747
      H   35    0.08748      0.00000     0.41148    0.00104     0.41252
      H   36    0.09681      0.00000     0.40168    0.00150     0.40319
      H   37    0.24613      0.00000     0.24934    0.00452     0.25387
 =======================================================================
   * Total *    0.00000     23.99131    51.77654    0.23215    76.00000

 Normal termination of Gaussian 16 at Sun Dec 13 17:58:14 2020.
