 Gaussian 16, Revision A.03,

 -----------------------------------------------------------
 # opt freq B3LYP/6-31G(d) empiricaldispersion=gd3bj scf=xqc
 -----------------------------------------------------------

 -------------------------------
 CID_102789582_JID_6205_neutraal
 -------------------------------
 Symbolic Z-matrix:
 Charge =  0 Multiplicity = 1

 SCF Done:  E(RB3LYP) =  -731.683904172     A.U. after   12 cycles
 SCF Done:  E(RB3LYP) =  -731.690530669     A.U. after   11 cycles
 SCF Done:  E(RB3LYP) =  -731.691394300     A.U. after   11 cycles
 SCF Done:  E(RB3LYP) =  -731.692350931     A.U. after   10 cycles
 SCF Done:  E(RB3LYP) =  -731.693458090     A.U. after   11 cycles
 SCF Done:  E(RB3LYP) =  -731.693600108     A.U. after   11 cycles
 SCF Done:  E(RB3LYP) =  -731.694830239     A.U. after   11 cycles
 SCF Done:  E(RB3LYP) =  -731.694798276     A.U. after   11 cycles
 SCF Done:  E(RB3LYP) =  -731.695479131     A.U. after   11 cycles
 SCF Done:  E(RB3LYP) =  -731.695716124     A.U. after   10 cycles
 SCF Done:  E(RB3LYP) =  -731.696906765     A.U. after    7 cycles
 SCF Done:  E(RB3LYP) =  -731.696910597     A.U. after    8 cycles
 SCF Done:  E(RB3LYP) =  -731.696910749     A.U. after    7 cycles
 SCF Done:  E(RB3LYP) =  -731.696910572     A.U. after    7 cycles
 SCF Done:  E(RB3LYP) =  -731.696910965     A.U. after    7 cycles
 SCF Done:  E(RB3LYP) =  -731.696911149     A.U. after    7 cycles
 Optimization completed.
    -- Stationary point found.
 Normal termination of Gaussian 16 at Thu Dec 10 21:49:42 2020.

 --------------------------------------------------------------------
 #N Geom=AllCheck Guess=TCheck SCRF=Check GenChk RB3LYP/6-31G(d) Freq
 --------------------------------------------------------------------

 Structure from the checkpoint file:  "JID_6205.chk"
 -------------------------------
 CID_102789582_JID_6205_neutraal
 -------------------------------
 Charge =  0 Multiplicity = 1

 SCF Done:  E(RB3LYP) =  -731.696911149     A.U. after    1 cycles

  Exact polarizability: 156.120  -3.248 140.952  -5.195  -2.765 124.229
 Approx polarizability: 193.967  -4.374 200.300  -0.978  -3.277 189.237

                      1                      2                      3
                      A                      A                      A
 Frequencies --     35.1726                48.9214                52.0152
 Red. masses --      4.2558                 3.2240                 4.2171
 Frc consts  --      0.0031                 0.0045                 0.0067
 IR Inten    --      0.2012                 0.2419                 0.0803

                      4                      5                      6
                      A                      A                      A
 Frequencies --     89.5004                99.0938               122.3956
 Red. masses --      2.9902                 3.4123                 3.1686
 Frc consts  --      0.0141                 0.0197                 0.0280
 IR Inten    --      1.1291                 1.2763                 2.6901

                      7                      8                      9
                      A                      A                      A
 Frequencies --    152.0385               190.5740               192.8276
 Red. masses --      2.4119                 2.4604                 3.6218
 Frc consts  --      0.0328                 0.0526                 0.0793
 IR Inten    --      7.4723                21.3528                 0.4916

                     10                     11                     12
                      A                      A                      A
 Frequencies --    217.5976               226.3823               233.7064
 Red. masses --      1.5526                 1.8571                 1.6665
 Frc consts  --      0.0433                 0.0561                 0.0536
 IR Inten    --     28.1184                 4.8178                21.2148

                     13                     14                     15
                      A                      A                      A
 Frequencies --    251.2790               260.4625               268.1226
 Red. masses --      1.2695                 1.5485                 1.8578
 Frc consts  --      0.0472                 0.0619                 0.0787
 IR Inten    --     11.7098                57.2986                19.2903

                     16                     17                     18
                      A                      A                      A
 Frequencies --    293.6735               314.9286               349.2634
 Red. masses --      2.1813                 2.6442                 2.1860
 Frc consts  --      0.1108                 0.1545                 0.1571
 IR Inten    --      8.6876                 3.4774                 2.1600

                     19                     20                     21
                      A                      A                      A
 Frequencies --    359.3935               371.5028               415.9791
 Red. masses --      2.6146                 2.6029                 3.1852
 Frc consts  --      0.1990                 0.2117                 0.3247
 IR Inten    --      5.6476                10.1662                 3.1131

                     22                     23                     24
                      A                      A                      A
 Frequencies --    435.7846               505.6682               543.0435
 Red. masses --      3.2108                 2.6866                 2.8965
 Frc consts  --      0.3593                 0.4048                 0.5033
 IR Inten    --      1.4492                 8.6072                 0.4297

                     25                     26                     27
                      A                      A                      A
 Frequencies --    584.1837               619.7989               674.2020
 Red. masses --      2.1159                 3.9533                 3.3380
 Frc consts  --      0.4255                 0.8948                 0.8939
 IR Inten    --      2.7124                11.3542                 0.0515

                     28                     29                     30
                      A                      A                      A
 Frequencies --    692.5480               778.5739               794.5423
 Red. masses --      3.7465                 3.0337                 2.5094
 Frc consts  --      1.0587                 1.0835                 0.9334
 IR Inten    --      6.0437                 5.8153                 1.4893

                     31                     32                     33
                      A                      A                      A
 Frequencies --    833.6819               855.5496               862.9155
 Red. masses --      1.6176                 1.7852                 1.3742
 Frc consts  --      0.6624                 0.7699                 0.6029
 IR Inten    --      2.3036                 1.0618                88.0007

                     34                     35                     36
                      A                      A                      A
 Frequencies --    883.3508               891.1084               938.7248
 Red. masses --      2.1933                 2.3750                 1.9321
 Frc consts  --      1.0084                 1.1112                 1.0031
 IR Inten    --     13.0708                17.8813                 2.6987

                     37                     38                     39
                      A                      A                      A
 Frequencies --    942.4595               959.6154               969.2849
 Red. masses --      1.9411                 2.7373                 2.1340
 Frc consts  --      1.0159                 1.4852                 1.1812
 IR Inten    --     17.5279                18.0114                 5.9218

                     40                     41                     42
                      A                      A                      A
 Frequencies --    982.9973               983.5176              1003.4628
 Red. masses --      2.4918                 1.3190                 1.9939
 Frc consts  --      1.4186                 0.7517                 1.1829
 IR Inten    --     19.6135                 6.0200                 2.3377

                     43                     44                     45
                      A                      A                      A
 Frequencies --   1019.1781              1046.7605              1052.4141
 Red. masses --      1.6906                 1.6720                 1.6222
 Frc consts  --      1.0347                 1.0794                 1.0586
 IR Inten    --      1.9568                13.5860                 5.3823

                     46                     47                     48
                      A                      A                      A
 Frequencies --   1078.8762              1085.3981              1098.4166
 Red. masses --      4.4870                 2.6108                 2.9617
 Frc consts  --      3.0771                 1.8122                 2.1053
 IR Inten    --     57.0049                25.9232                 3.0371

                     49                     50                     51
                      A                      A                      A
 Frequencies --   1113.0714              1119.4765              1147.6906
 Red. masses --      2.9821                 2.2192                 2.3270
 Frc consts  --      2.1768                 1.6386                 1.8059
 IR Inten    --     44.8856                32.0294                 1.0630

                     52                     53                     54
                      A                      A                      A
 Frequencies --   1165.6387              1176.2512              1186.0797
 Red. masses --      1.8559                 1.9199                 1.7153
 Frc consts  --      1.4857                 1.5650                 1.4217
 IR Inten    --     10.0715                20.2269                10.3120

                     55                     56                     57
                      A                      A                      A
 Frequencies --   1202.4004              1216.8279              1237.9591
 Red. masses --      1.5259                 1.8425                 1.4397
 Frc consts  --      1.2998                 1.6073                 1.2999
 IR Inten    --     15.0132                17.7774                15.1455

                     58                     59                     60
                      A                      A                      A
 Frequencies --   1248.3036              1253.2709              1259.4180
 Red. masses --      1.3457                 1.4230                 1.8407
 Frc consts  --      1.2355                 1.3169                 1.7202
 IR Inten    --     22.7008                15.1606                 9.8652

                     61                     62                     63
                      A                      A                      A
 Frequencies --   1267.2145              1271.7254              1280.5398
 Red. masses --      1.2205                 1.5899                 1.5354
 Frc consts  --      1.1548                 1.5150                 1.4834
 IR Inten    --     15.0898                32.9579                25.7114

                     64                     65                     66
                      A                      A                      A
 Frequencies --   1298.7502              1319.6605              1327.7907
 Red. masses --      1.4331                 1.3242                 1.3057
 Frc consts  --      1.4242                 1.3587                 1.3563
 IR Inten    --      5.3719                 0.3411                 5.9005

                     67                     68                     69
                      A                      A                      A
 Frequencies --   1337.2176              1361.8662              1369.1559
 Red. masses --      1.3432                 1.2168                 1.2799
 Frc consts  --      1.4151                 1.3296                 1.4136
 IR Inten    --     10.3785                 0.6539                 1.7787

                     70                     71                     72
                      A                      A                      A
 Frequencies --   1380.9612              1393.6101              1396.6429
 Red. masses --      1.2916                 1.3218                 1.4473
 Frc consts  --      1.4512                 1.5126                 1.6633
 IR Inten    --      1.6969                12.4808                 9.1044

                     73                     74                     75
                      A                      A                      A
 Frequencies --   1406.0985              1412.1478              1413.6376
 Red. masses --      1.4308                 1.3836                 1.5868
 Frc consts  --      1.6667                 1.6257                 1.8683
 IR Inten    --     20.9129                 5.6151                14.2121

                     76                     77                     78
                      A                      A                      A
 Frequencies --   1426.4613              1438.2817              1444.4205
 Red. masses --      1.3991                 1.3344                 1.2652
 Frc consts  --      1.6774                 1.6264                 1.5552
 IR Inten    --      0.4443                 9.1339                 3.5089

                     79                     80                     81
                      A                      A                      A
 Frequencies --   1470.7275              1518.9545              1519.6612
 Red. masses --      1.4899                 1.0934                 1.0608
 Frc consts  --      1.8988                 1.4864                 1.4434
 IR Inten    --      0.4745                 4.5315                 8.6490

                     82                     83                     84
                      A                      A                      A
 Frequencies --   1522.6944              1525.8944              1530.1393
 Red. masses --      1.0860                 1.0892                 1.0550
 Frc consts  --      1.4835                 1.4942                 1.4554
 IR Inten    --      3.8840                 2.5195                 7.6362

                     85                     86                     87
                      A                      A                      A
 Frequencies --   1533.1387              1541.0322              1550.6414
 Red. masses --      1.0829                 1.0838                 1.0772
 Frc consts  --      1.4997                 1.5165                 1.5261
 IR Inten    --      3.8086                 1.6730                10.4906

                     88                     89                     90
                      A                      A                      A
 Frequencies --   1555.8027              1565.2428              1701.8851
 Red. masses --      1.1027                 1.0939                 1.0873
 Frc consts  --      1.5726                 1.5791                 1.8554
 IR Inten    --      4.8808                 1.8546                35.2032

                     91                     92                     93
                      A                      A                      A
 Frequencies --   2940.2758              2992.6449              2995.4583
 Red. masses --      1.0743                 1.0675                 1.0710
 Frc consts  --      5.4720                 5.6329                 5.6620
 IR Inten    --     80.9154                31.8260                51.7422

                     94                     95                     96
                      A                      A                      A
 Frequencies --   2995.9965              3003.1930              3011.4121
 Red. masses --      1.0691                 1.0609                 1.0827
 Frc consts  --      5.6540                 5.6378                 5.7850
 IR Inten    --     33.1164                72.2863                15.7809

                     97                     98                     99
                      A                      A                      A
 Frequencies --   3024.8316              3034.3925              3038.3474
 Red. masses --      1.0884                 1.0932                 1.0747
 Frc consts  --      5.8672                 5.9306                 5.8452
 IR Inten    --     22.0883               151.7782                16.9683

                    100                    101                    102
                      A                      A                      A
 Frequencies --   3047.4268              3052.3551              3060.8819
 Red. masses --      1.0712                 1.0434                 1.0744
 Frc consts  --      5.8613                 5.7275                 5.9310
 IR Inten    --     13.7388                46.7887                79.4560

                    103                    104                    105
                      A                      A                      A
 Frequencies --   3061.9656              3065.3611              3103.3275
 Red. masses --      1.0853                 1.0783                 1.0910
 Frc consts  --      5.9954                 5.9698                 6.1908
 IR Inten    --     10.1183                52.8077                 7.2093

                    106                    107                    108
                      A                      A                      A
 Frequencies --   3107.3736              3112.5848              3113.9286
 Red. masses --      1.1016                 1.1015                 1.0910
 Frc consts  --      6.2670                 6.2876                 6.2332
 IR Inten    --      2.7212                78.5747                39.0866

                    109                    110                    111
                      A                      A                      A
 Frequencies --   3120.5796              3126.2969              3141.7344
 Red. masses --      1.0951                 1.0994                 1.1003
 Frc consts  --      6.2830                 6.3308                 6.3991
 IR Inten    --     26.5846                42.9862                19.0663

                    112                    113                    114
                      A                      A                      A
 Frequencies --   3483.5774              3564.1390              3759.4435
 Red. masses --      1.0502                 1.0924                 1.0665
 Frc consts  --      7.5088                 8.1758                 8.8809
 IR Inten    --      0.6950                 0.2002                15.3342

 - Thermochemistry -
 -------------------
 Temperature   298.150 Kelvin.  Pressure   1.00000 Atm.
 Atom     1 has atomic number  6 and mass  12.00000

 Molecular mass:   228.18378 amu.
 Principal axes and moments of inertia in atomic units:
                           1         2         3
     Eigenvalues --  2299.770685164.179435788.94561
           X            0.99990   0.00070  -0.01433
           Y           -0.00107   0.99966  -0.02588
           Z            0.01431   0.02590   0.99956
 This molecule is an asymmetric top.
 Rotational symmetry number  1.
 Warning -- assumption of classical behavior for rotation
           may cause significant error
 Rotational temperatures (Kelvin)      0.03766     0.01677     0.01496
 Rotational constants (GHZ):           0.78475     0.34947     0.31176
 Zero-point vibrational energy     957172.8 (Joules/Mol)
                                  228.76980 (Kcal/Mol)
 Warning -- explicit consideration of  26 degrees of freedom as
           vibrations may cause significant error
 Vibrational temperatures:     50.61    70.39    74.84   128.77   142.57
          (Kelvin)            176.10   218.75   274.19   277.44   313.07
                              325.71   336.25   361.53   374.75   385.77
                              422.53   453.11   502.51   517.09   534.51
                              598.50   627.00   727.54   781.32   840.51
                              891.75   970.03   996.42  1120.19  1143.17
                             1199.48  1230.95  1241.54  1270.94  1282.11
                             1350.62  1355.99  1380.67  1394.58  1414.31
                             1415.06  1443.76  1466.37  1506.05  1514.19
                             1552.26  1561.65  1580.38  1601.46  1610.68
                             1651.27  1677.09  1692.36  1706.50  1729.99
                             1750.74  1781.15  1796.03  1803.18  1812.02
                             1823.24  1829.73  1842.41  1868.61  1898.70
                             1910.39  1923.96  1959.42  1969.91  1986.90
                             2005.09  2009.46  2023.06  2031.77  2033.91
                             2052.36  2069.37  2078.20  2116.05  2185.44
                             2186.45  2190.82  2195.42  2201.53  2205.84
                             2217.20  2231.03  2238.45  2252.04  2448.63
                             4230.40  4305.75  4309.80  4310.57  4320.92
                             4332.75  4352.06  4365.81  4371.50  4384.57
                             4391.66  4403.93  4405.49  4410.37  4465.00
                             4470.82  4478.32  4480.25  4489.82  4498.04
                             4520.26  5012.09  5128.00  5409.00

 Zero-point correction=                           0.364568 (Hartree/Particle)
 Thermal correction to Energy=                    0.381669
 Thermal correction to Enthalpy=                  0.382614
 Thermal correction to Gibbs Free Energy=         0.319901
 Sum of electronic and zero-point Energies=           -731.332343
 Sum of electronic and thermal Energies=              -731.315242
 Sum of electronic and thermal Enthalpies=            -731.314297
 Sum of electronic and thermal Free Energies=         -731.377010

                     E (Thermal)             CV                S
                      KCal/Mol        Cal/Mol-Kelvin    Cal/Mol-Kelvin
 Total                  239.501             65.352            131.990
 Electronic               0.000              0.000              0.000
 Translational            0.889              2.981             42.177
 Rotational               0.889              2.981             32.597
 Vibrational            237.724             59.390             57.216
 Vibration     1          0.594              1.982              5.514
 Vibration     2          0.595              1.978              4.861
 Vibration     3          0.596              1.977              4.739
 Vibration     4          0.602              1.957              3.671
 Vibration     5          0.604              1.950              3.472
 Vibration     6          0.610              1.930              3.062
 Vibration     7          0.619              1.900              2.647
 Vibration     8          0.634              1.853              2.222
 Vibration     9          0.635              1.850              2.200
 Vibration    10          0.646              1.814              1.979
 Vibration    11          0.650              1.801              1.907
 Vibration    12          0.654              1.789              1.850
 Vibration    13          0.663              1.761              1.722
 Vibration    14          0.669              1.745              1.659
 Vibration    15          0.673              1.732              1.608
 Vibration    16          0.688              1.686              1.453
 Vibration    17          0.702              1.645              1.336
 Vibration    18          0.727              1.577              1.170
 Vibration    19          0.734              1.556              1.125
 Vibration    20          0.743              1.531              1.074
 Vibration    21          0.779              1.436              0.906
 Vibration    22          0.796              1.392              0.840
 Vibration    23          0.861              1.237              0.644
 Vibration    24          0.898              1.155              0.559
 Vibration    25          0.941              1.066              0.478
 Vibration    26          0.980              0.990              0.417

 Optimization completed.
    -- Stationary point found.
 Normal termination of Gaussian 16 at Thu Dec 10 22:07:50 2020.

 ----------------------------------------------------------------------
 # B3LYP/6-311++G(d,p) empiricaldispersion=gd3bj scf=xqc pop=npa geom=c
 heck
 ----------------------------------------------------------------------

 ---------------------------------------
 CID_102789582_JID_6205_Energie_neutraal
 ---------------------------------------
 Structure from the checkpoint file:  "JID_6205.chk"
 Charge =  0 Multiplicity = 1

 SCF Done:  E(RB3LYP) =  -731.921348973     A.U. after   14 cycles
 Normal termination of Gaussian 16 at Thu Dec 10 22:16:55 2020.

 ----------------------------------------------------------------------
 # B3LYP/6-311++G(d,p) empiricaldispersion=gd3bj scf=xqc pop=npa geom=c
 heck
 ----------------------------------------------------------------------

 -------------------------------------
 CID_102789582_JID_6205_Energie_kation
 -------------------------------------
 Structure from the checkpoint file:  "JID_6205.chk"
 Charge =  1 Multiplicity = 2

 SCF Done:  E(UB3LYP) =  -731.654963823     A.U. after   21 cycles
 Normal termination of Gaussian 16 at Thu Dec 10 22:35:50 2020.
 Gaussian 16:  ES64L-G16RevA.03 25-Dec-2016

 ----------------------------------------------------------------------
 # B3LYP/6-311++G(d,p) empiricaldispersion=gd3bj scf=xqc pop=npa geom=c
 heck
 ----------------------------------------------------------------------

 ------------------------------------
 CID_102789582_JID_6205_Energie_anion
 ------------------------------------
 Structure from the checkpoint file:  "JID_6205.chk"
 Charge = -1 Multiplicity = 2

                         Standard orientation:
 ---------------------------------------------------------------------
 Center     Atomic      Atomic             Coordinates (Angstroms)
 Number     Number       Type             X           Y           Z
 ---------------------------------------------------------------------
      1          6           0       -3.800210    0.115173    1.018422
      2          6           0       -2.382382   -0.440263    0.907036
      3          6           0       -2.302405   -1.949432    0.622233
      4          6           0       -0.846497   -2.126940    0.195887
      5          7           0       -0.599186   -0.926982   -0.590609
      6          6           0       -1.470101    0.178998   -0.188729
      7          6           0       -2.185502    0.733068   -1.421963
      8          8           0       -2.691592    2.026744   -1.100128
      9          6           0        0.719430   -0.698291   -1.138547
     10          6           0        1.760599    0.101506   -0.309321
     11          6           0        1.618395    1.651868   -0.421838
     12          6           0        1.762879    2.151660    1.032963
     13          8           0        2.288917    1.055606    1.779981
     14          6           0        1.673105   -0.096628    1.216934
     15          6           0        3.173580   -0.275697   -0.810336
     16          7           0        3.484509   -1.694065   -0.597525
     17          1           0       -3.795781    1.195169    1.186997
     18          1           0       -4.327770   -0.367189    1.849567
     19          1           0       -4.377671   -0.074188    0.106721
     20          1           0       -1.873613   -0.265433    1.865686
     21          1           0       -2.575874   -2.558416    1.489774
     22          1           0       -2.972467   -2.214312   -0.205598
     23          1           0       -0.679335   -3.024158   -0.413513
     24          1           0       -0.196666   -2.216671    1.086590
     25          1           0       -0.919399    1.022210    0.251154
     26          1           0       -1.463116    0.790032   -2.250488
     27          1           0       -2.985226    0.044715   -1.734549
     28          1           0       -3.212463    2.341233   -1.853504
     29          1           0        1.152077   -1.683010   -1.338920
     30          1           0        0.628898   -0.192464   -2.112450
     31          1           0        2.406128    2.062447   -1.063700
     32          1           0        0.661787    1.951151   -0.856840
     33          1           0        0.782263    2.445807    1.440521
     34          1           0        2.450671    2.993237    1.149305
     35          1           0        0.625407   -0.164500    1.541926
     36          1           0        2.198553   -0.980388    1.588019
     37          1           0        3.210257   -0.084972   -1.890736
     38          1           0        3.898794    0.407264   -0.339743
     39          1           0        4.261997   -1.969477   -1.193125
     40          1           0        3.801337   -1.839684    0.358579
 ---------------------------------------------------------------------

 SCF Done:  E(UB3LYP) =  -731.909105961     A.U. after   29 cycles

 The electronic state is 2-A.
 Alpha  occ. eigenvalues --  -19.02953 -19.01872 -14.20001 -14.19642 -10.12228
 Alpha  occ. eigenvalues --  -10.11567 -10.10806 -10.09831 -10.09714 -10.09419
 Alpha  occ. eigenvalues --  -10.08997 -10.08409 -10.08111 -10.07335 -10.07326
 Alpha  occ. eigenvalues --  -10.06216  -0.94870  -0.91896  -0.83607  -0.78906
 Alpha  occ. eigenvalues --   -0.71665  -0.68847  -0.65676  -0.64707  -0.61314
 Alpha  occ. eigenvalues --   -0.57200  -0.55455  -0.54896  -0.50837  -0.48770
 Alpha  occ. eigenvalues --   -0.46038  -0.45046  -0.41991  -0.41657  -0.40594
 Alpha  occ. eigenvalues --   -0.39275  -0.38000  -0.36551  -0.36192  -0.35414
 Alpha  occ. eigenvalues --   -0.34550  -0.33377  -0.32939  -0.32562  -0.30968
 Alpha  occ. eigenvalues --   -0.30327  -0.29513  -0.28738  -0.27970  -0.27156
 Alpha  occ. eigenvalues --   -0.27024  -0.25437  -0.24962  -0.24602  -0.24039
 Alpha  occ. eigenvalues --   -0.22735  -0.22159  -0.21877  -0.21729  -0.17385
 Alpha  occ. eigenvalues --   -0.16694  -0.15031  -0.10490   0.04141
 Alpha virt. eigenvalues --    0.05549   0.06665   0.07425   0.08050   0.08220
 Alpha virt. eigenvalues --    0.08711   0.09561   0.09774   0.10469   0.10739
 Alpha virt. eigenvalues --    0.11305   0.11517   0.11912   0.12593   0.13495

  Beta  occ. eigenvalues --  -19.02952 -19.01829 -14.19997 -14.19598 -10.12223
  Beta  occ. eigenvalues --  -10.11554 -10.10781 -10.09828 -10.09708 -10.09397
  Beta  occ. eigenvalues --  -10.08990 -10.08410 -10.08108 -10.07328 -10.07317
  Beta  occ. eigenvalues --  -10.06199  -0.94866  -0.91802  -0.83595  -0.78838
  Beta  occ. eigenvalues --   -0.71645  -0.68827  -0.65645  -0.64687  -0.61284
  Beta  occ. eigenvalues --   -0.57152  -0.55401  -0.54846  -0.50814  -0.48741
  Beta  occ. eigenvalues --   -0.46010  -0.45014  -0.41934  -0.41622  -0.40548
  Beta  occ. eigenvalues --   -0.39243  -0.37960  -0.36529  -0.36137  -0.35394
  Beta  occ. eigenvalues --   -0.34529  -0.33348  -0.32918  -0.32541  -0.30943
  Beta  occ. eigenvalues --   -0.30305  -0.29489  -0.28707  -0.27953  -0.27128
  Beta  occ. eigenvalues --   -0.27008  -0.25400  -0.24945  -0.24589  -0.24021
  Beta  occ. eigenvalues --   -0.22718  -0.22141  -0.21849  -0.21714  -0.17344
  Beta  occ. eigenvalues --   -0.16684  -0.14990  -0.10478
  Beta virt. eigenvalues --    0.06237   0.06786   0.07349   0.07638   0.08411
  Beta virt. eigenvalues --    0.08610   0.08996   0.09690   0.10149   0.10735
  Beta virt. eigenvalues --    0.11103   0.11483   0.11645   0.12041   0.12799

 Mulliken charges and spin densities:
               1          2
     1  C    0.124559  -0.885681
     2  C   -0.595845   1.089118
     3  C    0.250438  -0.829098
     4  C   -0.505730   0.365407
     5  N    0.299615   0.048370
     6  C   -1.229934   0.154116
     7  C    1.510302  -1.572085
     8  O   -0.323117   0.110019
     9  C   -1.218982   0.373608
    10  C    0.523193   0.315377
    11  C    0.149969  -0.374564
    12  C    0.008826  -0.360949
    13  O   -0.032184   0.021152
    14  C   -0.574547  -0.079103
    15  C    0.841984  -1.473626
    16  N   -0.400756   0.052460
    17  H    0.071312   0.085437
    18  H   -0.041907   0.178703
    19  H   -0.087849   0.238840
    20  H    0.027586   0.129768
    21  H   -0.030119   0.187939
    22  H    0.196896  -0.050146
    23  H   -0.076004   0.219978
    24  H    0.126652  -0.022111
    25  H    0.502509  -0.353152
    26  H   -0.166909   0.323845
    27  H   -0.157239   0.338817
    28  H   -0.268165   0.539963
    29  H    0.313589  -0.097399
    30  H    0.022148   0.127437
    31  H    0.050007   0.128935
    32  H    0.035492   0.149599
    33  H    0.077092   0.083636
    34  H    0.054118   0.116046
    35  H    0.273365  -0.038368
    36  H   -0.127139   0.296255
    37  H   -0.343199   0.547243
    38  H   -0.026554   0.194384
    39  H   -0.263155   0.518227
    40  H    0.009683   0.201604
 Sum of Mulliken charges =  -1.00000   1.00000

 Dipole moment (field-independent basis, Debye):
    X=             -0.8453    Y=             -0.8553    Z=              3.6056  Tot=              3.8008
 Quadrupole moment (field-independent basis, Debye-Ang):
   XX=           -188.3150   YY=           -142.6646   ZZ=           -142.5762
   XY=             19.5377   XZ=             -4.0173   YZ=              3.4082

 Summary of Natural Population Analysis:

                                       Natural Population
                Natural  -----------------------------------------------
    Atom  No    Charge         Core      Valence    Rydberg      Total
 -----------------------------------------------------------------------
      C    1   -0.28449      0.99965     2.27973    0.00511     3.28449
      C    2   -0.10971      0.99958     2.09962    0.01050     3.10971
      C    3   -0.19113      0.99961     2.18391    0.00760     3.19113
      C    4   -0.07302      0.99962     2.06508    0.00832     3.07302
      N    5   -0.28837      0.99970     2.77636    0.01231     3.78837
      C    6   -0.01051      0.99956     1.99602    0.01492     3.01051
      C    7   -0.01270      0.99955     1.99922    0.01392     3.01270
      O    8   -0.37472      0.99989     3.36782    0.00701     4.37472
      C    9   -0.07988      0.99955     2.06761    0.01271     3.07988
      C   10   -0.06094      0.99955     2.04693    0.01445     3.06094
      C   11   -0.20488      0.99960     2.19668    0.00860     3.20488
      C   12   -0.01185      0.99960     2.00139    0.01085     3.01185
      O   13   -0.30074      0.99990     3.29259    0.00825     4.30074
      C   14   -0.01282      0.99952     1.99936    0.01394     3.01282
      C   15   -0.08740      0.99957     2.07401    0.01382     3.08740
      N   16   -0.42713      0.99977     2.91627    0.01110     3.92713
      H   17    0.10847      0.00000     0.39050    0.00104     0.39153
      H   18    0.09514      0.00000     0.40401    0.00085     0.40486
      H   19    0.09881      0.00000     0.40014    0.00105     0.40119
      H   20    0.09258      0.00000     0.40537    0.00205     0.40742
      H   21    0.09870      0.00000     0.40035    0.00095     0.40130
      H   22    0.09592      0.00000     0.40272    0.00136     0.40408
      H   23    0.09311      0.00000     0.40556    0.00132     0.40689
      H   24    0.07777      0.00000     0.42049    0.00175     0.42223
      H   25    0.08965      0.00000     0.40667    0.00368     0.41035
      H   26    0.08084      0.00000     0.41749    0.00166     0.41916
      H   27    0.07742      0.00000     0.42059    0.00199     0.42258
      H   28    0.23471      0.00000     0.25495    0.01034     0.26529
      H   29    0.11085      0.00000     0.38715    0.00200     0.38915
      H   30    0.09256      0.00000     0.40588    0.00156     0.40744
      H   31    0.10020      0.00000     0.39857    0.00123     0.39980
      H   32    0.10699      0.00000     0.39186    0.00115     0.39301
      H   33    0.07858      0.00000     0.41995    0.00147     0.42142
      H   34    0.08861      0.00000     0.41026    0.00112     0.41139
      H   35    0.08214      0.00000     0.41593    0.00193     0.41786
      H   36    0.09240      0.00000     0.40594    0.00166     0.40760
      H   37    0.09319      0.00000     0.40542    0.00139     0.40681
      H   38    0.08691      0.00000     0.41099    0.00210     0.41309
      H   39    0.18072      0.00000     0.31607    0.00322     0.31928
      H   40    0.17398      0.00000     0.32393    0.00209     0.32602
 =======================================================================
   * Total *    0.00000     15.99423    46.78340    0.22237    63.00000

 Normal termination of Gaussian 16 at Thu Dec 10 23:02:02 2020.
