 Gaussian 16, Revision A.03,

 -----------------------------------------------------------
 # opt freq B3LYP/6-31G(d) empiricaldispersion=gd3bj scf=xqc
 -----------------------------------------------------------

 ------------------------------
 CID_64795416_JID_9746_neutraal
 ------------------------------
 Symbolic Z-matrix:
 Charge =  0 Multiplicity = 1

 SCF Done:  E(RB3LYP) =  -880.777482752     A.U. after   15 cycles
 SCF Done:  E(RB3LYP) =  -880.768096438     A.U. after   14 cycles
 SCF Done:  E(RB3LYP) =  -880.784355542     A.U. after   12 cycles
 SCF Done:  E(RB3LYP) =  -880.785478100     A.U. after   13 cycles
 SCF Done:  E(RB3LYP) =  -880.783461492     A.U. after   14 cycles
 SCF Done:  E(RB3LYP) =  -880.787025874     A.U. after   12 cycles
 SCF Done:  E(RB3LYP) =  -880.787045307     A.U. after   12 cycles
 SCF Done:  E(RB3LYP) =  -880.787675625     A.U. after   13 cycles
 SCF Done:  E(RB3LYP) =  -880.789049371     A.U. after   12 cycles
 SCF Done:  E(RB3LYP) =  -880.789975027     A.U. after   13 cycles
 SCF Done:  E(RB3LYP) =  -880.795958650     A.U. after    9 cycles
 SCF Done:  E(RB3LYP) =  -880.795959556     A.U. after    8 cycles
 SCF Done:  E(RB3LYP) =  -880.795959950     A.U. after    8 cycles
 SCF Done:  E(RB3LYP) =  -880.795960042     A.U. after    8 cycles
 SCF Done:  E(RB3LYP) =  -880.795960069     A.U. after    7 cycles
 Optimization completed.
    -- Stationary point found.
 Normal termination of Gaussian 16 at Sun Dec 13 16:44:51 2020.

 --------------------------------------------------------------------
 #N Geom=AllCheck Guess=TCheck SCRF=Check GenChk RB3LYP/6-31G(d) Freq
 --------------------------------------------------------------------

 Structure from the checkpoint file:  "JID_9746.chk"
 ------------------------------
 CID_64795416_JID_9746_neutraal
 ------------------------------
 Charge =  0 Multiplicity = 1

 SCF Done:  E(RB3LYP) =  -880.795960069     A.U. after    1 cycles

  Exact polarizability: 194.977 -23.419 156.609 -13.719 -11.799 134.475
 Approx polarizability: 267.004 -56.176 251.760 -25.285 -29.499 220.853

                      1                      2                      3
                      A                      A                      A
 Frequencies --     20.1160                34.3537                42.5850
 Red. masses --      5.1897                 4.7939                 3.7607
 Frc consts  --      0.0012                 0.0033                 0.0040
 IR Inten    --      0.2761                 0.8416                 0.6939

                      4                      5                      6
                      A                      A                      A
 Frequencies --     56.9416                69.1837                74.4902
 Red. masses --      3.7501                 3.4181                 6.1881
 Frc consts  --      0.0072                 0.0096                 0.0202
 IR Inten    --      2.8683                 0.5790                 2.9304

                      7                      8                      9
                      A                      A                      A
 Frequencies --     75.5560               103.3086               141.7666
 Red. masses --      4.7913                 5.5389                 4.1733
 Frc consts  --      0.0161                 0.0348                 0.0494
 IR Inten    --      1.1426                 2.6618                 0.3736

                     10                     11                     12
                      A                      A                      A
 Frequencies --    190.9796               211.4648               232.1161
 Red. masses --      1.3192                 4.4273                 1.7042
 Frc consts  --      0.0283                 0.1166                 0.0541
 IR Inten    --      0.5409                 0.3750                 1.5460

                     13                     14                     15
                      A                      A                      A
 Frequencies --    235.9919               260.4773               278.0422
 Red. masses --      2.0633                 1.1624                 2.8062
 Frc consts  --      0.0677                 0.0465                 0.1278
 IR Inten    --      1.3847                 0.0416                 5.4191

                     16                     17                     18
                      A                      A                      A
 Frequencies --    291.4708               301.5274               325.2500
 Red. masses --      2.3967                 1.4741                 2.9520
 Frc consts  --      0.1200                 0.0790                 0.1840
 IR Inten    --      1.0499                 1.3086                32.3319

                     19                     20                     21
                      A                      A                      A
 Frequencies --    349.7131               359.0402               381.0611
 Red. masses --      2.8459                 2.6722                 2.3401
 Frc consts  --      0.2051                 0.2030                 0.2002
 IR Inten    --     57.7710                18.1743                13.7676

                     22                     23                     24
                      A                      A                      A
 Frequencies --    396.6350               398.7782               402.9086
 Red. masses --      2.4306                 2.3511                 3.3129
 Frc consts  --      0.2253                 0.2203                 0.3169
 IR Inten    --     41.3887                 2.0220                 5.0196

                     25                     26                     27
                      A                      A                      A
 Frequencies --    426.9233               451.9825               467.8491
 Red. masses --      3.1708                 2.1964                 5.9041
 Frc consts  --      0.3405                 0.2644                 0.7614
 IR Inten    --      0.7174                74.3686                 2.6251

                     28                     29                     30
                      A                      A                      A
 Frequencies --    507.5684               541.8318               555.8096
 Red. masses --      1.9152                 3.0177                 3.0054
 Frc consts  --      0.2907                 0.5220                 0.5470
 IR Inten    --     21.2631                13.6483                17.9112

                     31                     32                     33
                      A                      A                      A
 Frequencies --    591.4694               613.5954               647.5988
 Red. masses --      3.1141                 2.9719                 3.6989
 Frc consts  --      0.6419                 0.6592                 0.9140
 IR Inten    --     11.7246                49.9810                16.6534

                     34                     35                     36
                      A                      A                      A
 Frequencies --    657.1639               694.6713               720.5695
 Red. masses --      6.5428                 1.7989                 3.3874
 Frc consts  --      1.6648                 0.5115                 1.0363
 IR Inten    --      2.6636                54.0731                12.4177

                     37                     38                     39
                      A                      A                      A
 Frequencies --    738.5055               778.1692               781.3535
 Red. masses --      3.9833                 2.5641                 3.3090
 Frc consts  --      1.2800                 0.9148                 1.1903
 IR Inten    --      7.5959                12.7418                53.9857

                     40                     41                     42
                      A                      A                      A
 Frequencies --    835.3078               851.8705               855.5809
 Red. masses --      4.3446                 1.3253                 2.3817
 Frc consts  --      1.7860                 0.5666                 1.0272
 IR Inten    --      3.3834                 8.6043                 2.9930

                     43                     44                     45
                      A                      A                      A
 Frequencies --    863.4769               926.0706               952.5101
 Red. masses --      1.8797                 3.8183                 1.6992
 Frc consts  --      0.8257                 1.9293                 0.9083
 IR Inten    --     29.9126                 8.6159                 1.4891

                     46                     47                     48
                      A                      A                      A
 Frequencies --    956.1633               957.3975               974.9981
 Red. masses --      1.3603                 1.6692                 1.4295
 Frc consts  --      0.7327                 0.9015                 0.8006
 IR Inten    --      3.7925                 1.7280                 4.1618

                     49                     50                     51
                      A                      A                      A
 Frequencies --    979.0853               980.2834               997.2306
 Red. masses --      1.9503                 1.2067                 1.5462
 Frc consts  --      1.1015                 0.6832                 0.9060
 IR Inten    --     14.8937                 0.5949                25.6735

                     52                     53                     54
                      A                      A                      A
 Frequencies --   1041.8027              1060.4478              1065.8096
 Red. masses --      2.7716                 1.4246                 1.3997
 Frc consts  --      1.7723                 0.9439                 0.9368
 IR Inten    --     12.8363                 1.7149                 2.6514

                     55                     56                     57
                      A                      A                      A
 Frequencies --   1077.5318              1142.3890              1144.8393
 Red. masses --      5.3030                 1.3534                 2.7564
 Frc consts  --      3.6277                 1.0407                 2.1285
 IR Inten    --     84.6561                 0.9178                52.7927

                     58                     59                     60
                      A                      A                      A
 Frequencies --   1205.7045              1216.0630              1235.9153
 Red. masses --      1.1385                 1.1637                 2.5936
 Frc consts  --      0.9752                 1.0139                 2.3341
 IR Inten    --      3.5392                12.1526                 8.7284

                     61                     62                     63
                      A                      A                      A
 Frequencies --   1238.9645              1246.9197              1257.9895
 Red. masses --      2.5618                 2.7141                 2.5931
 Frc consts  --      2.3169                 2.4863                 2.4178
 IR Inten    --     99.5482                 2.3048                 7.3060

                     64                     65                     66
                      A                      A                      A
 Frequencies --   1263.7083              1287.5311              1333.1430
 Red. masses --      2.8296                 1.5181                 1.5313
 Frc consts  --      2.6624                 1.4828                 1.6035
 IR Inten    --     12.7409                35.0352                 4.9372

                     67                     68                     69
                      A                      A                      A
 Frequencies --   1338.8521              1353.4056              1375.5114
 Red. masses --      3.2382                 1.7659                 2.9494
 Frc consts  --      3.4200                 1.9057                 3.2878
 IR Inten    --      0.5736                76.5872               194.1800

                     70                     71                     72
                      A                      A                      A
 Frequencies --   1396.0491              1400.4093              1430.9293
 Red. masses --      1.4806                 1.7939                 1.3909
 Frc consts  --      1.7001                 2.0728                 1.6780
 IR Inten    --     12.7408                44.6502                61.1010

                     73                     74                     75
                      A                      A                      A
 Frequencies --   1431.4587              1434.5596              1447.4759
 Red. masses --      1.2413                 1.2107                 1.9487
 Frc consts  --      1.4986                 1.4679                 2.4056
 IR Inten    --      1.4541                 4.0286                57.8908

                     76                     77                     78
                      A                      A                      A
 Frequencies --   1464.7996              1477.3506              1495.9733
 Red. masses --      1.2401                 2.2690                 1.0940
 Frc consts  --      1.5677                 2.9178                 1.4424
 IR Inten    --     21.1467                11.4343                 9.7316

                     79                     80                     81
                      A                      A                      A
 Frequencies --   1507.1152              1510.7734              1513.8503
 Red. masses --      1.3162                 1.1431                 1.0554
 Frc consts  --      1.7615                 1.5372                 1.4250
 IR Inten    --     17.8016                12.3146                 1.4018

                     82                     83                     84
                      A                      A                      A
 Frequencies --   1518.7887              1528.9202              1533.4753
 Red. masses --      1.0538                 1.0938                 1.0530
 Frc consts  --      1.4321                 1.5064                 1.4590
 IR Inten    --      4.5475                 3.2492                 2.4765

                     85                     86                     87
                      A                      A                      A
 Frequencies --   1544.0374              1554.1373              1564.3925
 Red. masses --      1.0628                 1.0700                 2.5910
 Frc consts  --      1.4928                 1.5227                 3.7359
 IR Inten    --     17.0401                34.9032                51.6597

                     88                     89                     90
                      A                      A                      A
 Frequencies --   1634.6462              1672.3256              1759.3821
 Red. masses --      6.5658                 5.8983                 7.5253
 Frc consts  --     10.3368                 9.7190                13.7245
 IR Inten    --      4.2223                16.0986               172.7155

                     91                     92                     93
                      A                      A                      A
 Frequencies --   1784.5090              3001.8637              3054.8083
 Red. masses --      8.6674                 1.0710                 1.0372
 Frc consts  --     16.2622                 5.6864                 5.7028
 IR Inten    --    423.0445                62.2736                27.4827

                     94                     95                     96
                      A                      A                      A
 Frequencies --   3055.5067              3063.8190              3077.5199
 Red. masses --      1.0395                 1.0389                 1.0706
 Frc consts  --      5.7178                 5.7460                 5.9743
 IR Inten    --      7.9193                32.4774                12.5407

                     97                     98                     99
                      A                      A                      A
 Frequencies --   3085.1388              3112.8293              3118.9700
 Red. masses --      1.0924                 1.1019                 1.1020
 Frc consts  --      6.1261                 6.2908                 6.3164
 IR Inten    --     18.7705                23.1416                17.7452

                    100                    101                    102
                      A                      A                      A
 Frequencies --   3132.8572              3137.8873              3150.8085
 Red. masses --      1.0996                 1.1003                 1.1025
 Frc consts  --      6.3585                 6.3830                 6.4486
 IR Inten    --     38.0038                32.4036                21.5613

                    103                    104                    105
                      A                      A                      A
 Frequencies --   3163.4504              3171.2807              3180.6576
 Red. masses --      1.0947                 1.0942                 1.0880
 Frc consts  --      6.4546                 6.4834                 6.4848
 IR Inten    --      3.7298                17.4864                12.9828

                    106                    107                    108
                      A                      A                      A
 Frequencies --   3202.7455              3207.5576              3223.7251
 Red. masses --      1.0939                 1.0886                 1.0942
 Frc consts  --      6.6113                 6.5988                 6.6999
 IR Inten    --     10.1880                 4.8893                 3.6046

                    109                    110                    111
                      A                      A                      A
 Frequencies --   3571.4205              3582.9659              3732.1188
 Red. masses --      1.0752                 1.0751                 1.0661
 Frc consts  --      8.0804                 8.1314                 8.7488
 IR Inten    --     32.1525                26.9633                12.3372

 - Thermochemistry -
 -------------------
 Temperature   298.150 Kelvin.  Pressure   1.00000 Atm.
 Atom     1 has atomic number  6 and mass  12.00000

 Molecular mass:   264.14739 amu.
 Principal axes and moments of inertia in atomic units:
                           1         2         3
     Eigenvalues --  3052.217457525.711879216.01943
           X            0.99979   0.02003  -0.00466
           Y           -0.02012   0.99960  -0.01998
           Z            0.00425   0.02007   0.99979
 This molecule is an asymmetric top.
 Rotational symmetry number  1.
 Warning -- assumption of classical behavior for rotation
           may cause significant error
 Rotational temperatures (Kelvin)      0.02838     0.01151     0.00940
 Rotational constants (GHZ):           0.59129     0.23981     0.19583
 Zero-point vibrational energy     867643.2 (Joules/Mol)
                                  207.37170 (Kcal/Mol)
 Warning -- explicit consideration of  32 degrees of freedom as
           vibrations may cause significant error
 Vibrational temperatures:     28.94    49.43    61.27    81.93    99.54
          (Kelvin)            107.17   108.71   148.64   203.97   274.78
                              304.25   333.96   339.54   374.77   400.04
                              419.36   433.83   467.96   503.16   516.58
                              548.26   570.67   573.75   579.70   614.25
                              650.30   673.13   730.28   779.58   799.69
                              850.99   882.83   931.75   945.51   999.48
                             1036.74  1062.54  1119.61  1124.19  1201.82
                             1225.65  1230.99  1242.35  1332.41  1370.45
                             1375.71  1377.48  1402.80  1408.69  1410.41
                             1434.79  1498.92  1525.75  1533.46  1550.33
                             1643.64  1647.17  1734.74  1749.64  1778.21
                             1782.59  1794.04  1809.97  1818.19  1852.47
                             1918.10  1926.31  1947.25  1979.05  2008.60
                             2014.88  2058.79  2059.55  2064.01  2082.59
                             2107.52  2125.58  2152.37  2168.40  2173.67
                             2178.09  2185.20  2199.78  2206.33  2221.53
                             2236.06  2250.81  2351.89  2406.10  2531.36
                             2567.51  4319.01  4395.19  4396.19  4408.15
                             4427.86  4438.83  4478.67  4487.50  4507.48
                             4514.72  4533.31  4551.50  4562.77  4576.26
                             4608.04  4614.96  4638.22  5138.48  5155.09
                             5369.69

 Zero-point correction=                           0.330468 (Hartree/Particle)
 Thermal correction to Energy=                    0.350227
 Thermal correction to Enthalpy=                  0.351171
 Thermal correction to Gibbs Free Energy=         0.280976
 Sum of electronic and zero-point Energies=           -880.465492
 Sum of electronic and thermal Energies=              -880.445733
 Sum of electronic and thermal Enthalpies=            -880.444789
 Sum of electronic and thermal Free Energies=         -880.514984

                     E (Thermal)             CV                S
                      KCal/Mol        Cal/Mol-Kelvin    Cal/Mol-Kelvin
 Total                  219.771             74.534            147.739
 Electronic               0.000              0.000              0.000
 Translational            0.889              2.981             42.613
 Rotational               0.889              2.981             33.714
 Vibrational            217.993             68.573             71.412
 Vibration     1          0.593              1.986              6.623
 Vibration     2          0.594              1.983              5.561
 Vibration     3          0.595              1.980              5.135
 Vibration     4          0.596              1.975              4.560
 Vibration     5          0.598              1.969              4.176
 Vibration     6          0.599              1.966              4.031
 Vibration     7          0.599              1.965              4.003
 Vibration     8          0.605              1.947              3.391
 Vibration     9          0.615              1.911              2.780
 Vibration    10          0.634              1.852              2.218
 Vibration    11          0.643              1.823              2.031
 Vibration    12          0.653              1.792              1.863
 Vibration    13          0.655              1.786              1.833
 Vibration    14          0.669              1.745              1.659
 Vibration    15          0.679              1.714              1.546
 Vibration    16          0.687              1.690              1.465
 Vibration    17          0.694              1.671              1.408
 Vibration    18          0.709              1.625              1.284
 Vibration    19          0.727              1.576              1.167
 Vibration    20          0.734              1.557              1.126
 Vibration    21          0.751              1.511              1.035
 Vibration    22          0.763              1.477              0.975
 Vibration    23          0.765              1.473              0.967
 Vibration    24          0.768              1.464              0.952
 Vibration    25          0.789              1.412              0.869
 Vibration    26          0.811              1.357              0.790
 Vibration    27          0.825              1.321              0.744
 Vibration    28          0.863              1.233              0.639
 Vibration    29          0.897              1.158              0.561
 Vibration    30          0.911              1.127              0.532
 Vibration    31          0.949              1.050              0.465
 Vibration    32          0.973              1.003              0.427

                           ! Non-Optimized Parameters !
 Normal termination of Gaussian 16 at Sun Dec 13 17:07:33 2020.

 ----------------------------------------------------------------------
 # B3LYP/6-311++G(d,p) empiricaldispersion=gd3bj scf=xqc pop=npa geom=c
 heck
 ----------------------------------------------------------------------

 --------------------------------------
 CID_64795416_JID_9746_Energie_neutraal
 --------------------------------------
 Structure from the checkpoint file:  "JID_9746.chk"
 Charge =  0 Multiplicity = 1

 SCF Done:  E(RB3LYP) =  -881.060075957     A.U. after   16 cycles
 Normal termination of Gaussian 16 at Sun Dec 13 17:18:22 2020.

 ----------------------------------------------------------------------
 # B3LYP/6-311++G(d,p) empiricaldispersion=gd3bj scf=xqc pop=npa geom=c
 heck
 ----------------------------------------------------------------------

 ------------------------------------
 CID_64795416_JID_9746_Energie_kation
 ------------------------------------
 Structure from the checkpoint file:  "JID_9746.chk"
 Charge =  1 Multiplicity = 2

 SCF Done:  E(UB3LYP) =  -880.753774063     A.U. after   29 cycles
 Normal termination of Gaussian 16 at Sun Dec 13 17:46:01 2020.
 Gaussian 16:  ES64L-G16RevA.03 25-Dec-2016

 ----------------------------------------------------------------------
 # B3LYP/6-311++G(d,p) empiricaldispersion=gd3bj scf=xqc pop=npa geom=c
 heck
 ----------------------------------------------------------------------

 -----------------------------------
 CID_64795416_JID_9746_Energie_anion
 -----------------------------------
 Structure from the checkpoint file:  "JID_9746.chk"
 Charge = -1 Multiplicity = 2

                         Standard orientation:
 ---------------------------------------------------------------------
 Center     Atomic      Atomic             Coordinates (Angstroms)
 Number     Number       Type             X           Y           Z
 ---------------------------------------------------------------------
      1          6           0       -2.927148   -2.682093    0.679415
      2          6           0       -2.824439   -1.276969    0.062082
      3          6           0       -3.825519   -1.177023   -1.107374
      4          6           0       -3.160360   -0.241377    1.156389
      5          6           0       -1.383008   -1.111498   -0.465939
      6          8           0       -0.554573   -2.008130   -0.347398
      7          7           0       -1.008487    0.023232   -1.163262
      8          6           0       -1.537519    1.371776   -1.135710
      9          6           0       -1.335606    2.213120    0.139706
     10          8           0       -2.180154    3.035981    0.464553
     11          7           0       -0.217118    1.992864    0.904394
     12          6           0        0.964445    1.283745    0.540565
     13          6           0        1.372769    0.176677    1.288898
     14          6           0        2.508290   -0.535222    0.916782
     15          6           0        3.248093   -0.163109   -0.211579
     16          6           0        2.842584    0.956028   -0.945780
     17          6           0        1.715385    1.684939   -0.569244
     18          6           0        4.451489   -0.979126   -0.634530
     19          8           0        5.192623   -1.498696    0.461136
     20          1           0       -3.949051   -2.848794    1.038237
     21          1           0       -2.238128   -2.793320    1.520924
     22          1           0       -2.678585   -3.455139   -0.051620
     23          1           0       -4.840059   -1.367018   -0.739029
     24          1           0       -3.827483   -0.192916   -1.583411
     25          1           0       -3.599613   -1.923151   -1.876697
     26          1           0       -2.382118   -0.218602    1.927636
     27          1           0       -3.292144    0.772804    0.776865
     28          1           0       -4.099616   -0.528427    1.642392
     29          1           0       -0.031179   -0.050777   -1.419751
     30          1           0       -1.087264    1.917298   -1.972642
     31          1           0       -2.612622    1.383095   -1.311438
     32          1           0       -0.211421    2.532251    1.763189
     33          1           0        0.773246   -0.142393    2.135460
     34          1           0        2.821033   -1.403063    1.487924
     35          1           0        3.420480    1.270378   -1.811653
     36          1           0        1.415811    2.568969   -1.124701
     37          1           0        4.126812   -1.860446   -1.199252
     38          1           0        5.087311   -0.381440   -1.306982
     39          1           0        5.463922   -0.744439    1.008212
 ---------------------------------------------------------------------

 SCF Done:  E(UB3LYP) =  -881.051623025     A.U. after   33 cycles
 SCF Done:  E(UB3LYP) =  -881.055668339     a.u. after   18 cycles

 The electronic state is 2-A.
 Alpha  occ. eigenvalues --  -19.01680 -18.98611 -18.98428 -14.23595 -14.23015
 Alpha  occ. eigenvalues --  -10.17091 -10.16387 -10.11507 -10.10939 -10.10665
 Alpha  occ. eigenvalues --  -10.08982 -10.08226 -10.07408 -10.07002 -10.06227
 Alpha  occ. eigenvalues --  -10.06172 -10.05954 -10.05740 -10.05635  -0.93988
 Alpha  occ. eigenvalues --   -0.93582  -0.91825  -0.83017  -0.81167  -0.73828
 Alpha  occ. eigenvalues --   -0.73103  -0.65012  -0.63683  -0.62790  -0.60776
 Alpha  occ. eigenvalues --   -0.59881  -0.56968  -0.53350  -0.50823  -0.49808
 Alpha  occ. eigenvalues --   -0.47694  -0.45261  -0.42987  -0.41021  -0.40422
 Alpha  occ. eigenvalues --   -0.38885  -0.37267  -0.36319  -0.36069  -0.35377
 Alpha  occ. eigenvalues --   -0.34055  -0.33529  -0.33337  -0.32907  -0.32309
 Alpha  occ. eigenvalues --   -0.31809  -0.31119  -0.30682  -0.30246  -0.28452
 Alpha  occ. eigenvalues --   -0.28254  -0.27872  -0.27102  -0.26362  -0.25330
 Alpha  occ. eigenvalues --   -0.24546  -0.24318  -0.23986  -0.22341  -0.18341
 Alpha  occ. eigenvalues --   -0.18126  -0.17152  -0.15552  -0.14702  -0.14158
 Alpha  occ. eigenvalues --   -0.12565   0.04538
 Alpha virt. eigenvalues --    0.06446   0.07208   0.07507   0.08383   0.08754
 Alpha virt. eigenvalues --    0.09108   0.09146   0.09547   0.10316   0.10424
 Alpha virt. eigenvalues --    0.10914   0.11112   0.11305   0.11891   0.12179

  Beta  occ. eigenvalues --  -19.01629 -18.98600 -18.98345 -14.23638 -14.23006
  Beta  occ. eigenvalues --  -10.17090 -10.16252 -10.11501 -10.10937 -10.10662
  Beta  occ. eigenvalues --  -10.08747 -10.08224 -10.07406 -10.07000 -10.06213
  Beta  occ. eigenvalues --  -10.06158 -10.05912 -10.05720 -10.05448  -0.93922
  Beta  occ. eigenvalues --   -0.93456  -0.91695  -0.82888  -0.81116  -0.73635
  Beta  occ. eigenvalues --   -0.73097  -0.64704  -0.63525  -0.62690  -0.60770
  Beta  occ. eigenvalues --   -0.59874  -0.56787  -0.53319  -0.50715  -0.49584
  Beta  occ. eigenvalues --   -0.47489  -0.45216  -0.42887  -0.40938  -0.40304
  Beta  occ. eigenvalues --   -0.38848  -0.37115  -0.36306  -0.35931  -0.35359
  Beta  occ. eigenvalues --   -0.33928  -0.33428  -0.33139  -0.32847  -0.32165
  Beta  occ. eigenvalues --   -0.31735  -0.31067  -0.30626  -0.30230  -0.28409
  Beta  occ. eigenvalues --   -0.28191  -0.27768  -0.26911  -0.26280  -0.25056
  Beta  occ. eigenvalues --   -0.24432  -0.24236  -0.23842  -0.22224  -0.18259
  Beta  occ. eigenvalues --   -0.17905  -0.16916  -0.15505  -0.14339  -0.13974
  Beta  occ. eigenvalues --   -0.11842
  Beta virt. eigenvalues --    0.06369   0.07400   0.07967   0.08247   0.08636
  Beta virt. eigenvalues --    0.09002   0.09123   0.09286   0.09828   0.10379
  Beta virt. eigenvalues --    0.10633   0.10963   0.11445   0.11733   0.11873

 Mulliken charges and spin densities:
               1          2
     1  C   -0.434983  -0.130063
     2  C    0.639391  -0.062531
     3  C   -0.458578  -0.025234
     4  C   -0.524658  -0.032727
     5  C   -0.393186   0.008546
     6  O   -0.255684   0.014439
     7  N    0.020583   0.027724
     8  C    0.214093  -0.563564
     9  C   -0.025157   0.027218
    10  O   -0.305851   0.035892
    11  N   -0.141644  -0.004100
    12  C   -0.216107  -0.279812
    13  C    0.023946   0.284106
    14  C   -1.033029   0.760637
    15  C   -0.194583   0.641973
    16  C    0.006016  -0.565842
    17  C   -0.126560   0.098422
    18  C    1.294897  -1.766380
    19  O   -0.226694   0.008793
    20  H    0.108643   0.007257
    21  H    0.145474   0.014253
    22  H    0.156931   0.005896
    23  H    0.139307  -0.005524
    24  H    0.046434   0.076114
    25  H    0.114917   0.048241
    26  H    0.168710   0.001304
    27  H    0.183256  -0.016899
    28  H    0.147409   0.003969
    29  H    0.281723   0.058481
    30  H   -0.624981   0.855778
    31  H    0.294239  -0.115861
    32  H    0.307847   0.014735
    33  H    0.138836  -0.001957
    34  H    0.100699   0.081033
    35  H   -0.489865   0.652744
    36  H   -0.049026   0.218724
    37  H    0.010200   0.191001
    38  H   -0.042923   0.200149
    39  H   -0.000042   0.233064
 Sum of Mulliken charges =  -1.00000   1.00000

 Dipole moment (field-independent basis, Debye):
    X=             -6.1124    Y=             -1.2785    Z=              3.3365  Tot=              7.0801
 Quadrupole moment (field-independent basis, Debye-Ang):
   XX=           -181.3778   YY=           -159.8191   ZZ=           -139.8001
   XY=             20.1209   XZ=              2.6891   YZ=              4.8856

 Summary of Natural Population Analysis:

                                       Natural Population
                Natural  -----------------------------------------------
    Atom  No    Charge         Core      Valence    Rydberg      Total
 -----------------------------------------------------------------------
      C    1   -0.27995      0.99965     2.27364    0.00666     3.27995
      C    2   -0.08117      0.99956     2.07324    0.00838     3.08117
      C    3   -0.28003      0.99963     2.27464    0.00575     3.28003
      C    4   -0.28655      0.99963     2.28117    0.00575     3.28655
      C    5    0.35036      0.99960     1.62476    0.02527     2.64964
      O    6   -0.31551      0.99988     3.31005    0.00559     4.31551
      N    7   -0.32449      0.99967     2.81281    0.01201     3.82449
      C    8   -0.13451      0.99956     2.12314    0.01180     3.13451
      C    9    0.35338      0.99967     1.62297    0.02398     2.64662
      O   10   -0.32411      0.99988     3.31841    0.00582     4.32411
      N   11   -0.32339      0.99964     2.81436    0.00939     3.82339
      C   12    0.09020      0.99945     1.89855    0.01180     2.90980
      C   13   -0.09189      0.99951     2.08307    0.00930     3.09189
      C   14   -0.09012      0.99952     2.08048    0.01012     3.09012
      C   15   -0.00808      0.99950     1.99812    0.01047     3.00808
      C   16   -0.09837      0.99952     2.08829    0.01056     3.09837
      C   17   -0.11320      0.99952     2.10322    0.01047     3.11320
      C   18   -0.01197      0.99956     2.00046    0.01196     3.01197
      O   19   -0.36703      0.99990     3.36072    0.00640     4.36703
      H   20    0.09066      0.00000     0.40843    0.00091     0.40934
      H   21    0.10605      0.00000     0.39315    0.00080     0.39395
      H   22    0.10564      0.00000     0.39354    0.00083     0.39436
      H   23    0.09580      0.00000     0.40331    0.00088     0.40420
      H   24    0.10066      0.00000     0.39855    0.00080     0.39934
      H   25    0.10198      0.00000     0.39722    0.00079     0.39802
      H   26    0.10375      0.00000     0.39551    0.00074     0.39625
      H   27    0.11058      0.00000     0.38839    0.00103     0.38942
      H   28    0.09589      0.00000     0.40332    0.00079     0.40411
      H   29    0.20469      0.00000     0.29193    0.00338     0.29531
      H   30    0.11843      0.00000     0.37831    0.00325     0.38157
      H   31    0.10537      0.00000     0.39347    0.00116     0.39463
      H   32    0.19707      0.00000     0.30137    0.00156     0.30293
      H   33    0.09808      0.00000     0.40091    0.00101     0.40192
      H   34    0.10428      0.00000     0.39462    0.00109     0.39572
      H   35    0.09897      0.00000     0.39976    0.00127     0.40103
      H   36    0.10303      0.00000     0.39581    0.00116     0.39697
      H   37    0.09217      0.00000     0.40617    0.00167     0.40783
      H   38    0.07609      0.00000     0.42227    0.00164     0.42391
      H   39    0.22723      0.00000     0.26905    0.00372     0.27277
 =======================================================================
   * Total *   -0.00000     18.99283    51.77720    0.22997    71.00000

 Normal termination of Gaussian 16 at Mon Dec 14 00:30:08 2020.
