 Gaussian 16, Revision A.03,

 -----------------------------------------------------------
 # opt freq B3LYP/6-31G(d) empiricaldispersion=gd3bj scf=xqc
 -----------------------------------------------------------

 -------------------------------
 CID_115250223_JID_5841_neutraal
 -------------------------------
 Symbolic Z-matrix:
 Charge =  0 Multiplicity = 1

 SCF Done:  E(RB3LYP) =  -709.870415546     A.U. after   14 cycles
 SCF Done:  E(RB3LYP) =  -709.875398503     A.U. after   12 cycles
 SCF Done:  E(RB3LYP) =  -709.875074757     A.U. after   13 cycles
 SCF Done:  E(RB3LYP) =  -709.876439001     A.U. after   12 cycles
 SCF Done:  E(RB3LYP) =  -709.876727979     A.U. after   11 cycles
 SCF Done:  E(RB3LYP) =  -709.876897271     A.U. after   12 cycles
 SCF Done:  E(RB3LYP) =  -709.876960806     A.U. after   11 cycles
 SCF Done:  E(RB3LYP) =  -709.877039447     A.U. after   11 cycles
 SCF Done:  E(RB3LYP) =  -709.877155557     A.U. after   11 cycles
 SCF Done:  E(RB3LYP) =  -709.877209838     A.U. after   11 cycles
 SCF Done:  E(RB3LYP) =  -709.877261060     A.U. after    9 cycles
 SCF Done:  E(RB3LYP) =  -709.877261681     A.U. after    8 cycles
 SCF Done:  E(RB3LYP) =  -709.877261919     A.U. after    8 cycles
 SCF Done:  E(RB3LYP) =  -709.877262016     A.U. after    7 cycles
 SCF Done:  E(RB3LYP) =  -709.877262034     A.U. after    7 cycles
 Optimization completed.
    -- Stationary point found.
 Normal termination of Gaussian 16 at Thu Dec 10 17:18:52 2020.

 --------------------------------------------------------------------
 #N Geom=AllCheck Guess=TCheck SCRF=Check GenChk RB3LYP/6-31G(d) Freq
 --------------------------------------------------------------------

 Structure from the checkpoint file:  "JID_5841.chk"
 -------------------------------
 CID_115250223_JID_5841_neutraal
 -------------------------------
 Charge =  0 Multiplicity = 1

 SCF Done:  E(RB3LYP) =  -709.877262034     A.U. after    1 cycles

  Exact polarizability: 165.449   1.799 129.039   4.063  -6.648  94.800
 Approx polarizability: 203.351  -6.952 196.013  10.036 -16.546 146.915

                      1                      2                      3
                      A                      A                      A
 Frequencies --     16.6557                28.8106                37.5774
 Red. masses --      3.7251                 3.6259                 6.3722
 Frc consts  --      0.0006                 0.0018                 0.0053
 IR Inten    --      0.0326                 0.1959                 1.1299

                      4                      5                      6
                      A                      A                      A
 Frequencies --     59.1079                80.0634               117.8438
 Red. masses --      4.3723                 3.4466                 3.0748
 Frc consts  --      0.0090                 0.0130                 0.0252
 IR Inten    --      0.3674                 0.5735                 0.4217

                      7                      8                      9
                      A                      A                      A
 Frequencies --    142.9630               163.6394               167.8928
 Red. masses --      1.0927                 4.0067                 4.5908
 Frc consts  --      0.0132                 0.0632                 0.0762
 IR Inten    --      0.0028                 1.4047                 2.3920

                     10                     11                     12
                      A                      A                      A
 Frequencies --    216.2728               235.4701               243.0869
 Red. masses --      2.9446                 1.2979                 1.1174
 Frc consts  --      0.0811                 0.0424                 0.0389
 IR Inten    --      2.5089                 0.1958                 0.0786

                     13                     14                     15
                      A                      A                      A
 Frequencies --    264.4957               284.1955               297.6226
 Red. masses --      3.3628                 2.1175                 2.9970
 Frc consts  --      0.1386                 0.1008                 0.1564
 IR Inten    --      0.9414                 1.6007                 2.1082

                     16                     17                     18
                      A                      A                      A
 Frequencies --    343.0496               372.4483               385.0019
 Red. masses --      4.3215                 4.1688                 2.4087
 Frc consts  --      0.2996                 0.3407                 0.2104
 IR Inten    --      1.3945                 2.3958                 1.0019

                     19                     20                     21
                      A                      A                      A
 Frequencies --    458.3789               469.9727               568.1198
 Red. masses --      2.7832                 2.7676                 3.5731
 Frc consts  --      0.3445                 0.3602                 0.6795
 IR Inten    --      2.5714                 5.8903                16.0893

                     22                     23                     24
                      A                      A                      A
 Frequencies --    594.2685               614.4440               643.4923
 Red. masses --      2.6810                 3.6498                 2.4068
 Frc consts  --      0.5578                 0.8119                 0.5872
 IR Inten    --     74.5171                 0.8480                11.2713

                     25                     26                     27
                      A                      A                      A
 Frequencies --    660.3052               683.6817               695.6405
 Red. masses --      1.9285                 4.1612                 1.8136
 Frc consts  --      0.4954                 1.1460                 0.5171
 IR Inten    --     50.4349                 0.6588                45.4378

                     28                     29                     30
                      A                      A                      A
 Frequencies --    732.8139               753.5374               769.8951
 Red. masses --      2.5797                 1.3520                 3.1465
 Frc consts  --      0.8162                 0.4523                 1.0989
 IR Inten    --     19.4322                64.8395                22.3439

                     31                     32                     33
                      A                      A                      A
 Frequencies --    813.6394               822.8010               894.2321
 Red. masses --      3.5345                 1.3046                 2.7609
 Frc consts  --      1.3786                 0.5204                 1.3008
 IR Inten    --     17.7836                 7.9386                 3.9069

                     34                     35                     36
                      A                      A                      A
 Frequencies --    935.1860               949.6114               963.2654
 Red. masses --      2.0690                 1.2338                 3.1359
 Frc consts  --      1.0661                 0.6555                 1.7144
 IR Inten    --      2.9087                 2.4432                 5.9677

                     37                     38                     39
                      A                      A                      A
 Frequencies --    981.8614               990.5549              1013.3029
 Red. masses --      1.4067                 3.9640                 1.8681
 Frc consts  --      0.7990                 2.2916                 1.1301
 IR Inten    --      0.1366                 0.5638                 1.6889

                     40                     41                     42
                      A                      A                      A
 Frequencies --   1039.8276              1053.5199              1082.2193
 Red. masses --      1.5335                 1.8810                 1.4357
 Frc consts  --      0.9769                 1.2300                 0.9907
 IR Inten    --      6.6450                28.3527                 3.0820

                     43                     44                     45
                      A                      A                      A
 Frequencies --   1086.8751              1103.1840              1116.0229
 Red. masses --      2.7545                 3.3736                 1.8015
 Frc consts  --      1.9171                 2.4190                 1.3220
 IR Inten    --     18.0066                29.5883                58.0262

                     46                     47                     48
                      A                      A                      A
 Frequencies --   1169.9402              1204.5432              1217.8581
 Red. masses --      2.0715                 2.2263                 1.9858
 Frc consts  --      1.6705                 1.9032                 1.7354
 IR Inten    --     36.2689               187.1113                 3.0347

                     49                     50                     51
                      A                      A                      A
 Frequencies --   1237.5819              1254.2403              1270.8324
 Red. masses --      1.4556                 5.3389                 1.3596
 Frc consts  --      1.3135                 4.9484                 1.2937
 IR Inten    --      3.0885                16.0634                83.8233

                     52                     53                     54
                      A                      A                      A
 Frequencies --   1304.6486              1322.8293              1352.0957
 Red. masses --      1.3511                 3.4276                 1.4561
 Frc consts  --      1.3550                 3.5338                 1.5684
 IR Inten    --      3.1195                33.2524                 9.4161

                     55                     56                     57
                      A                      A                      A
 Frequencies --   1359.7848              1388.1762              1400.9074
 Red. masses --      1.4620                 1.5430                 1.4556
 Frc consts  --      1.5928                 1.7519                 1.6831
 IR Inten    --     21.5398                11.5701                 9.1544

                     58                     59                     60
                      A                      A                      A
 Frequencies --   1406.1382              1423.0342              1438.9519
 Red. masses --      2.0156                 1.7412                 1.2557
 Frc consts  --      2.3481                 2.0774                 1.5319
 IR Inten    --      5.3811                43.8383                 5.8166

                     61                     62                     63
                      A                      A                      A
 Frequencies --   1446.2071              1458.7127              1501.3069
 Red. masses --      1.2729                 1.2305                 1.0431
 Frc consts  --      1.5686                 1.5426                 1.3852
 IR Inten    --      1.3355                 6.0558                 6.1104

                     64                     65                     66
                      A                      A                      A
 Frequencies --   1503.0724              1516.0946              1522.8713
 Red. masses --      1.4026                 1.0506                 1.0609
 Frc consts  --      1.8670                 1.4228                 1.4496
 IR Inten    --      2.9775                 0.7235                 6.0844

                     67                     68                     69
                      A                      A                      A
 Frequencies --   1525.5092              1532.2959              1537.4710
 Red. masses --      1.1102                 1.0555                 1.0574
 Frc consts  --      1.5223                 1.4602                 1.4726
 IR Inten    --     13.6507                 5.9305                 5.2408

                     70                     71                     72
                      A                      A                      A
 Frequencies --   1546.7128              1653.5222              1682.0390
 Red. masses --      1.0701                 6.0297                 5.8662
 Frc consts  --      1.5084                 9.7132                 9.7786
 IR Inten    --      6.0986               192.3384               148.4769

                     73                     74                     75
                      A                      A                      A
 Frequencies --   1841.9678              3034.4404              3036.3965
 Red. masses --      9.4343                 1.0833                 1.0389
 Frc consts  --     18.8592                 5.8769                 5.6433
 IR Inten    --    274.2961                20.1177                48.4497

                     76                     77                     78
                      A                      A                      A
 Frequencies --   3043.3771              3052.5208              3056.5801
 Red. masses --      1.0678                 1.0363                 1.0373
 Frc consts  --      5.8269                 5.6891                 5.7098
 IR Inten    --     27.7326                31.1921                20.9117

                     79                     80                     81
                      A                      A                      A
 Frequencies --   3082.2408              3093.4332              3114.9036
 Red. masses --      1.1015                 1.0841                 1.1017
 Frc consts  --      6.1658                 6.1123                 6.2980
 IR Inten    --     22.4065                 9.7348                36.9060

                     82                     83                     84
                      A                      A                      A
 Frequencies --   3121.1532              3126.4766              3130.3343
 Red. masses --      1.1026                 1.1024                 1.1013
 Frc consts  --      6.3285                 6.3491                 6.3582
 IR Inten    --     25.6783                19.3221                42.1519

                     85                     86                     87
                      A                      A                      A
 Frequencies --   3136.4090              3137.2800              3257.7284
 Red. masses --      1.0983                 1.0947                 1.0929
 Frc consts  --      6.3654                 6.3483                 6.8340
 IR Inten    --     12.7315                 8.9624                14.7807

                     88                     89                     90
                      A                      A                      A
 Frequencies --   3271.2738              3569.3203              3674.9075
 Red. masses --      1.1004                 1.0743                 1.0639
 Frc consts  --      6.9380                 8.0638                 8.4655
 IR Inten    --      2.1668                 8.4201                48.1520

 - Thermochemistry -
 -------------------
 Temperature   298.150 Kelvin.  Pressure   1.00000 Atm.
 Atom     1 has atomic number  6 and mass  12.00000

 Molecular mass:   211.12084 amu.
 Principal axes and moments of inertia in atomic units:
                           1         2         3
     Eigenvalues --  1559.543216765.703827569.57729
           X            0.99968   0.02514   0.00132
           Y           -0.02513   0.99966  -0.00701
           Z           -0.00150   0.00698   0.99997
 This molecule is an asymmetric top.
 Rotational symmetry number  1.
 Warning -- assumption of classical behavior for rotation
           may cause significant error
 Rotational temperatures (Kelvin)      0.05554     0.01280     0.01144
 Rotational constants (GHZ):           1.15722     0.26675     0.23842
 Zero-point vibrational energy     717191.0 (Joules/Mol)
                                  171.41276 (Kcal/Mol)
 Warning -- explicit consideration of  23 degrees of freedom as
           vibrations may cause significant error
 Vibrational temperatures:     23.96    41.45    54.07    85.04   115.19
          (Kelvin)            169.55   205.69   235.44   241.56   311.17
                              338.79   349.75   380.55   408.89   428.21
                              493.57   535.87   553.93   659.50   676.19
                              817.40   855.02   884.05   925.84   950.03
                              983.67  1000.87  1054.36  1084.17  1107.71
                             1170.65  1183.83  1286.60  1345.52  1366.28
                             1385.92  1412.68  1425.19  1457.92  1496.08
                             1515.78  1557.07  1563.77  1587.24  1605.71
                             1683.28  1733.07  1752.23  1780.60  1804.57
                             1828.44  1877.10  1903.26  1945.36  1956.43
                             1997.28  2015.59  2023.12  2047.43  2070.33
                             2080.77  2098.76  2160.05  2162.59  2181.32
                             2191.07  2194.87  2204.63  2212.08  2225.37
                             2379.05  2420.08  2650.18  4365.88  4368.70
                             4378.74  4391.90  4397.74  4434.66  4450.76
                             4481.65  4490.64  4498.30  4503.85  4512.59
                             4513.85  4687.14  4706.63  5135.46  5287.37

 Zero-point correction=                           0.273164 (Hartree/Particle)
 Thermal correction to Energy=                    0.289333
 Thermal correction to Enthalpy=                  0.290277
 Thermal correction to Gibbs Free Energy=         0.227172
 Sum of electronic and zero-point Energies=           -709.604098
 Sum of electronic and thermal Energies=              -709.587929
 Sum of electronic and thermal Enthalpies=            -709.586985
 Sum of electronic and thermal Free Energies=         -709.650090

                     E (Thermal)             CV                S
                      KCal/Mol        Cal/Mol-Kelvin    Cal/Mol-Kelvin
 Total                  181.559             59.139            132.817
 Electronic               0.000              0.000              0.000
 Translational            0.889              2.981             41.945
 Rotational               0.889              2.981             32.746
 Vibrational            179.782             53.177             58.126
 Vibration     1          0.593              1.986              6.998
 Vibration     2          0.593              1.984              5.910
 Vibration     3          0.594              1.982              5.383
 Vibration     4          0.596              1.974              4.487
 Vibration     5          0.600              1.963              3.889
 Vibration     6          0.608              1.935              3.135
 Vibration     7          0.616              1.910              2.764
 Vibration     8          0.623              1.887              2.507
 Vibration     9          0.625              1.882              2.459
 Vibration    10          0.645              1.816              1.990
 Vibration    11          0.655              1.787              1.837
 Vibration    12          0.659              1.774              1.780
 Vibration    13          0.671              1.738              1.632
 Vibration    14          0.683              1.703              1.508
 Vibration    15          0.691              1.678              1.430
 Vibration    16          0.722              1.589              1.198
 Vibration    17          0.744              1.529              1.070
 Vibration    18          0.754              1.502              1.019
 Vibration    19          0.816              1.342              0.771
 Vibration    20          0.827              1.317              0.738
 Vibration    21          0.924              1.100              0.508
 Vibration    22          0.952              1.044              0.460
 Vibration    23          0.974              1.001              0.425

                           ! Non-Optimized Parameters !
 Normal termination of Gaussian 16 at Thu Dec 10 17:29:11 2020.

 ----------------------------------------------------------------------
 # B3LYP/6-311++G(d,p) empiricaldispersion=gd3bj scf=xqc pop=npa geom=c
 heck
 ----------------------------------------------------------------------

 ---------------------------------------
 CID_115250223_JID_5841_Energie_neutraal
 ---------------------------------------
 Structure from the checkpoint file:  "JID_5841.chk"
 Charge =  0 Multiplicity = 1

 SCF Done:  E(RB3LYP) =  -710.090919338     A.U. after   14 cycles
 Normal termination of Gaussian 16 at Thu Dec 10 17:34:30 2020.

 ----------------------------------------------------------------------
 # B3LYP/6-311++G(d,p) empiricaldispersion=gd3bj scf=xqc pop=npa geom=c
 heck
 ----------------------------------------------------------------------

 -------------------------------------
 CID_115250223_JID_5841_Energie_kation
 -------------------------------------
 Structure from the checkpoint file:  "JID_5841.chk"
 Charge =  1 Multiplicity = 2

 SCF Done:  E(UB3LYP) =  -709.826774923     A.U. after   21 cycles
 Normal termination of Gaussian 16 at Thu Dec 10 17:44:52 2020.
 Gaussian 16:  ES64L-G16RevA.03 25-Dec-2016

 ----------------------------------------------------------------------
 # B3LYP/6-311++G(d,p) empiricaldispersion=gd3bj scf=xqc pop=npa geom=c
 heck
 ----------------------------------------------------------------------

 ------------------------------------
 CID_115250223_JID_5841_Energie_anion
 ------------------------------------
 Structure from the checkpoint file:  "JID_5841.chk"
 Charge = -1 Multiplicity = 2

                         Standard orientation:
 ---------------------------------------------------------------------
 Center     Atomic      Atomic             Coordinates (Angstroms)
 Number     Number       Type             X           Y           Z
 ---------------------------------------------------------------------
      1          6           0        4.650603    1.625290   -0.342718
      2          6           0        3.858519    0.388531   -0.120320
      3          6           0        4.159624   -0.882068    0.257068
      4          6           0        2.921392   -1.612749    0.328809
      5          6           0        1.946059   -0.728000   -0.032911
      6          8           0        2.490532    0.491164   -0.312686
      7          7           0        0.578571   -0.847299   -0.249766
      8          6           0       -0.296844    0.171937    0.343128
      9          6           0       -1.638961    0.229973   -0.404800
     10          6           0       -2.405275   -1.127273   -0.420839
     11          6           0       -2.698792   -1.686744    0.977241
     12          6           0       -3.687775   -1.038237   -1.257533
     13          6           0       -2.520738    1.348428    0.113713
     14          8           0       -3.222311    2.061195   -0.569549
     15          8           0       -2.479794    1.471971    1.468422
     16          1           0        4.541797    2.001320   -1.368063
     17          1           0        4.345452    2.432429    0.335955
     18          1           0        5.709908    1.417283   -0.167438
     19          1           0        5.149082   -1.259292    0.476679
     20          1           0        2.780601   -2.645027    0.616234
     21          1           0        0.275667   -1.789124   -0.028803
     22          1           0       -0.455749    0.006848    1.416816
     23          1           0        0.211827    1.132443    0.239326
     24          1           0       -1.431450    0.485459   -1.448538
     25          1           0       -1.731187   -1.824104   -0.937146
     26          1           0       -3.352099   -1.016439    1.545063
     27          1           0       -3.199748   -2.657590    0.895633
     28          1           0       -1.787613   -1.832675    1.568032
     29          1           0       -3.484564   -0.638370   -2.256512
     30          1           0       -4.137345   -2.030908   -1.370189
     31          1           0       -4.429556   -0.383779   -0.787589
     32          1           0       -3.089316    2.203449    1.684373
 ---------------------------------------------------------------------

 SCF Done:  E(UB3LYP) =  -710.079728665     A.U. after   33 cycles
 SCF Done:  E(UB3LYP) =  -710.079728665     a.u. after    1 cycles

 The electronic state is 2-A.
 Alpha  occ. eigenvalues --  -19.08689 -19.07871 -19.02495 -14.23446 -10.21461
 Alpha  occ. eigenvalues --  -10.15914 -10.12717 -10.11244 -10.09874 -10.09314
 Alpha  occ. eigenvalues --  -10.08879 -10.07337 -10.06748 -10.06521 -10.06343
 Alpha  occ. eigenvalues --   -1.01930  -1.01590  -0.92970  -0.83997  -0.73485
 Alpha  occ. eigenvalues --   -0.70583  -0.68134  -0.65607  -0.59760  -0.59070
 Alpha  occ. eigenvalues --   -0.55582  -0.53127  -0.51489  -0.47404  -0.45526
 Alpha  occ. eigenvalues --   -0.43712  -0.40926  -0.39965  -0.38787  -0.37928
 Alpha  occ. eigenvalues --   -0.37227  -0.35737  -0.35088  -0.33510  -0.33117
 Alpha  occ. eigenvalues --   -0.32523  -0.31887  -0.31143  -0.30671  -0.30180
 Alpha  occ. eigenvalues --   -0.29501  -0.29064  -0.28126  -0.27835  -0.24727
 Alpha  occ. eigenvalues --   -0.24408  -0.24101  -0.22979  -0.20433  -0.18777
 Alpha  occ. eigenvalues --   -0.18242  -0.09895   0.04013
 Alpha virt. eigenvalues --    0.05576   0.06074   0.07330   0.07866   0.08173
 Alpha virt. eigenvalues --    0.08796   0.09345   0.09735   0.10232   0.10360
 Alpha virt. eigenvalues --    0.10849   0.11591   0.11809   0.12135   0.12917

  Beta  occ. eigenvalues --  -19.08678 -19.07825 -19.02477 -14.23425 -10.21453
  Beta  occ. eigenvalues --  -10.15912 -10.12713 -10.11231 -10.09866 -10.09301
  Beta  occ. eigenvalues --  -10.08856 -10.07329 -10.06732 -10.06505 -10.06302
  Beta  occ. eigenvalues --   -1.01869  -1.01572  -0.92916  -0.83967  -0.73454
  Beta  occ. eigenvalues --   -0.70564  -0.68109  -0.65569  -0.59708  -0.59023
  Beta  occ. eigenvalues --   -0.55527  -0.53053  -0.51453  -0.47333  -0.45496
  Beta  occ. eigenvalues --   -0.43670  -0.40893  -0.39923  -0.38738  -0.37897
  Beta  occ. eigenvalues --   -0.37200  -0.35706  -0.35047  -0.33464  -0.33080
  Beta  occ. eigenvalues --   -0.32495  -0.31854  -0.31107  -0.30641  -0.30152
  Beta  occ. eigenvalues --   -0.29472  -0.29036  -0.28100  -0.27809  -0.24689
  Beta  occ. eigenvalues --   -0.24359  -0.24061  -0.22942  -0.20400  -0.18730
  Beta  occ. eigenvalues --   -0.18221  -0.09871
  Beta virt. eigenvalues --    0.05948   0.06564   0.07195   0.07758   0.08127
  Beta virt. eigenvalues --    0.08573   0.09038   0.09410   0.10246   0.10560
  Beta virt. eigenvalues --    0.10603   0.10872   0.11741   0.12118   0.12291

 Mulliken charges and spin densities:
               1          2
     1  C    1.404119  -2.067288
     2  C   -0.738909   0.879412
     3  C   -0.342623   0.195349
     4  C   -0.448204   0.369204
     5  C    0.766380  -0.878091
     6  O   -0.078561   0.009557
     7  N   -0.021080   0.115339
     8  C   -0.746280  -0.688585
     9  C    1.713343  -0.801159
    10  C   -1.219010   1.373091
    11  C    1.046974  -1.653144
    12  C   -0.096856  -0.529576
    13  C   -0.085451  -0.214569
    14  O   -0.292900   0.041221
    15  O   -0.213083   0.069880
    16  H   -0.008060   0.161387
    17  H   -0.007071   0.152174
    18  H   -0.241467   0.403924
    19  H   -0.238922   0.389458
    20  H   -0.626561   0.770884
    21  H    0.078600   0.192634
    22  H    0.226558  -0.007963
    23  H    0.187085   0.052533
    24  H    0.258144   0.018150
    25  H   -0.303196   0.464515
    26  H   -0.105896   0.270405
    27  H   -0.346164   0.499942
    28  H   -0.230212   0.380684
    29  H    0.044414   0.087773
    30  H   -0.081694   0.233444
    31  H    0.017405   0.144804
    32  H   -0.270822   0.564610
 Sum of Mulliken charges =  -1.00000   1.00000

 Dipole moment (field-independent basis, Debye):
    X=              0.9621    Y=              1.6783    Z=             -1.6139  Tot=              2.5194
 Quadrupole moment (field-independent basis, Debye-Ang):
   XX=           -176.7941   YY=           -142.5035   ZZ=           -124.7164
   XY=              2.7796   XZ=              4.0153   YZ=              1.5220

 Summary of Natural Population Analysis:

                                       Natural Population
                Natural  -----------------------------------------------
    Atom  No    Charge         Core      Valence    Rydberg      Total
 -----------------------------------------------------------------------
      C    1   -0.30300      0.99963     2.29862    0.00475     3.30300
      C    2    0.13590      0.99947     1.85138    0.01325     2.86410
      C    3   -0.14389      0.99949     2.13564    0.00876     3.14389
      C    4   -0.17962      0.99950     2.17085    0.00927     3.17962
      C    5    0.24911      0.99946     1.73564    0.01580     2.75089
      O    6   -0.24994      0.99985     3.24266    0.00743     4.24994
      N    7   -0.32740      0.99968     2.81712    0.01060     3.82740
      C    8   -0.08463      0.99958     2.07490    0.01015     3.08463
      C    9   -0.15398      0.99952     2.14264    0.01183     3.15398
      C   10   -0.11065      0.99960     2.10049    0.01056     3.11065
      C   11   -0.28997      0.99964     2.28344    0.00689     3.28997
      C   12   -0.28321      0.99965     2.27857    0.00499     3.28321
      C   13    0.41285      0.99967     1.56060    0.02688     2.58715
      O   14   -0.30573      0.99987     3.29971    0.00615     4.30573
      O   15   -0.34644      0.99988     3.33937    0.00719     4.34644
      H   16    0.10347      0.00000     0.39478    0.00175     0.39653
      H   17    0.10366      0.00000     0.39465    0.00169     0.39634
      H   18    0.10747      0.00000     0.39131    0.00123     0.39253
      H   19    0.10600      0.00000     0.39315    0.00085     0.39400
      H   20    0.10939      0.00000     0.38931    0.00130     0.39061
      H   21    0.18978      0.00000     0.30644    0.00378     0.31022
      H   22    0.09563      0.00000     0.40256    0.00181     0.40437
      H   23    0.10480      0.00000     0.39325    0.00195     0.39520
      H   24    0.11389      0.00000     0.38442    0.00168     0.38611
      H   25    0.09895      0.00000     0.39874    0.00231     0.40105
      H   26    0.10187      0.00000     0.39653    0.00160     0.39813
      H   27    0.10236      0.00000     0.39635    0.00130     0.39764
      H   28    0.10045      0.00000     0.39803    0.00152     0.39955
      H   29    0.10052      0.00000     0.39855    0.00093     0.39948
      H   30    0.09990      0.00000     0.39923    0.00087     0.40010
      H   31    0.10020      0.00000     0.39882    0.00098     0.39980
      H   32    0.24227      0.00000     0.24914    0.00858     0.25773
 =======================================================================
   * Total *    0.00000     14.99448    41.81688    0.18863    57.00000

 Normal termination of Gaussian 16 at Thu Dec 10 18:00:42 2020.
