 Gaussian 16, Revision A.03,

 -----------------------------------------------------------
 # opt freq B3LYP/6-31G(d) empiricaldispersion=gd3bj scf=xqc
 -----------------------------------------------------------

 ------------------------------
 CID_82710432_JID_4568_neutraal
 ------------------------------
 Symbolic Z-matrix:
 Charge =  0 Multiplicity = 1

 SCF Done:  E(RB3LYP) =  -602.326457075     A.U. after   13 cycles
 SCF Done:  E(RB3LYP) =  -602.328113996     A.U. after   11 cycles
 SCF Done:  E(RB3LYP) =  -602.327777427     A.U. after   10 cycles
 SCF Done:  E(RB3LYP) =  -602.328572184     A.U. after   10 cycles
 SCF Done:  E(RB3LYP) =  -602.328711451     A.U. after   11 cycles
 SCF Done:  E(RB3LYP) =  -602.328746618     A.U. after    9 cycles
 SCF Done:  E(RB3LYP) =  -602.328750607     A.U. after    9 cycles
 SCF Done:  E(RB3LYP) =  -602.328751294     A.U. after    7 cycles
 SCF Done:  E(RB3LYP) =  -602.328751449     A.U. after    7 cycles
 SCF Done:  E(RB3LYP) =  -602.328751499     A.U. after    7 cycles
 SCF Done:  E(RB3LYP) =  -602.328751504     A.U. after    6 cycles
 SCF Done:  E(RB3LYP) =  -602.328751505     A.U. after    5 cycles
 Optimization completed.
    -- Stationary point found.
 Normal termination of Gaussian 16 at Thu Dec 10 10:06:37 2020.

 --------------------------------------------------------------------
 #N Geom=AllCheck Guess=TCheck SCRF=Check GenChk RB3LYP/6-31G(d) Freq
 --------------------------------------------------------------------

 Structure from the checkpoint file:  "JID_4568.chk"
 ------------------------------
 CID_82710432_JID_4568_neutraal
 ------------------------------
 Charge =  0 Multiplicity = 1

 SCF Done:  E(RB3LYP) =  -602.328751505     A.U. after    1 cycles

  Exact polarizability: 154.719   2.270 129.084  -1.980  -1.007 125.209
 Approx polarizability: 190.048   5.052 182.500   1.407  -0.642 179.704

                      1                      2                      3
                      A                      A                      A
 Frequencies --     16.7260                23.8501                33.7163
 Red. masses --      2.6912                 3.6025                 3.4178
 Frc consts  --      0.0004                 0.0012                 0.0023
 IR Inten    --      0.2383                 0.2229                 0.1213

                      4                      5                      6
                      A                      A                      A
 Frequencies --     63.5195                97.6576               134.6100
 Red. masses --      3.4473                 2.8051                 2.8108
 Frc consts  --      0.0082                 0.0158                 0.0300
 IR Inten    --      0.0986                 0.0817                 2.2691

                      7                      8                      9
                      A                      A                      A
 Frequencies --    165.1603               173.1470               221.0595
 Red. masses --      3.0242                 2.6665                 1.1061
 Frc consts  --      0.0486                 0.0471                 0.0318
 IR Inten    --      0.2100                 0.1258                 0.1589

                     10                     11                     12
                      A                      A                      A
 Frequencies --    226.3879               247.1804               251.9004
 Red. masses --      1.9970                 3.0449                 1.1828
 Frc consts  --      0.0603                 0.1096                 0.0442
 IR Inten    --      1.6509                 1.4049                 0.2840

                     13                     14                     15
                      A                      A                      A
 Frequencies --    302.0846               313.0399               336.8950
 Red. masses --      2.0582                 2.0678                 2.4124
 Frc consts  --      0.1107                 0.1194                 0.1613
 IR Inten    --      0.2691                 0.0951                 1.5636

                     16                     17                     18
                      A                      A                      A
 Frequencies --    374.7738               403.4457               422.3874
 Red. masses --      2.2505                 2.3133                 2.0699
 Frc consts  --      0.1862                 0.2218                 0.2176
 IR Inten    --      2.7857                 1.1519                 0.5625

                     19                     20                     21
                      A                      A                      A
 Frequencies --    442.7827               479.3595               482.0752
 Red. masses --      2.4595                 2.3861                 2.6349
 Frc consts  --      0.2841                 0.3230                 0.3608
 IR Inten    --      0.2326                 2.5979                 2.9487

                     22                     23                     24
                      A                      A                      A
 Frequencies --    491.2419               548.3569               619.6673
 Red. masses --      2.2285                 2.1747                 2.0441
 Frc consts  --      0.3168                 0.3853                 0.4625
 IR Inten    --      2.4123                 2.5505                 2.6926

                     25                     26                     27
                      A                      A                      A
 Frequencies --    756.6108               805.7040               825.9262
 Red. masses --      2.8915                 1.4644                 2.6845
 Frc consts  --      0.9753                 0.5601                 1.0789
 IR Inten    --      3.0695                 0.1690                 8.2291

                     28                     29                     30
                      A                      A                      A
 Frequencies --    830.7765               851.0018               872.1228
 Red. masses --      2.6853                 1.8790                 1.7435
 Frc consts  --      1.0920                 0.8017                 0.7813
 IR Inten    --      3.1809                 4.3263                 5.5832

                     31                     32                     33
                      A                      A                      A
 Frequencies --    876.0402               887.7882               908.2212
 Red. masses --      2.6133                 2.2358                 2.2896
 Frc consts  --      1.1816                 1.0383                 1.1128
 IR Inten    --     41.7178                 5.3541                17.5892

                     34                     35                     36
                      A                      A                      A
 Frequencies --    934.6796               944.3817               958.7142
 Red. masses --      1.3332                 1.1916                 1.3855
 Frc consts  --      0.6862                 0.6261                 0.7503
 IR Inten    --      5.7234                 0.4094                 6.2625

                     37                     38                     39
                      A                      A                      A
 Frequencies --    972.5713               985.0162               994.3753
 Red. masses --      1.4672                 1.7595                 2.1891
 Frc consts  --      0.8177                 1.0058                 1.2753
 IR Inten    --      8.3271                 4.6880                18.6808

                     40                     41                     42
                      A                      A                      A
 Frequencies --   1009.0694              1041.7229              1048.6577
 Red. masses --      1.8721                 1.9857                 1.7956
 Frc consts  --      1.1231                 1.2696                 1.1634
 IR Inten    --      4.9518                55.0885                 0.4090

                     43                     44                     45
                      A                      A                      A
 Frequencies --   1060.1609              1078.8874              1103.8364
 Red. masses --      2.5821                 2.3588                 2.0035
 Frc consts  --      1.7099                 1.6177                 1.4383
 IR Inten    --     11.3633                19.3251                 4.7404

                     46                     47                     48
                      A                      A                      A
 Frequencies --   1107.0044              1130.0856              1141.4961
 Red. masses --      2.9958                 1.4826                 1.0315
 Frc consts  --      2.1630                 1.1156                 0.7919
 IR Inten    --     12.1978                28.5649                 0.2418

                     49                     50                     51
                      A                      A                      A
 Frequencies --   1166.1772              1175.4491              1195.0449
 Red. masses --      1.7073                 2.1463                 1.9433
 Frc consts  --      1.3680                 1.7472                 1.6352
 IR Inten    --      1.4048                 3.8318                 0.6758

                     52                     53                     54
                      A                      A                      A
 Frequencies --   1204.7464              1213.1576              1243.6965
 Red. masses --      1.8046                 1.7176                 1.3664
 Frc consts  --      1.5432                 1.4894                 1.2452
 IR Inten    --      1.6721                 4.8381                 0.5042

                     55                     56                     57
                      A                      A                      A
 Frequencies --   1276.6111              1296.2226              1305.2172
 Red. masses --      1.1943                 1.2676                 1.2743
 Frc consts  --      1.1468                 1.2548                 1.2790
 IR Inten    --      1.5900                 0.0798                 0.0822

                     58                     59                     60
                      A                      A                      A
 Frequencies --   1310.0288              1321.8830              1345.3479
 Red. masses --      1.2470                 1.2947                 1.3140
 Frc consts  --      1.2609                 1.3329                 1.4012
 IR Inten    --      1.0694                 7.0869                 9.9287

                     61                     62                     63
                      A                      A                      A
 Frequencies --   1350.7088              1369.9928              1383.6565
 Red. masses --      1.2945                 1.3194                 1.4725
 Frc consts  --      1.3915                 1.4590                 1.6610
 IR Inten    --      2.4956                 0.1706                 2.4225

                     64                     65                     66
                      A                      A                      A
 Frequencies --   1390.7796              1394.7307              1403.5677
 Red. masses --      1.3514                 1.3925                 1.3889
 Frc consts  --      1.5401                 1.5960                 1.6121
 IR Inten    --      2.2201                 6.6565                 0.6703

                     67                     68                     69
                      A                      A                      A
 Frequencies --   1404.1581              1406.9129              1413.1902
 Red. masses --      1.4156                 1.4175                 1.4307
 Frc consts  --      1.6445                 1.6531                 1.6834
 IR Inten    --      4.1069                 9.0499                 1.9341

                     70                     71                     72
                      A                      A                      A
 Frequencies --   1423.2212              1428.4276              1430.9424
 Red. masses --      1.3956                 1.3984                 1.3631
 Frc consts  --      1.6656                 1.6812                 1.6445
 IR Inten    --      8.1760                 4.7591                 2.6453

                     73                     74                     75
                      A                      A                      A
 Frequencies --   1450.5848              1493.4180              1505.8960
 Red. masses --      1.2472                 1.0860                 1.1157
 Frc consts  --      1.5463                 1.4270                 1.4907
 IR Inten    --     12.2640                 7.5782                 4.0327

                     76                     77                     78
                      A                      A                      A
 Frequencies --   1513.0673              1517.3160              1519.2291
 Red. masses --      1.0864                 1.0936                 1.0825
 Frc consts  --      1.4654                 1.4834                 1.4721
 IR Inten    --      0.5192                 4.0610                 5.5865

                     79                     80                     81
                      A                      A                      A
 Frequencies --   1519.9830              1520.8326              1528.4182
 Red. masses --      1.0543                 1.0458                 1.0957
 Frc consts  --      1.4352                 1.4251                 1.5081
 IR Inten    --      4.2914                 0.8158                 2.5412

                     82                     83                     84
                      A                      A                      A
 Frequencies --   1533.4785              1537.6148              1542.4113
 Red. masses --      1.0483                 1.0823                 1.0635
 Frc consts  --      1.4524                 1.5077                 1.4907
 IR Inten    --      5.4921                11.0080                 4.2133

                     85                     86                     87
                      A                      A                      A
 Frequencies --   1546.6994              1550.5093              3004.9885
 Red. masses --      1.0881                 1.0875                 1.0804
 Frc consts  --      1.5337                 1.5403                 5.7482
 IR Inten    --      8.0575                 9.5697                17.3959

                     88                     89                     90
                      A                      A                      A
 Frequencies --   3007.6846              3019.7753              3022.4134
 Red. masses --      1.0554                 1.0673                 1.0649
 Frc consts  --      5.6250                 5.7344                 5.7316
 IR Inten    --     45.0606                25.2827                16.3459

                     91                     92                     93
                      A                      A                      A
 Frequencies --   3027.6433              3030.7067              3035.7879
 Red. masses --      1.0853                 1.0686                 1.0665
 Frc consts  --      5.8614                 5.7831                 5.7911
 IR Inten    --      9.9595                65.9877                21.4408

                     94                     95                     96
                      A                      A                      A
 Frequencies --   3039.5026              3039.5706              3041.3203
 Red. masses --      1.0650                 1.0381                 1.0634
 Frc consts  --      5.7972                 5.6508                 5.7952
 IR Inten    --     10.5298                25.4700                17.0669

                     97                     98                     99
                      A                      A                      A
 Frequencies --   3044.1425              3045.0251              3049.8074
 Red. masses --      1.0490                 1.0673                 1.0956
 Frc consts  --      5.7276                 5.8308                 6.0039
 IR Inten    --     39.2910                32.6614                71.4559

                    100                    101                    102
                      A                      A                      A
 Frequencies --   3061.4060              3065.9173              3071.3433
 Red. masses --      1.0930                 1.0979                 1.0923
 Frc consts  --      6.0355                 6.0803                 6.0707
 IR Inten    --     97.8458                47.8798                47.7123

                    103                    104                    105
                      A                      A                      A
 Frequencies --   3078.0537              3085.4560              3088.8420
 Red. masses --      1.1048                 1.1035                 1.1013
 Frc consts  --      6.1670                 6.1895                 6.1907
 IR Inten    --     24.6933               106.4378                22.3226

                    106                    107                    108
                      A                      A                      A
 Frequencies --   3101.5993              3107.5055              3116.1034
 Red. masses --      1.1005                 1.1008                 1.1020
 Frc consts  --      6.2376                 6.2631                 6.3047
 IR Inten    --     10.7117                67.3164                40.5739

                    109                    110                    111
                      A                      A                      A
 Frequencies --   3118.8678              3138.5005              3496.1025
 Red. masses --      1.0898                 1.0998                 1.0744
 Frc consts  --      6.2456                 6.3829                 7.7376
 IR Inten    --     29.0094                29.3788                 2.2559

 - Thermochemistry -
 -------------------
 Temperature   298.150 Kelvin.  Pressure   1.00000 Atm.
 Atom     1 has atomic number  6 and mass  12.00000

 Molecular mass:   199.19361 amu.
 Principal axes and moments of inertia in atomic units:
                           1         2         3
     Eigenvalues --  1626.745105700.514996100.23112
           X            0.99999   0.00372   0.00286
           Y           -0.00372   0.99999  -0.00067
           Z           -0.00286   0.00066   1.00000
 This molecule is an asymmetric top.
 Rotational symmetry number  1.
 Warning -- assumption of classical behavior for rotation
           may cause significant error
 Rotational temperatures (Kelvin)      0.05324     0.01519     0.01420
 Rotational constants (GHZ):           1.10942     0.31659     0.29585
 Zero-point vibrational energy     957414.9 (Joules/Mol)
                                  228.82765 (Kcal/Mol)
 Warning -- explicit consideration of  24 degrees of freedom as
           vibrations may cause significant error
 Vibrational temperatures:     24.06    34.32    48.51    91.39   140.51
          (Kelvin)            193.67   237.63   249.12   318.06   325.72
                              355.64   362.43   434.63   450.39   484.72
                              539.22   580.47   607.72   637.07   689.69
                              693.60   706.79   788.96   891.56  1088.59
                             1159.23  1188.32  1195.30  1224.40  1254.79
                             1260.43  1277.33  1306.73  1344.80  1358.75
                             1379.38  1399.31  1417.22  1430.68  1451.83
                             1498.81  1508.78  1525.34  1552.28  1588.17
                             1592.73  1625.94  1642.36  1677.87  1691.21
                             1719.40  1733.36  1745.46  1789.40  1836.76
                             1864.98  1877.92  1884.84  1901.89  1935.66
                             1943.37  1971.11  1990.77  2001.02  2006.71
                             2019.42  2020.27  2024.23  2033.27  2047.70
                             2055.19  2058.81  2087.07  2148.70  2166.65
                             2176.97  2183.08  2185.83  2186.92  2188.14
                             2199.05  2206.33  2212.28  2219.19  2225.36
                             2230.84  4323.51  4327.39  4344.78  4348.58
                             4356.10  4360.51  4367.82  4373.17  4373.26
                             4375.78  4379.84  4381.11  4387.99  4404.68
                             4411.17  4418.98  4428.63  4439.28  4444.15
                             4462.51  4471.01  4483.38  4487.36  4515.60
                             5030.11

 Zero-point correction=                           0.364660 (Hartree/Particle)
 Thermal correction to Energy=                    0.380487
 Thermal correction to Enthalpy=                  0.381432
 Thermal correction to Gibbs Free Energy=         0.319492
 Sum of electronic and zero-point Energies=           -601.964091
 Sum of electronic and thermal Energies=              -601.948264
 Sum of electronic and thermal Enthalpies=            -601.947320
 Sum of electronic and thermal Free Energies=         -602.009259

                     E (Thermal)             CV                S
                      KCal/Mol        Cal/Mol-Kelvin    Cal/Mol-Kelvin
 Total                  238.759             60.132            130.362
 Electronic               0.000              0.000              0.000
 Translational            0.889              2.981             41.772
 Rotational               0.889              2.981             32.403
 Vibrational            236.982             54.170             56.187
 Vibration     1          0.593              1.986              6.989
 Vibration     2          0.593              1.985              6.285
 Vibration     3          0.594              1.983              5.598
 Vibration     4          0.597              1.972              4.345
 Vibration     5          0.603              1.951              3.501
 Vibration     6          0.613              1.919              2.879
 Vibration     7          0.624              1.885              2.490
 Vibration     8          0.627              1.876              2.401
 Vibration     9          0.648              1.809              1.950
 Vibration    10          0.650              1.801              1.907
 Vibration    11          0.661              1.767              1.751
 Vibration    12          0.664              1.760              1.717
 Vibration    13          0.694              1.670              1.405
 Vibration    14          0.701              1.649              1.346
 Vibration    15          0.718              1.602              1.227
 Vibration    16          0.746              1.524              1.060
 Vibration    17          0.769              1.463              0.950
 Vibration    18          0.785              1.422              0.884
 Vibration    19          0.802              1.377              0.818
 Vibration    20          0.836              1.296              0.712
 Vibration    21          0.838              1.290              0.704
 Vibration    22          0.847              1.269              0.680
 Vibration    23          0.904              1.143              0.548
 Vibration    24          0.980              0.990              0.417

                           ! Non-Optimized Parameters !
 Normal termination of Gaussian 16 at Thu Dec 10 10:19:36 2020.

 ----------------------------------------------------------------------
 # B3LYP/6-311++G(d,p) empiricaldispersion=gd3bj scf=xqc pop=npa geom=c
 heck
 ----------------------------------------------------------------------

 --------------------------------------
 CID_82710432_JID_4568_Energie_neutraal
 --------------------------------------
 Structure from the checkpoint file:  "JID_4568.chk"
 Charge =  0 Multiplicity = 1

 SCF Done:  E(RB3LYP) =  -602.499438732     A.U. after   13 cycles
 Normal termination of Gaussian 16 at Thu Dec 10 10:24:57 2020.

 ----------------------------------------------------------------------
 # B3LYP/6-311++G(d,p) empiricaldispersion=gd3bj scf=xqc pop=npa geom=c
 heck
 ----------------------------------------------------------------------

 ------------------------------------
 CID_82710432_JID_4568_Energie_kation
 ------------------------------------
 Structure from the checkpoint file:  "JID_4568.chk"
 Charge =  1 Multiplicity = 2

 SCF Done:  E(UB3LYP) =  -602.181488739     A.U. after   24 cycles
 Normal termination of Gaussian 16 at Thu Dec 10 10:44:11 2020.
 Gaussian 16:  ES64L-G16RevA.03 25-Dec-2016

 ----------------------------------------------------------------------
 # B3LYP/6-311++G(d,p) empiricaldispersion=gd3bj scf=xqc pop=npa geom=c
 heck
 ----------------------------------------------------------------------

 -----------------------------------
 CID_82710432_JID_4568_Energie_anion
 -----------------------------------
 Structure from the checkpoint file:  "JID_4568.chk"
 Charge = -1 Multiplicity = 2

                         Standard orientation:
 ---------------------------------------------------------------------
 Center     Atomic      Atomic             Coordinates (Angstroms)
 Number     Number       Type             X           Y           Z
 ---------------------------------------------------------------------
      1          6           0        3.051515    1.146335    1.339429
      2          6           0        3.388259    0.766531   -0.107069
      3          6           0        4.903252    0.680935   -0.326343
      4          6           0        2.731931   -0.554909   -0.501405
      5          8           0        1.321353   -0.391244   -0.402232
      6          7           0        0.680492   -1.660963   -0.646492
      7          6           0       -0.088061   -2.009784    0.556939
      8          6           0       -1.059828   -0.950896    1.103182
      9          6           0       -2.458906   -0.890954    0.457040
     10          6           0       -3.305274    0.227894    1.101489
     11          6           0       -2.828243    1.633079    0.699526
     12          6           0       -2.775379    1.797888   -0.826281
     13          6           0       -1.943090    0.689588   -1.488534
     14          6           0       -2.466123   -0.692861   -1.072326
     15          1           0        3.442459    0.393309    2.036355
     16          1           0        1.970127    1.212043    1.486682
     17          1           0        3.497528    2.111412    1.605808
     18          1           0        2.982068    1.540832   -0.773269
     19          1           0        5.347583   -0.094963    0.310102
     20          1           0        5.147830    0.441644   -1.367799
     21          1           0        5.387151    1.631395   -0.076112
     22          1           0        3.005227   -0.838177   -1.528247
     23          1           0        3.062840   -1.363620    0.167283
     24          1           0        0.032220   -1.434104   -1.398765
     25          1           0       -0.615606   -2.942500    0.312796
     26          1           0        0.650360   -2.256089    1.328216
     27          1           0       -1.206444   -1.149150    2.173762
     28          1           0       -0.555645    0.017758    1.044535
     29          1           0       -2.950259   -1.852597    0.667791
     30          1           0       -4.350689    0.105375    0.784058
     31          1           0       -3.295252    0.124169    2.194344
     32          1           0       -1.831022    1.821201    1.118241
     33          1           0       -3.492490    2.388591    1.137431
     34          1           0       -2.374083    2.784913   -1.087513
     35          1           0       -3.799562    1.759010   -1.226136
     36          1           0       -0.888524    0.797547   -1.202966
     37          1           0       -1.983833    0.791442   -2.580430
     38          1           0       -1.912790   -1.496440   -1.574497
     39          1           0       -3.503776   -0.793385   -1.422258
 ---------------------------------------------------------------------

 SCF Done:  E(UB3LYP) =  -602.483624102     A.U. after   28 cycles

 The electronic state is 2-A.
 Alpha  occ. eigenvalues --  -19.05033 -14.25304 -10.11554 -10.09864 -10.08205
 Alpha  occ. eigenvalues --  -10.07205 -10.06901 -10.06606 -10.06434 -10.06378
 Alpha  occ. eigenvalues --  -10.06286 -10.06275 -10.06237 -10.06164  -0.96984
 Alpha  occ. eigenvalues --   -0.76732  -0.73547  -0.70216  -0.66437  -0.64198
 Alpha  occ. eigenvalues --   -0.61187  -0.59260  -0.56916  -0.52310  -0.50954
 Alpha  occ. eigenvalues --   -0.49415  -0.47245  -0.43381  -0.42274  -0.39287
 Alpha  occ. eigenvalues --   -0.38477  -0.37155  -0.36192  -0.34931  -0.34707
 Alpha  occ. eigenvalues --   -0.33359  -0.32382  -0.31664  -0.30183  -0.29610
 Alpha  occ. eigenvalues --   -0.29498  -0.28877  -0.28256  -0.28119  -0.26604
 Alpha  occ. eigenvalues --   -0.25615  -0.24753  -0.24112  -0.23870  -0.23351
 Alpha  occ. eigenvalues --   -0.23008  -0.21074  -0.20203  -0.19880  -0.17369
 Alpha  occ. eigenvalues --   -0.14938   0.04336
 Alpha virt. eigenvalues --    0.05785   0.06915   0.07106   0.07857   0.08290
 Alpha virt. eigenvalues --    0.08399   0.09262   0.09382   0.09875   0.10326
 Alpha virt. eigenvalues --    0.10565   0.11220   0.11744   0.12186   0.12498

  Beta  occ. eigenvalues --  -19.05029 -14.25297 -10.11543 -10.09850 -10.08197
  Beta  occ. eigenvalues --  -10.07196 -10.06870 -10.06587 -10.06419 -10.06367
  Beta  occ. eigenvalues --  -10.06277 -10.06257 -10.06227 -10.06144  -0.96976
  Beta  occ. eigenvalues --   -0.76715  -0.73519  -0.70191  -0.66410  -0.64164
  Beta  occ. eigenvalues --   -0.61155  -0.59211  -0.56878  -0.52269  -0.50909
  Beta  occ. eigenvalues --   -0.49376  -0.47197  -0.43341  -0.42244  -0.39251
  Beta  occ. eigenvalues --   -0.38438  -0.37129  -0.36160  -0.34903  -0.34681
  Beta  occ. eigenvalues --   -0.33333  -0.32356  -0.31638  -0.30149  -0.29578
  Beta  occ. eigenvalues --   -0.29471  -0.28847  -0.28229  -0.28085  -0.26576
  Beta  occ. eigenvalues --   -0.25586  -0.24724  -0.24075  -0.23840  -0.23325
  Beta  occ. eigenvalues --   -0.22982  -0.21047  -0.20170  -0.19843  -0.17356
  Beta  occ. eigenvalues --   -0.14926
  Beta virt. eigenvalues --    0.06227   0.06677   0.07431   0.07613   0.08273
  Beta virt. eigenvalues --    0.08785   0.08793   0.09551   0.09704   0.10238
  Beta virt. eigenvalues --    0.10730   0.10869   0.11453   0.11864   0.12461

 Mulliken charges and spin densities:
               1          2
     1  C    0.424484  -0.935887
     2  C   -0.988890   1.324723
     3  C    0.460970  -1.110340
     4  C    0.267005  -0.708167
     5  O    0.004289   0.018585
     6  N   -0.197616   0.036941
     7  C    0.054617  -0.833509
     8  C   -0.112527  -0.061522
     9  C    0.059634   0.443563
    10  C    0.230030  -0.746418
    11  C   -0.184004   0.003196
    12  C    0.383751  -0.917247
    13  C   -0.532679   0.300503
    14  C    0.366834  -0.897518
    15  H   -0.012502   0.138037
    16  H    0.033575   0.116230
    17  H   -0.138113   0.278504
    18  H    0.004773   0.153561
    19  H   -0.055879   0.188185
    20  H   -0.207075   0.336487
    21  H   -0.283991   0.430541
    22  H    0.047134   0.095341
    23  H    0.074904   0.076360
    24  H    0.189028   0.053768
    25  H   -0.103956   0.275716
    26  H    0.054201   0.109416
    27  H   -0.052169   0.206662
    28  H    0.328746  -0.233941
    29  H   -0.167925   0.384957
    30  H   -0.229583   0.375523
    31  H   -0.182513   0.331320
    32  H   -0.016667   0.134963
    33  H   -0.165539   0.342245
    34  H   -0.132851   0.286131
    35  H   -0.029988   0.160882
    36  H    0.190990  -0.009798
    37  H   -0.068940   0.230645
    38  H   -0.072205   0.212776
    39  H   -0.239351   0.408588
 Sum of Mulliken charges =  -1.00000   1.00000

 Dipole moment (field-independent basis, Debye):
    X=              0.5742    Y=             -1.1751    Z=             -0.1311  Tot=              1.3144
 Quadrupole moment (field-independent basis, Debye-Ang):
   XX=           -188.5373   YY=           -135.0060   ZZ=           -129.2185
   XY=             -6.4074   XZ=              1.8562   YZ=             -1.0002

 Summary of Natural Population Analysis:

                                       Natural Population
                Natural  -----------------------------------------------
    Atom  No    Charge         Core      Valence    Rydberg      Total
 -----------------------------------------------------------------------
      C    1   -0.28415      0.99965     2.27927    0.00523     3.28415
      C    2   -0.12806      0.99961     2.11744    0.01101     3.12806
      C    3   -0.28438      0.99965     2.27911    0.00562     3.28438
      C    4    0.00228      0.99955     1.98688    0.01128     2.99772
      O    5   -0.24067      0.99989     3.23184    0.00893     4.24067
      N    6   -0.17789      0.99974     2.66607    0.01208     3.67789
      C    7   -0.09447      0.99962     2.08294    0.01192     3.09447
      C    8   -0.20601      0.99960     2.19710    0.00932     3.20601
      C    9   -0.10854      0.99959     2.09757    0.01138     3.10854
      C   10   -0.18704      0.99961     2.17805    0.00938     3.18704
      C   11   -0.19129      0.99963     2.18363    0.00803     3.19129
      C   12   -0.18748      0.99963     2.18014    0.00771     3.18748
      C   13   -0.19904      0.99962     2.19079    0.00863     3.19904
      C   14   -0.19044      0.99961     2.18112    0.00971     3.19044
      H   15    0.09447      0.00000     0.40446    0.00107     0.40553
      H   16    0.10595      0.00000     0.39261    0.00144     0.39405
      H   17    0.09783      0.00000     0.40116    0.00101     0.40217
      H   18    0.09565      0.00000     0.40222    0.00213     0.40435
      H   19    0.09591      0.00000     0.40303    0.00107     0.40409
      H   20    0.09927      0.00000     0.39958    0.00114     0.40073
      H   21    0.10145      0.00000     0.39743    0.00111     0.39855
      H   22    0.08251      0.00000     0.41587    0.00162     0.41749
      H   23    0.08014      0.00000     0.41826    0.00160     0.41986
      H   24    0.16912      0.00000     0.32739    0.00349     0.33088
      H   25    0.09563      0.00000     0.40321    0.00115     0.40437
      H   26    0.09439      0.00000     0.40446    0.00115     0.40561
      H   27    0.09996      0.00000     0.39888    0.00116     0.40004
      H   28    0.10538      0.00000     0.39243    0.00218     0.39462
      H   29    0.09646      0.00000     0.40167    0.00187     0.40354
      H   30    0.09599      0.00000     0.40267    0.00135     0.40401
      H   31    0.09842      0.00000     0.40041    0.00116     0.40158
      H   32    0.09358      0.00000     0.40495    0.00147     0.40642
      H   33    0.09804      0.00000     0.40098    0.00099     0.40196
      H   34    0.09753      0.00000     0.40154    0.00093     0.40247
      H   35    0.09161      0.00000     0.40705    0.00134     0.40839
      H   36    0.10044      0.00000     0.39737    0.00219     0.39956
      H   37    0.09721      0.00000     0.40182    0.00097     0.40279
      H   38    0.09183      0.00000     0.40688    0.00129     0.40817
      H   39    0.09841      0.00000     0.40017    0.00143     0.40159
 =======================================================================
   * Total *    0.00000     13.99500    41.83846    0.16654    56.00000

 Normal termination of Gaussian 16 at Thu Dec 10 11:03:21 2020.
