 Gaussian 16, Revision A.03,

 -----------------------------------------------------------
 # opt freq B3LYP/6-31G(d) empiricaldispersion=gd3bj scf=xqc
 -----------------------------------------------------------

 ------------------------------
 CID_82373409_JID_6921_neutraal
 ------------------------------
 Symbolic Z-matrix:
 Charge =  0 Multiplicity = 1

 SCF Done:  E(RB3LYP) =  -1085.76079869     A.U. after   15 cycles
 SCF Done:  E(RB3LYP) =  -1085.76813595     A.U. after   13 cycles
 SCF Done:  E(RB3LYP) =  -1085.76957612     A.U. after   12 cycles
 SCF Done:  E(RB3LYP) =  -1085.77012095     A.U. after   12 cycles
 SCF Done:  E(RB3LYP) =  -1085.77044737     A.U. after   12 cycles
 SCF Done:  E(RB3LYP) =  -1085.77064643     A.U. after   12 cycles
 SCF Done:  E(RB3LYP) =  -1085.77068927     A.U. after   11 cycles
 SCF Done:  E(RB3LYP) =  -1085.77077825     A.U. after   10 cycles
 SCF Done:  E(RB3LYP) =  -1085.77020510     A.U. after   15 cycles
 SCF Done:  E(RB3LYP) =  -1085.77140457     A.U. after   12 cycles
 SCF Done:  E(RB3LYP) =  -1085.77161113     A.U. after    9 cycles
 SCF Done:  E(RB3LYP) =  -1085.77161137     A.U. after    8 cycles
 SCF Done:  E(RB3LYP) =  -1085.77161153     A.U. after    8 cycles
 SCF Done:  E(RB3LYP) =  -1085.77161165     A.U. after    8 cycles
 SCF Done:  E(RB3LYP) =  -1085.77161168     A.U. after    7 cycles
 Optimization completed.
    -- Stationary point found.
 Normal termination of Gaussian 16 at Fri Dec 11 01:15:02 2020.

 --------------------------------------------------------------------
 #N Geom=AllCheck Guess=TCheck SCRF=Check GenChk RB3LYP/6-31G(d) Freq
 --------------------------------------------------------------------

 Structure from the checkpoint file:  "JID_6921.chk"
 ------------------------------
 CID_82373409_JID_6921_neutraal
 ------------------------------
 Charge =  0 Multiplicity = 1

 SCF Done:  E(RB3LYP) =  -1085.77161168     A.U. after    1 cycles

  Exact polarizability: 224.339   2.712 162.183   9.633   0.696  89.095
 Approx polarizability: 320.713   9.483 286.498  23.395  -0.698 134.510

                      1                      2                      3
                      A                      A                      A
 Frequencies --     18.8037                31.7947                49.7355
 Red. masses --      3.1535                 3.5341                 3.7925
 Frc consts  --      0.0007                 0.0021                 0.0055
 IR Inten    --      0.5072                 1.5078                 3.0978

                      4                      5                      6
                      A                      A                      A
 Frequencies --     78.8109               108.4664               141.6441
 Red. masses --      3.3514                 3.0291                 3.4649
 Frc consts  --      0.0123                 0.0210                 0.0410
 IR Inten    --      3.3478                 1.1116                 0.5739

                      7                      8                      9
                      A                      A                      A
 Frequencies --    168.6010               189.8923               196.4986
 Red. masses --      4.2767                 2.0515                 3.3228
 Frc consts  --      0.0716                 0.0436                 0.0756
 IR Inten    --      0.1480                 1.3268                 1.3384

                     10                     11                     12
                      A                      A                      A
 Frequencies --    210.5707               229.8069               250.5734
 Red. masses --      2.0404                 1.4275                 1.7337
 Frc consts  --      0.0533                 0.0444                 0.0641
 IR Inten    --      0.7015                 2.0343                 1.0795

                     13                     14                     15
                      A                      A                      A
 Frequencies --    262.4316               280.6892               311.3879
 Red. masses --      2.4787                 1.7287                 3.0764
 Frc consts  --      0.1006                 0.0802                 0.1757
 IR Inten    --      1.1749                 2.3541                 4.8467

                     16                     17                     18
                      A                      A                      A
 Frequencies --    331.4721               372.6166               391.8285
 Red. masses --      4.9257                 5.0424                 2.5306
 Frc consts  --      0.3189                 0.4125                 0.2289
 IR Inten    --      4.3365                 1.6161                 7.4052

                     19                     20                     21
                      A                      A                      A
 Frequencies --    435.6305               470.8492               511.3571
 Red. masses --      5.1206                 6.3415                 7.3240
 Frc consts  --      0.5725                 0.8283                 1.1284
 IR Inten    --      3.4707                 2.1181                 4.0028

                     22                     23                     24
                      A                      A                      A
 Frequencies --    527.1239               562.1873               588.9517
 Red. masses --      4.8863                 6.3803                 5.0856
 Frc consts  --      0.7999                 1.1881                 1.0393
 IR Inten    --     15.3593                 0.4464                 2.6223

                     25                     26                     27
                      A                      A                      A
 Frequencies --    612.4197               636.6967               669.0005
 Red. masses --      5.9550                 3.5512                 3.8622
 Frc consts  --      1.3159                 0.8482                 1.0184
 IR Inten    --     11.4522                 0.7142                 5.8290

                     28                     29                     30
                      A                      A                      A
 Frequencies --    717.6968               725.9480               779.4437
 Red. masses --      5.0736                 6.7820                 1.6958
 Frc consts  --      1.5397                 2.1058                 0.6070
 IR Inten    --      6.7266                 1.9828               203.4985

                     31                     32                     33
                      A                      A                      A
 Frequencies --    824.0492               833.4467               839.6108
 Red. masses --      1.4080                 5.9726                 1.5131
 Frc consts  --      0.5633                 2.4444                 0.6284
 IR Inten    --     12.2661                44.9675                38.4194

                     34                     35                     36
                      A                      A                      A
 Frequencies --    900.7196               935.2344               959.9952
 Red. masses --      7.3612                 2.5040                 6.0603
 Frc consts  --      3.5187                 1.2904                 3.2906
 IR Inten    --      5.1682                10.4196                12.9723

                     37                     38                     39
                      A                      A                      A
 Frequencies --    997.8337              1082.4520              1089.7061
 Red. masses --      1.5730                 4.1550                 2.6072
 Frc consts  --      0.9228                 2.8684                 1.8241
 IR Inten    --      3.6344                23.8496                13.8983

                     40                     41                     42
                      A                      A                      A
 Frequencies --   1104.3622              1157.1945              1174.1304
 Red. masses --      3.2555                 2.8847                 1.6701
 Frc consts  --      2.3393                 2.2760                 1.3565
 IR Inten    --    102.8455                11.8026                50.5519

                     43                     44                     45
                      A                      A                      A
 Frequencies --   1178.0726              1182.9714              1185.9283
 Red. masses --      2.2476                 1.2653                 1.2695
 Frc consts  --      1.8378                 1.0433                 1.0520
 IR Inten    --    119.2926                 1.2088                 0.8222

                     46                     47                     48
                      A                      A                      A
 Frequencies --   1209.1478              1220.1475              1234.7649
 Red. masses --      1.9086                 1.3792                 1.6686
 Frc consts  --      1.6441                 1.2097                 1.4989
 IR Inten    --     32.1052                 9.3213                38.4080

                     49                     50                     51
                      A                      A                      A
 Frequencies --   1261.6281              1284.7451              1313.1898
 Red. masses --      2.0853                 4.0179                 4.9702
 Frc consts  --      1.9556                 3.9074                 5.0498
 IR Inten    --    249.4632                16.6854               140.8066

                     52                     53                     54
                      A                      A                      A
 Frequencies --   1333.4533              1376.2403              1403.4723
 Red. masses --      1.2922                 1.3498                 5.5965
 Frc consts  --      1.3538                 1.5062                 6.4949
 IR Inten    --      6.2088                31.1008                22.7590

                     55                     56                     57
                      A                      A                      A
 Frequencies --   1444.8431              1480.3073              1486.5959
 Red. masses --      2.8840                 1.1418                 1.6866
 Frc consts  --      3.5472                 1.4742                 2.1961
 IR Inten    --     66.7319                 0.4479               108.5003

                     58                     59                     60
                      A                      A                      A
 Frequencies --   1491.9866              1510.7880              1514.0272
 Red. masses --      1.1094                 1.2019                 1.6398
 Frc consts  --      1.4550                 1.6164                 2.2147
 IR Inten    --      3.1396                 6.7235                14.2711

                     61                     62                     63
                      A                      A                      A
 Frequencies --   1515.7746              1516.2469              1519.9895
 Red. masses --      1.0512                 1.0556                 1.0711
 Frc consts  --      1.4230                 1.4299                 1.4581
 IR Inten    --      6.7844                30.2390                10.8933

                     64                     65                     66
                      A                      A                      A
 Frequencies --   1521.1551              1521.2885              1537.6551
 Red. masses --      1.0480                 1.5855                 1.1081
 Frc consts  --      1.4288                 2.1620                 1.5436
 IR Inten    --      5.5637                11.6282                26.3318

                     67                     68                     69
                      A                      A                      A
 Frequencies --   1547.1451              1604.8835              1623.9741
 Red. masses --      1.0535                 8.8227                 6.7505
 Frc consts  --      1.4857                13.3887                10.4892
 IR Inten    --     12.1378                15.1338               219.2601

                     70                     71                     72
                      A                      A                      A
 Frequencies --   1658.7142              2998.8065              3029.7910
 Red. masses --      6.8027                 1.0522                 1.0344
 Frc consts  --     11.0274                 5.5751                 5.5944
 IR Inten    --    264.7758                45.7649                62.8832

                     73                     74                     75
                      A                      A                      A
 Frequencies --   3062.3380              3068.7082              3083.1039
 Red. masses --      1.0594                 1.0283                 1.0821
 Frc consts  --      5.8538                 5.7053                 6.0605
 IR Inten    --     30.6756                46.0280                48.3272

                     76                     77                     78
                      A                      A                      A
 Frequencies --   3089.9840              3113.8960              3126.7400
 Red. masses --      1.1068                 1.1059                 1.1030
 Frc consts  --      6.2262                 6.3179                 6.3535
 IR Inten    --     40.3918                11.2972                31.2608

                     79                     80                     81
                      A                      A                      A
 Frequencies --   3147.5100              3160.0852              3160.6620
 Red. masses --      1.1072                 1.1081                 1.1002
 Frc consts  --      6.4624                 6.5197                 6.4759
 IR Inten    --     24.8736                35.2537                28.3771

                     82                     83                     84
                      A                      A                      A
 Frequencies --   3234.1106              3248.3517              3494.4520
 Red. masses --      1.0919                 1.0895                 1.0741
 Frc consts  --      6.7288                 6.7731                 7.7277
 IR Inten    --      1.3441                 2.6682                 0.5203

 - Thermochemistry -
 -------------------
 Temperature   298.150 Kelvin.  Pressure   1.00000 Atm.
 Atom     1 has atomic number  6 and mass  12.00000

 Molecular mass:   238.07760 amu.
 Principal axes and moments of inertia in atomic units:
                           1         2         3
     Eigenvalues --  2167.965626215.822987793.10028
           X            0.99997  -0.00714  -0.00422
           Y            0.00713   0.99997  -0.00248
           Z            0.00424   0.00245   0.99999
 This molecule is an asymmetric top.
 Rotational symmetry number  1.
 Warning -- assumption of classical behavior for rotation
           may cause significant error
 Rotational temperatures (Kelvin)      0.03995     0.01393     0.01111
 Rotational constants (GHZ):           0.83246     0.29035     0.23158
 Zero-point vibrational energy     636768.3 (Joules/Mol)
                                  152.19127 (Kcal/Mol)
 Warning -- explicit consideration of  25 degrees of freedom as
           vibrations may cause significant error
 Vibrational temperatures:     27.05    45.75    71.56   113.39   156.06
          (Kelvin)            203.79   242.58   273.21   282.72   302.96
                              330.64   360.52   377.58   403.85   448.02
                              476.91   536.11   563.75   626.78   677.45
                              735.73   758.41   808.86   847.37   881.14
                              916.06   962.54  1032.61  1044.48  1121.45
                             1185.62  1199.14  1208.01  1295.93  1345.59
                             1381.22  1435.66  1557.41  1567.84  1588.93
                             1664.94  1689.31  1694.98  1702.03  1706.29
                             1739.69  1755.52  1776.55  1815.20  1848.46
                             1889.39  1918.54  1980.10  2019.28  2078.81
                             2129.83  2138.88  2146.64  2173.69  2178.35
                             2180.86  2181.54  2186.93  2188.60  2188.79
                             2212.34  2226.00  2309.07  2336.54  2386.52
                             4314.61  4359.19  4406.02  4415.19  4435.90
                             4445.80  4480.20  4498.68  4528.56  4546.66
                             4547.49  4653.16  4673.65  5027.74

 Zero-point correction=                           0.242532 (Hartree/Particle)
 Thermal correction to Energy=                    0.258527
 Thermal correction to Enthalpy=                  0.259471
 Thermal correction to Gibbs Free Energy=         0.197438
 Sum of electronic and zero-point Energies=          -1085.529079
 Sum of electronic and thermal Energies=             -1085.513085
 Sum of electronic and thermal Enthalpies=           -1085.512140
 Sum of electronic and thermal Free Energies=        -1085.574174

                     E (Thermal)             CV                S
                      KCal/Mol        Cal/Mol-Kelvin    Cal/Mol-Kelvin
 Total                  162.228             58.826            130.560
 Electronic               0.000              0.000              0.000
 Translational            0.889              2.981             42.304
 Rotational               0.889              2.981             33.018
 Vibrational            160.451             52.865             55.239
 Vibration     1          0.593              1.986              6.757
 Vibration     2          0.594              1.983              5.714
 Vibration     3          0.595              1.978              4.828
 Vibration     4          0.600              1.963              3.920
 Vibration     5          0.606              1.942              3.296
 Vibration     6          0.615              1.912              2.782
 Vibration     7          0.625              1.881              2.451
 Vibration     8          0.633              1.854              2.229
 Vibration     9          0.636              1.845              2.166
 Vibration    10          0.643              1.825              2.039
 Vibration    11          0.652              1.795              1.880
 Vibration    12          0.663              1.762              1.727
 Vibration    13          0.670              1.742              1.646
 Vibration    14          0.680              1.709              1.529
 Vibration    15          0.700              1.652              1.355
 Vibration    16          0.714              1.613              1.253
 Vibration    17          0.744              1.528              1.069
 Vibration    18          0.759              1.488              0.993
 Vibration    19          0.796              1.393              0.840
 Vibration    20          0.828              1.315              0.735
 Vibration    21          0.866              1.225              0.630
 Vibration    22          0.882              1.190              0.594
 Vibration    23          0.918              1.113              0.519
 Vibration    24          0.946              1.055              0.469
 Vibration    25          0.972              1.006              0.429

 Optimization completed.
    -- Stationary point found.
 Normal termination of Gaussian 16 at Fri Dec 11 01:23:46 2020.

 ----------------------------------------------------------------------
 # B3LYP/6-311++G(d,p) empiricaldispersion=gd3bj scf=xqc pop=npa geom=c
 heck
 ----------------------------------------------------------------------

 --------------------------------------
 CID_82373409_JID_6921_Energie_neutraal
 --------------------------------------
 Structure from the checkpoint file:  "JID_6921.chk"
 Charge =  0 Multiplicity = 1

 SCF Done:  E(RB3LYP) =  -1085.98672625     A.U. after   16 cycles
 Normal termination of Gaussian 16 at Fri Dec 11 01:27:46 2020.

 ----------------------------------------------------------------------
 # B3LYP/6-311++G(d,p) empiricaldispersion=gd3bj scf=xqc pop=npa geom=c
 heck
 ----------------------------------------------------------------------

 ------------------------------------
 CID_82373409_JID_6921_Energie_kation
 ------------------------------------
 Structure from the checkpoint file:  "JID_6921.chk"
 Charge =  1 Multiplicity = 2

 SCF Done:  E(UB3LYP) =  -1085.71440785     A.U. after   26 cycles
 Normal termination of Gaussian 16 at Fri Dec 11 01:36:19 2020.
 Gaussian 16:  ES64L-G16RevA.03 25-Dec-2016

 ----------------------------------------------------------------------
 # B3LYP/6-311++G(d,p) empiricaldispersion=gd3bj scf=xqc pop=npa geom=c
 heck
 ----------------------------------------------------------------------

 -----------------------------------
 CID_82373409_JID_6921_Energie_anion
 -----------------------------------
 Structure from the checkpoint file:  "JID_6921.chk"
 Charge = -1 Multiplicity = 2

                         Standard orientation:
 ---------------------------------------------------------------------
 Center     Atomic      Atomic             Coordinates (Angstroms)
 Number     Number       Type             X           Y           Z
 ---------------------------------------------------------------------
      1          6           0       -3.921743    0.387174    1.611390
      2          7           0       -4.254071   -0.539812    0.531823
      3          6           0       -3.531976   -0.279586   -0.713814
      4          6           0       -2.029393   -0.329779   -0.596743
      5          7           0       -1.266324    0.705548   -0.484952
      6          6           0        0.063364    0.359873   -0.275213
      7          6           0        1.159236    1.235904   -0.120396
      8          6           0        2.435562    0.696824    0.082263
      9          6           0        2.642560   -0.686501    0.134087
     10          6           0        1.575917   -1.581568   -0.013679
     11          6           0        0.315518   -1.039908   -0.212240
     12         16           0       -1.196056   -1.903301   -0.439017
     13          8           0        3.863334   -1.261325    0.328431
     14          6           0        4.987884   -0.410802    0.482744
     15          8           0        1.123499    2.591207   -0.146321
     16          6           0       -0.107892    3.296248   -0.302168
     17          1           0       -4.205123    1.401070    1.306830
     18          1           0       -2.855544    0.409543    1.889523
     19          1           0       -4.508857    0.123734    2.496559
     20          1           0       -4.069293   -1.494822    0.833727
     21          1           0       -3.876230   -1.001060   -1.463448
     22          1           0       -3.794265    0.724338   -1.064337
     23          1           0        3.249988    1.399581    0.197171
     24          1           0        1.759605   -2.648181    0.029990
     25          1           0        5.146965    0.210726   -0.407816
     26          1           0        4.883102    0.238872    1.361214
     27          1           0        5.844861   -1.071967    0.621180
     28          1           0       -0.584220    3.063433   -1.257687
     29          1           0       -0.808326    3.058920    0.502850
     30          1           0        0.168106    4.352140   -0.263840
 ---------------------------------------------------------------------

 SCF Done:  E(UB3LYP) =  -1085.97498637     A.U. after   33 cycles
 SCF Done:  E(UB3LYP) =  -1085.97498637     a.u. after    1 cycles

 The electronic state is 2-A.
 Alpha  occ. eigenvalues --  -88.76012 -19.05338 -19.05146 -14.20294 -14.19476
 Alpha  occ. eigenvalues --  -10.13384 -10.12883 -10.12238 -10.12105 -10.11020
 Alpha  occ. eigenvalues --  -10.10308 -10.10027 -10.09584 -10.08835 -10.06514
 Alpha  occ. eigenvalues --  -10.06296  -7.84675  -5.80969  -5.80633  -5.80227
 Alpha  occ. eigenvalues --   -0.96942  -0.96757  -0.85113  -0.80544  -0.74393
 Alpha  occ. eigenvalues --   -0.68847  -0.65746  -0.64833  -0.61053  -0.59685
 Alpha  occ. eigenvalues --   -0.58567  -0.54452  -0.49314  -0.48928  -0.46059
 Alpha  occ. eigenvalues --   -0.42439  -0.41064  -0.40323  -0.39283  -0.37389
 Alpha  occ. eigenvalues --   -0.37095  -0.36683  -0.35117  -0.34619  -0.33889
 Alpha  occ. eigenvalues --   -0.32223  -0.31161  -0.30614  -0.29589  -0.28524
 Alpha  occ. eigenvalues --   -0.27779  -0.26664  -0.26152  -0.26010  -0.24907
 Alpha  occ. eigenvalues --   -0.23858  -0.22959  -0.19668  -0.17570  -0.16675
 Alpha  occ. eigenvalues --   -0.13486  -0.12245  -0.10209   0.04540
 Alpha virt. eigenvalues --    0.05809   0.06875   0.07388   0.08281   0.08586
 Alpha virt. eigenvalues --    0.09133   0.09245   0.09402   0.10131   0.10633
 Alpha virt. eigenvalues --    0.11125   0.11310   0.11957   0.12606   0.12887

  Beta  occ. eigenvalues --  -88.75994 -19.05311 -19.05120 -14.20244 -14.19359
  Beta  occ. eigenvalues --  -10.13292 -10.12786 -10.12197 -10.12100 -10.10740
  Beta  occ. eigenvalues --  -10.10267 -10.10036 -10.09593 -10.08819 -10.06534
  Beta  occ. eigenvalues --  -10.06328  -7.84658  -5.80963  -5.80629  -5.80167
  Beta  occ. eigenvalues --   -0.96874  -0.96690  -0.84844  -0.80443  -0.74284
  Beta  occ. eigenvalues --   -0.68725  -0.65637  -0.64635  -0.60996  -0.59647
  Beta  occ. eigenvalues --   -0.58519  -0.54314  -0.49234  -0.48818  -0.45877
  Beta  occ. eigenvalues --   -0.42355  -0.40999  -0.40232  -0.39237  -0.37232
  Beta  occ. eigenvalues --   -0.36949  -0.36581  -0.34950  -0.34581  -0.33775
  Beta  occ. eigenvalues --   -0.32170  -0.31093  -0.30339  -0.29536  -0.28437
  Beta  occ. eigenvalues --   -0.27637  -0.26616  -0.26007  -0.25742  -0.24700
  Beta  occ. eigenvalues --   -0.23809  -0.22898  -0.19201  -0.17274  -0.16542
  Beta  occ. eigenvalues --   -0.13329  -0.12021  -0.09769
  Beta virt. eigenvalues --    0.06616   0.06998   0.07484   0.08167   0.08830
  Beta virt. eigenvalues --    0.08852   0.09163   0.09465   0.09855   0.10419
  Beta virt. eigenvalues --    0.10788   0.11196   0.11495   0.11978   0.12700

 Mulliken charges and spin densities:
               1          2
     1  C   -0.043054  -0.390493
     2  N   -0.177448   0.122326
     3  C    0.732132  -1.197772
     4  C   -0.588305   0.797740
     5  N    0.207566   0.041017
     6  C    1.299137  -0.809688
     7  C   -0.239790  -0.356794
     8  C   -0.282473  -0.036194
     9  C   -1.069106   0.815973
    10  C   -0.850777   0.256999
    11  C    1.096986   0.129052
    12  S   -0.687469  -0.136483
    13  O   -0.209299   0.046155
    14  C    0.855372  -1.206803
    15  O   -0.213339   0.010145
    16  C   -0.146391  -0.144820
    17  H    0.017559   0.116756
    18  H    0.090841   0.066862
    19  H   -0.067690   0.194271
    20  H    0.020515   0.206933
    21  H   -0.267920   0.459837
    22  H    0.045721   0.130764
    23  H    0.069314   0.135503
    24  H    0.146420   0.041718
    25  H   -0.261819   0.418018
    26  H   -0.050234   0.195118
    27  H   -0.741928   0.925568
    28  H    0.121148   0.051687
    29  H    0.152714   0.020357
    30  H    0.041618   0.096247
 Sum of Mulliken charges =  -1.00000   1.00000

 Dipole moment (field-independent basis, Debye):
    X=             -2.8843    Y=              1.7311    Z=              0.2634  Tot=              3.3743
 Quadrupole moment (field-independent basis, Debye-Ang):
   XX=           -217.8915   YY=           -128.1215   ZZ=           -123.6208
   XY=             -0.5253   XZ=             -4.2538   YZ=             -0.5643

 Summary of Natural Population Analysis:

                                       Natural Population
                Natural  -----------------------------------------------
    Atom  No    Charge         Core      Valence    Rydberg      Total
 -----------------------------------------------------------------------
      C    1   -0.17994      0.99965     2.17309    0.00719     3.17994
      N    2   -0.33014      0.99977     2.81693    0.01345     3.83014
      C    3   -0.11468      0.99955     2.10039    0.01474     3.11468
      C    4    0.09194      0.99960     1.89062    0.01784     2.90806
      N    5   -0.23889      0.99961     2.72768    0.01159     3.73889
      C    6    0.00899      0.99940     1.97976    0.01185     2.99101
      C    7    0.19029      0.99935     1.79794    0.01242     2.80971
      C    8   -0.18009      0.99950     2.17107    0.00952     3.18009
      C    9    0.18450      0.99940     1.80235    0.01375     2.81550
      C   10   -0.15420      0.99946     2.14460    0.01014     3.15420
      C   11   -0.07792      0.99944     2.06851    0.00997     3.07792
      S   12    0.15526      4.99944     2.82777    0.01753     7.84474
      O   13   -0.27298      0.99985     3.26318    0.00995     4.27298
      C   14   -0.10065      0.99960     2.09175    0.00930     3.10065
      O   15   -0.27152      0.99985     3.26259    0.00908     4.27152
      C   16   -0.09638      0.99960     2.08884    0.00794     3.09638
      H   17    0.09017      0.00000     0.40852    0.00132     0.40983
      H   18    0.08540      0.00000     0.41291    0.00169     0.41460
      H   19    0.09083      0.00000     0.40817    0.00100     0.40917
      H   20    0.17157      0.00000     0.32592    0.00250     0.32843
      H   21    0.10317      0.00000     0.39497    0.00186     0.39683
      H   22    0.10221      0.00000     0.39633    0.00147     0.39779
      H   23    0.10946      0.00000     0.38880    0.00174     0.39054
      H   24    0.10657      0.00000     0.39198    0.00146     0.39343
      H   25    0.08579      0.00000     0.41215    0.00206     0.41421
      H   26    0.08240      0.00000     0.41617    0.00143     0.41760
      H   27    0.09446      0.00000     0.40385    0.00169     0.40554
      H   28    0.09088      0.00000     0.40763    0.00149     0.40912
      H   29    0.09043      0.00000     0.40814    0.00143     0.40957
      H   30    0.08307      0.00000     0.41590    0.00103     0.41693
 =======================================================================
   * Total *    0.00000     19.99308    42.79848    0.20844    63.00000

 Normal termination of Gaussian 16 at Fri Dec 11 01:47:21 2020.
