 Gaussian 16, Revision A.03,

 -----------------------------------------------------------
 # opt freq B3LYP/6-31G(d) empiricaldispersion=gd3bj scf=xqc
 -----------------------------------------------------------

 -------------------------------
 CID_129999727_JID_1292_neutraal
 -------------------------------
 Symbolic Z-matrix:
 Charge =  0 Multiplicity = 1

 SCF Done:  E(RB3LYP) =  -555.031667159     A.U. after   14 cycles
 SCF Done:  E(RB3LYP) =  -555.035499517     A.U. after   12 cycles
 SCF Done:  E(RB3LYP) =  -555.034364913     A.U. after   12 cycles
 SCF Done:  E(RB3LYP) =  -555.034920716     A.U. after   12 cycles
 SCF Done:  E(RB3LYP) =  -555.036143420     A.U. after   10 cycles
 SCF Done:  E(RB3LYP) =  -555.036289936     A.U. after   12 cycles
 SCF Done:  E(RB3LYP) =  -555.036502109     A.U. after   11 cycles
 SCF Done:  E(RB3LYP) =  -555.036600844     A.U. after   11 cycles
 SCF Done:  E(RB3LYP) =  -555.036614142     A.U. after   10 cycles
 SCF Done:  E(RB3LYP) =  -555.036619486     A.U. after    8 cycles
 SCF Done:  E(RB3LYP) =  -555.036619650     A.U. after    7 cycles
 Optimization completed.
    -- Stationary point found.
 Normal termination of Gaussian 16 at Tue Dec  8 19:37:52 2020.

 --------------------------------------------------------------------
 #N Geom=AllCheck Guess=TCheck SCRF=Check GenChk RB3LYP/6-31G(d) Freq
 --------------------------------------------------------------------

 Structure from the checkpoint file:  "JID_1292.chk"
 -------------------------------
 CID_129999727_JID_1292_neutraal
 -------------------------------
 Charge =  0 Multiplicity = 1

 SCF Done:  E(RB3LYP) =  -555.036619650     A.U. after    1 cycles

  Exact polarizability:  95.598  -0.586  86.649  -0.259  -1.199  74.270
 Approx polarizability: 132.390  -1.319 119.383   1.092  -5.474 112.764

                      1                      2                      3
                      A                      A                      A
 Frequencies --     57.8087               109.4657               166.5102
 Red. masses --      8.6714                 3.8950                 3.7711
 Frc consts  --      0.0171                 0.0275                 0.0616
 IR Inten    --      0.7371                 1.6776                 4.4665

                      4                      5                      6
                      A                      A                      A
 Frequencies --    197.8377               211.2669               228.1423
 Red. masses --      5.0463                 4.3482                 2.8496
 Frc consts  --      0.1164                 0.1143                 0.0874
 IR Inten    --      1.4953                 1.4234                 2.7547

                      7                      8                      9
                      A                      A                      A
 Frequencies --    286.2292               341.2136               369.3669
 Red. masses --      2.7130                 2.3188                 3.6808
 Frc consts  --      0.1310                 0.1591                 0.2959
 IR Inten    --      1.0542                 0.6231                 2.0694

                     10                     11                     12
                      A                      A                      A
 Frequencies --    401.4711               484.4451               511.4059
 Red. masses --      3.3766                 3.3890                 2.6502
 Frc consts  --      0.3207                 0.4686                 0.4084
 IR Inten    --      2.0148                 1.1730                 1.8601

                     13                     14                     15
                      A                      A                      A
 Frequencies --    532.1889               551.1201               626.7179
 Red. masses --      2.5361                 3.8969                 1.8461
 Frc consts  --      0.4232                 0.6974                 0.4272
 IR Inten    --     16.2962                30.6687                28.9867

                     16                     17                     18
                      A                      A                      A
 Frequencies --    652.6384               695.5562               745.8472
 Red. masses --      1.1160                 1.6805                 2.6835
 Frc consts  --      0.2801                 0.4790                 0.8795
 IR Inten    --    127.4925               131.0861                32.0205

                     19                     20                     21
                      A                      A                      A
 Frequencies --    786.7552               824.0007               855.1503
 Red. masses --      1.7235                 3.0436                 2.1473
 Frc consts  --      0.6285                 1.2176                 0.9252
 IR Inten    --     34.8250                14.5861                 8.9129

                     22                     23                     24
                      A                      A                      A
 Frequencies --    876.2663               926.1595               950.2026
 Red. masses --      2.4567                 1.6097                 2.0206
 Frc consts  --      1.1114                 0.8135                 1.0749
 IR Inten    --      7.1644                 9.3782                 5.3945

                     25                     26                     27
                      A                      A                      A
 Frequencies --    995.9108              1038.7942              1060.5565
 Red. masses --      2.7123                 1.7949                 2.3839
 Frc consts  --      1.5850                 1.1412                 1.5798
 IR Inten    --      5.1499                23.3340                11.1575

                     28                     29                     30
                      A                      A                      A
 Frequencies --   1095.0497              1111.6709              1127.0965
 Red. masses --      1.5744                 4.4576                 1.9122
 Frc consts  --      1.1123                 3.2457                 1.4312
 IR Inten    --      5.1685                79.2638                10.7610

                     31                     32                     33
                      A                      A                      A
 Frequencies --   1141.3123              1157.0125              1201.6749
 Red. masses --      1.8750                 3.8249                 1.6163
 Frc consts  --      1.4390                 3.0168                 1.3751
 IR Inten    --     11.5207                55.0325               168.0342

                     34                     35                     36
                      A                      A                      A
 Frequencies --   1223.6313              1246.4659              1256.9632
 Red. masses --      1.5748                 1.3324                 1.3045
 Frc consts  --      1.3892                 1.2197                 1.2143
 IR Inten    --     66.9586                 2.8076                10.9496

                     37                     38                     39
                      A                      A                      A
 Frequencies --   1295.0348              1329.2818              1342.4177
 Red. masses --      1.3181                 1.2843                 1.3087
 Frc consts  --      1.3024                 1.3371                 1.3896
 IR Inten    --      7.8741                 6.3503                12.9174

                     40                     41                     42
                      A                      A                      A
 Frequencies --   1363.4748              1376.5788              1386.2767
 Red. masses --      1.2922                 1.5377                 1.3928
 Frc consts  --      1.4154                 1.7168                 1.5770
 IR Inten    --      2.8528                27.1555                 1.2499

                     43                     44                     45
                      A                      A                      A
 Frequencies --   1403.5328              1414.4744              1432.5027
 Red. masses --      1.5932                 1.5448                 1.4714
 Frc consts  --      1.8491                 1.8210                 1.7790
 IR Inten    --     21.7471                33.8983                10.3043

                     46                     47                     48
                      A                      A                      A
 Frequencies --   1441.5997              1465.4982              1506.6932
 Red. masses --      1.4909                 1.2187                 1.2600
 Frc consts  --      1.8256                 1.5421                 1.6853
 IR Inten    --     25.0363                59.2806                10.9969

                     49                     50                     51
                      A                      A                      A
 Frequencies --   1514.5496              1521.1740              1534.4138
 Red. masses --      1.1370                 1.1069                 1.1057
 Frc consts  --      1.5367                 1.5092                 1.5338
 IR Inten    --      3.2645                 5.1838                 3.2010

                     52                     53                     54
                      A                      A                      A
 Frequencies --   1537.3083              1798.7022              2919.3459
 Red. masses --      1.0803                 8.6674                 1.0814
 Frc consts  --      1.5043                16.5217                 5.4301
 IR Inten    --      1.6851               266.6073                25.0022

                     55                     56                     57
                      A                      A                      A
 Frequencies --   2927.9258              3032.9465              3042.4103
 Red. masses --      1.0737                 1.0582                 1.0676
 Frc consts  --      5.4230                 5.7353                 5.8222
 IR Inten    --    120.1229                44.3495                26.0185

                     58                     59                     60
                      A                      A                      A
 Frequencies --   3064.3920              3077.1945              3080.6141
 Red. masses --      1.0669                 1.0832                 1.1068
 Frc consts  --      5.9028                 6.0430                 6.1886
 IR Inten    --     31.3994                11.1647                49.7852

                     61                     62                     63
                      A                      A                      A
 Frequencies --   3085.1380              3099.1423              3126.9178
 Red. masses --      1.0881                 1.0966                 1.0985
 Frc consts  --      6.1018                 6.2057                 6.3281
 IR Inten    --     52.9890                28.4500                26.4139

                     64                     65                     66
                      A                      A                      A
 Frequencies --   3486.2738              3652.6458              3673.5749
 Red. masses --      1.0741                 1.0653                 1.0638
 Frc consts  --      7.6919                 8.3741                 8.4587
 IR Inten    --      0.9188               131.8710                41.4169

 - Thermochemistry -
 -------------------
 Temperature   298.150 Kelvin.  Pressure   1.00000 Atm.
 Atom     1 has atomic number  6 and mass  12.00000

 Molecular mass:   159.08954 amu.
 Principal axes and moments of inertia in atomic units:
                           1         2         3
     Eigenvalues --  1237.742081724.396222428.10772
           X            0.99995  -0.00086  -0.01008
           Y            0.00103   0.99985   0.01726
           Z            0.01006  -0.01727   0.99980
 This molecule is an asymmetric top.
 Rotational symmetry number  1.
 Warning -- assumption of classical behavior for rotation
           may cause significant error
 Rotational temperatures (Kelvin)      0.06998     0.05023     0.03567
 Rotational constants (GHZ):           1.45809     1.04659     0.74327
 Zero-point vibrational energy     550138.3 (Joules/Mol)
                                  131.48621 (Kcal/Mol)
 Warning -- explicit consideration of  14 degrees of freedom as
           vibrations may cause significant error
 Vibrational temperatures:     83.17   157.50   239.57   284.64   303.97
          (Kelvin)            328.25   411.82   490.93   531.44   577.63
                              697.01   735.80   765.70   792.94   901.71
                              939.00  1000.75  1073.11  1131.97  1185.55
                             1230.37  1260.75  1332.54  1367.13  1432.89
                             1494.59  1525.90  1575.53  1599.45  1621.64
                             1642.09  1664.68  1728.94  1760.53  1793.39
                             1808.49  1863.27  1912.54  1931.44  1961.74
                             1980.59  1994.54  2019.37  2035.11  2061.05
                             2074.14  2108.52  2167.80  2179.10  2188.63
                             2207.68  2211.84  2587.93  4200.29  4212.63
                             4363.73  4377.35  4408.98  4427.40  4432.32
                             4438.83  4458.97  4498.94  5015.97  5255.34
                             5285.45

 Zero-point correction=                           0.209537 (Hartree/Particle)
 Thermal correction to Energy=                    0.219686
 Thermal correction to Enthalpy=                  0.220630
 Thermal correction to Gibbs Free Energy=         0.174095
 Sum of electronic and zero-point Energies=           -554.827083
 Sum of electronic and thermal Energies=              -554.816934
 Sum of electronic and thermal Enthalpies=            -554.815990
 Sum of electronic and thermal Free Energies=         -554.862525

                     E (Thermal)             CV                S
                      KCal/Mol        Cal/Mol-Kelvin    Cal/Mol-Kelvin
 Total                  137.855             39.784             97.941
 Electronic               0.000              0.000              0.000
 Translational            0.889              2.981             41.102
 Rotational               0.889              2.981             30.028
 Vibrational            136.077             33.822             26.811
 Vibration     1          0.596              1.974              4.531
 Vibration     2          0.606              1.942              3.278
 Vibration     3          0.624              1.884              2.475
 Vibration     4          0.637              1.843              2.153
 Vibration     5          0.643              1.824              2.033
 Vibration     6          0.651              1.798              1.894
 Vibration     7          0.684              1.699              1.496
 Vibration     8          0.721              1.593              1.206
 Vibration     9          0.742              1.535              1.082
 Vibration    10          0.767              1.467              0.957
 Vibration    11          0.841              1.285              0.698
 Vibration    12          0.867              1.225              0.630
 Vibration    13          0.887              1.179              0.582
 Vibration    14          0.906              1.137              0.542

                           ! Non-Optimized Parameters !
 Normal termination of Gaussian 16 at Tue Dec  8 19:43:24 2020.

 ----------------------------------------------------------------------
 # B3LYP/6-311++G(d,p) empiricaldispersion=gd3bj scf=xqc pop=npa geom=c
 heck
 ----------------------------------------------------------------------

 ---------------------------------------
 CID_129999727_JID_1292_Energie_neutraal
 ---------------------------------------
 Structure from the checkpoint file:  "JID_1292.chk"
 Charge =  0 Multiplicity = 1

 SCF Done:  E(RB3LYP) =  -555.217700147     A.U. after   13 cycles
 Normal termination of Gaussian 16 at Tue Dec  8 19:45:40 2020.

 ----------------------------------------------------------------------
 # B3LYP/6-311++G(d,p) empiricaldispersion=gd3bj scf=xqc pop=npa geom=c
 heck
 ----------------------------------------------------------------------

 -------------------------------------
 CID_129999727_JID_1292_Energie_kation
 -------------------------------------
 Structure from the checkpoint file:  "JID_1292.chk"
 Charge =  1 Multiplicity = 2

 SCF Done:  E(UB3LYP) =  -554.892567797     A.U. after   23 cycles
 Normal termination of Gaussian 16 at Tue Dec  8 19:51:33 2020.
 Gaussian 16:  ES64L-G16RevA.03 25-Dec-2016

 ----------------------------------------------------------------------
 # B3LYP/6-311++G(d,p) empiricaldispersion=gd3bj scf=xqc pop=npa geom=c
 heck
 ----------------------------------------------------------------------

 ------------------------------------
 CID_129999727_JID_1292_Energie_anion
 ------------------------------------
 Structure from the checkpoint file:  "JID_1292.chk"
 Charge = -1 Multiplicity = 2

                         Standard orientation:
 ---------------------------------------------------------------------
 Center     Atomic      Atomic             Coordinates (Angstroms)
 Number     Number       Type             X           Y           Z
 ---------------------------------------------------------------------
      1          6           0       -2.419496    0.147918    0.124665
      2          6           0       -1.415648    0.514068    1.227690
      3          6           0        0.048872    0.319732    0.792418
      4          6           0        0.225976   -1.098465    0.187242
      5          7           0       -0.721920   -1.266580   -0.911404
      6          6           0       -2.112631   -1.234021   -0.453352
      7          6           0        1.647468   -1.396273   -0.318799
      8          8           0        2.654767   -0.987116    0.584030
      9          6           0        0.601266    1.389663   -0.129363
     10          8           0        1.786133    1.515256   -0.394777
     11          8           0       -0.313564    2.242401   -0.629933
     12          1           0       -3.438009    0.163107    0.530613
     13          1           0       -2.369831    0.886925   -0.679620
     14          1           0       -1.579056    1.540693    1.571107
     15          1           0       -1.581293   -0.141111    2.093379
     16          1           0        0.701595    0.355288    1.671985
     17          1           0        0.012685   -1.788618    1.027313
     18          1           0       -0.535646   -2.149650   -1.383824
     19          1           0       -2.314535   -2.005553    0.315990
     20          1           0       -2.765844   -1.443404   -1.307467
     21          1           0        1.751129   -2.480704   -0.448423
     22          1           0        1.771912   -0.929938   -1.305539
     23          1           0        2.744902   -0.027835    0.430769
     24          1           0        0.181900    2.866798   -1.194019
 ---------------------------------------------------------------------

 SCF Done:  E(UB3LYP) =  -555.203811239     A.U. after   33 cycles
 SCF Done:  E(UB3LYP) =  -555.203811239     a.u. after    1 cycles

 The electronic state is 2-A.
 Alpha  occ. eigenvalues --  -19.07158 -19.02056 -19.01257 -14.19655 -10.21085
 Alpha  occ. eigenvalues --  -10.11062 -10.10248 -10.08892 -10.08389 -10.06715
 Alpha  occ. eigenvalues --  -10.05498  -1.01556  -0.92707  -0.91467  -0.81607
 Alpha  occ. eigenvalues --   -0.70075  -0.66816  -0.59396  -0.55337  -0.52853
 Alpha  occ. eigenvalues --   -0.49496  -0.46046  -0.41583  -0.41237  -0.39673
 Alpha  occ. eigenvalues --   -0.36885  -0.36351  -0.34966  -0.33789  -0.32866
 Alpha  occ. eigenvalues --   -0.30896  -0.30584  -0.30380  -0.28485  -0.27043
 Alpha  occ. eigenvalues --   -0.23835  -0.23610  -0.22572  -0.22144  -0.21122
 Alpha  occ. eigenvalues --   -0.19008  -0.16859  -0.13140   0.04624
 Alpha virt. eigenvalues --    0.06596   0.07569   0.08044   0.09119   0.09698
 Alpha virt. eigenvalues --    0.10234   0.10477   0.11463   0.11684   0.12981
 Alpha virt. eigenvalues --    0.13253   0.14259   0.14807   0.16080   0.17067

  Beta  occ. eigenvalues --  -19.07107 -19.02038 -19.01250 -14.19626 -10.21071
  Beta  occ. eigenvalues --  -10.11050 -10.10238 -10.08883 -10.08359 -10.06693
  Beta  occ. eigenvalues --  -10.05481  -1.01487  -0.92661  -0.91440  -0.81571
  Beta  occ. eigenvalues --   -0.70029  -0.66774  -0.59347  -0.55258  -0.52770
  Beta  occ. eigenvalues --   -0.49432  -0.45963  -0.41546  -0.41177  -0.39629
  Beta  occ. eigenvalues --   -0.36837  -0.36298  -0.34928  -0.33748  -0.32816
  Beta  occ. eigenvalues --   -0.30851  -0.30541  -0.30325  -0.28441  -0.27008
  Beta  occ. eigenvalues --   -0.23794  -0.23571  -0.22523  -0.22110  -0.21078
  Beta  occ. eigenvalues --   -0.18953  -0.16824  -0.13057
  Beta virt. eigenvalues --    0.07188   0.08088   0.08212   0.08738   0.09500
  Beta virt. eigenvalues --    0.10488   0.10767   0.10828   0.11671   0.12140
  Beta virt. eigenvalues --    0.13410   0.13756   0.14601   0.14899   0.16420

 Mulliken charges and spin densities:
               1          2
     1  C   -0.367178  -0.035988
     2  C    0.776449  -1.387133
     3  C    0.622834  -0.385431
     4  C   -0.837558   0.797378
     5  N   -0.263763   0.146577
     6  C    1.199217  -1.476866
     7  C    0.883889  -1.504944
     8  O   -0.253699   0.029067
     9  C   -0.209375   0.142750
    10  O   -0.314896   0.013880
    11  O   -0.223201   0.085646
    12  H   -0.531099   0.692036
    13  H    0.434778  -0.264149
    14  H   -0.384408   0.578793
    15  H   -0.070613   0.202638
    16  H   -0.072546   0.350907
    17  H   -0.172559   0.340934
    18  H   -0.079557   0.337305
    19  H   -0.148194   0.270376
    20  H   -0.761618   0.925365
    21  H   -0.121437   0.284449
    22  H    0.188268   0.010762
    23  H    0.252243  -0.006467
    24  H   -0.545979   0.852114
 Sum of Mulliken charges =  -1.00000   1.00000

 Dipole moment (field-independent basis, Debye):
    X=              2.8838    Y=             -0.4872    Z=              0.7808  Tot=              3.0271
 Quadrupole moment (field-independent basis, Debye-Ang):
   XX=           -118.0457   YY=           -116.1493   ZZ=            -99.0472
   XY=             -3.6317   XZ=             -1.5568   YZ=              2.3714

 Summary of Natural Population Analysis:

                                       Natural Population
                Natural  -----------------------------------------------
    Atom  No    Charge         Core      Valence    Rydberg      Total
 -----------------------------------------------------------------------
      C    1   -0.19527      0.99962     2.18765    0.00800     3.19527
      C    2   -0.18991      0.99962     2.17994    0.01035     3.18991
      C    3   -0.16210      0.99951     2.14908    0.01351     3.16210
      C    4   -0.01145      0.99958     1.99800    0.01387     3.01145
      N    5   -0.34354      0.99972     2.83167    0.01215     3.84354
      C    6   -0.08495      0.99962     2.07330    0.01202     3.08495
      C    7   -0.01103      0.99956     1.99920    0.01227     3.01103
      O    8   -0.37967      0.99990     3.37290    0.00687     4.37967
      C    9    0.42455      0.99967     1.55004    0.02574     2.57545
      O   10   -0.33021      0.99986     3.32387    0.00648     4.33021
      O   11   -0.33549      0.99987     3.32808    0.00753     4.33549
      H   12    0.09975      0.00000     0.39883    0.00143     0.40025
      H   13    0.10457      0.00000     0.39330    0.00213     0.39543
      H   14    0.10647      0.00000     0.39195    0.00158     0.39353
      H   15    0.09861      0.00000     0.39978    0.00162     0.40139
      H   16    0.12093      0.00000     0.37774    0.00133     0.37907
      H   17    0.08244      0.00000     0.41527    0.00229     0.41756
      H   18    0.17705      0.00000     0.31937    0.00358     0.32295
      H   19    0.07696      0.00000     0.42070    0.00235     0.42304
      H   20    0.09764      0.00000     0.40067    0.00169     0.40236
      H   21    0.08432      0.00000     0.41434    0.00134     0.41568
      H   22    0.08415      0.00000     0.41445    0.00140     0.41585
      H   23    0.24139      0.00000     0.25547    0.00314     0.25861
      H   24    0.24478      0.00000     0.24170    0.01352     0.25522
 =======================================================================
   * Total *   -0.00000     10.99653    31.83728    0.16619    43.00000

 Normal termination of Gaussian 16 at Tue Dec  8 19:59:21 2020.
