 Gaussian 16, Revision A.03,

 -----------------------------------------------------------
 # opt freq B3LYP/6-31G(d) empiricaldispersion=gd3bj scf=xqc
 -----------------------------------------------------------

 -------------------------------
 CID_150627734_JID_6552_neutraal
 -------------------------------
 Symbolic Z-matrix:
 Charge =  0 Multiplicity = 1

 SCF Done:  E(RB3LYP) =  -697.148279481     A.U. after   17 cycles
 SCF Done:  E(RB3LYP) =  -697.152173933     A.U. after   14 cycles
 SCF Done:  E(RB3LYP) =  -697.153203698     A.U. after   14 cycles
 SCF Done:  E(RB3LYP) =  -697.153695414     A.U. after   12 cycles
 SCF Done:  E(RB3LYP) =  -697.153702381     A.U. after    9 cycles
 Optimization completed.
    -- Stationary point found.

 1\1\GINC-NODE114\FOpt\RB3LYP\6-31G(d)\C11H7N5\VSC10255\10-Dec-2020\0\\
 # opt freq B3LYP/6-31G(d) empiricaldispersion=gd3bj scf=xqc\\CID_15062
 7734_JID_6552_neutraal\\0,1\C,0.6891110677,2.7008788162,0.0000172826\C
 ,1.7079388851,1.76796014,-0.0000122576\C,1.4137365893,0.3800302009,-0.
 0001138277\C,2.4092822614,-0.6319582521,-0.0000730464\C,2.0435405364,-
 1.9649671067,-0.0001697036\C,0.6858028601,-2.3635572779,-0.0003788937\
 C,-0.2903845242,-1.3889032409,-0.0004188334\C,0.0410174986,-0.00634096
 68,-0.0002581094\C,-0.9998647355,0.9699306302,-0.0001235605\C,-0.66533

 Normal termination of Gaussian 16 at Thu Dec 10 23:24:39 2020.

 --------------------------------------------------------------------
 #N Geom=AllCheck Guess=TCheck SCRF=Check GenChk RB3LYP/6-31G(d) Freq
 --------------------------------------------------------------------

 Structure from the checkpoint file:  "JID_6552.chk"
 -------------------------------
 CID_150627734_JID_6552_neutraal
 -------------------------------
 Charge =  0 Multiplicity = 1

 SCF Done:  E(RB3LYP) =  -697.153702381     A.U. after    1 cycles

  Exact polarizability: 233.370   2.904 179.380  -0.007   0.006  47.078
 Approx polarizability: 401.426  13.959 354.503  -0.012   0.020  75.934

                      1                      2                      3
                      A                      A                      A
 Frequencies --     51.3825               112.8338               126.5483
 Red. masses --      9.4313                 9.8343                 8.3804
 Frc consts  --      0.0147                 0.0738                 0.0791
 IR Inten    --      0.0353                 0.3711                 1.0016

                      4                      5                      6
                      A                      A                      A
 Frequencies --    154.1120               203.8206               257.1204
 Red. masses --      5.0078                 4.1689                 4.5412
 Frc consts  --      0.0701                 0.1020                 0.1769
 IR Inten    --      1.4599                 7.5524                 0.3172

                      7                      8                      9
                      A                      A                      A
 Frequencies --    279.7160               307.0025               390.5613
 Red. masses --      8.9409                 4.9005                10.0190
 Frc consts  --      0.4122                 0.2721                 0.9004
 IR Inten    --      3.3061                 7.0131                 0.5837

                     10                     11                     12
                      A                      A                      A
 Frequencies --    449.2869               457.1209               475.5485
 Red. masses --      2.0770                 5.3469                 6.3222
 Frc consts  --      0.2470                 0.6583                 0.8424
 IR Inten    --     60.1944                 7.9655                 0.4329

                     13                     14                     15
                      A                      A                      A
 Frequencies --    492.5578               520.4324               540.8414
 Red. masses --      3.1942                 6.5334                 2.0089
 Frc consts  --      0.4566                 1.0426                 0.3462
 IR Inten    --      2.3324                 0.5535                15.4937

                     16                     17                     18
                      A                      A                      A
 Frequencies --    543.6416               557.2999               603.4537
 Red. masses --      6.1904                 7.3963                 7.5818
 Frc consts  --      1.0779                 1.3534                 1.6267
 IR Inten    --     26.2803                 2.5973                 1.3001

                     19                     20                     21
                      A                      A                      A
 Frequencies --    611.1180               649.9534               668.9924
 Red. masses --      5.2350                 3.0772                 3.4984
 Frc consts  --      1.1519                 0.7659                 0.9225
 IR Inten    --      1.8470                 0.0276                 1.0531

                     22                     23                     24
                      A                      A                      A
 Frequencies --    684.9669               756.6250               778.0908
 Red. masses --      7.3821                 7.4321                 1.4202
 Frc consts  --      2.0406                 2.5068                 0.5066
 IR Inten    --     16.0315                15.6879                27.9793

                     25                     26                     27
                      A                      A                      A
 Frequencies --    809.7450               819.2094               831.2154
 Red. masses --      2.0371                 1.7903                 5.4915
 Frc consts  --      0.7870                 0.7079                 2.2355
 IR Inten    --      2.0145                 6.9590                 0.0705

                     28                     29                     30
                      A                      A                      A
 Frequencies --    852.3750               892.8103               899.9184
 Red. masses --      1.8996                 1.4430                 5.9643
 Frc consts  --      0.8132                 0.6777                 2.8459
 IR Inten    --     60.7985                 0.0142                 2.5874

                     31                     32                     33
                      A                      A                      A
 Frequencies --    939.4232               975.5717               978.4736
 Red. masses --      1.3901                 6.5007                 1.2833
 Frc consts  --      0.7228                 3.6453                 0.7239
 IR Inten    --      4.2529                15.6476                 1.0695

                     34                     35                     36
                      A                      A                      A
 Frequencies --   1064.6882              1075.7616              1120.8733
 Red. masses --      5.3164                 2.9380                 2.0330
 Frc consts  --      3.5507                 2.0032                 1.5049
 IR Inten    --     15.6619                 1.8056                 3.3693

                     37                     38                     39
                      A                      A                      A
 Frequencies --   1159.4982              1176.9241              1208.1072
 Red. masses --      1.8503                 2.1489                 1.3330
 Frc consts  --      1.4656                 1.7537                 1.1463
 IR Inten    --     35.8162                45.1633                 1.5359

                     40                     41                     42
                      A                      A                      A
 Frequencies --   1237.9354              1264.3351              1303.9052
 Red. masses --      1.5814                 2.6736                 2.1708
 Frc consts  --      1.4279                 2.5181                 2.1745
 IR Inten    --      7.4077                 1.8244                47.4118

                     43                     44                     45
                      A                      A                      A
 Frequencies --   1361.4247              1399.7574              1414.6550
 Red. masses --      4.6126                 4.6892                 4.4212
 Frc consts  --      5.0371                 5.4132                 5.2131
 IR Inten    --     71.5246               155.2584                28.9600

                     46                     47                     48
                      A                      A                      A
 Frequencies --   1428.0859              1438.9386              1448.0409
 Red. masses --      1.9032                 2.8052                 2.6906
 Frc consts  --      2.2868                 3.4221                 3.3240
 IR Inten    --     24.6881                19.5365               104.4588

                     49                     50                     51
                      A                      A                      A
 Frequencies --   1487.9402              1521.6877              1574.3287
 Red. masses --      3.6563                 2.7933                 3.0000
 Frc consts  --      4.7694                 3.8108                 4.3809
 IR Inten    --      8.4358                 0.3507                18.7891

                     52                     53                     54
                      A                      A                      A
 Frequencies --   1638.1548              1653.2869              1680.6995
 Red. masses --      6.5179                 6.6635                 5.1433
 Frc consts  --     10.3055                10.7312                 8.5600
 IR Inten    --     24.1330               158.4356               214.5774

                     55                     56                     57
                      A                      A                      A
 Frequencies --   1691.7704              2267.2096              3185.0053
 Red. masses --      7.9035                13.9874                 1.0920
 Frc consts  --     13.3276                42.3615                 6.5268
 IR Inten    --    253.7642               814.4689                28.6606

                     58                     59                     60
                      A                      A                      A
 Frequencies --   3185.9495              3196.6500              3202.8949
 Red. masses --      1.0863                 1.0903                 1.0935
 Frc consts  --      6.4966                 6.5642                 6.6093
 IR Inten    --      5.2421                 3.7357                25.7903

                     61                     62                     63
                      A                      A                      A
 Frequencies --   3214.4602              3224.6172              3622.5466
 Red. masses --      1.0914                 1.0933                 1.0779
 Frc consts  --      6.6441                 6.6978                 8.3344
 IR Inten    --      4.8818                 9.2212                53.7448

 - Thermochemistry -
 -------------------
 Temperature   298.150 Kelvin.  Pressure   1.00000 Atm.
 Atom     1 has atomic number  6 and mass  12.00000

 Molecular mass:   209.07015 amu.
 Principal axes and moments of inertia in atomic units:
                           1         2         3
     Eigenvalues --  1664.887014670.625486335.51243
           X            1.00000  -0.00085   0.00002
           Y            0.00085   1.00000  -0.00008
           Z           -0.00002   0.00008   1.00000
 This molecule is an asymmetric top.
 Rotational symmetry number  1.
 Warning -- assumption of classical behavior for rotation
           may cause significant error
 Rotational temperatures (Kelvin)      0.05202     0.01854     0.01367
 Rotational constants (GHZ):           1.08400     0.38640     0.28486
 Zero-point vibrational energy     443347.4 (Joules/Mol)
                                  105.96258 (Kcal/Mol)
 Warning -- explicit consideration of  19 degrees of freedom as
           vibrations may cause significant error
 Vibrational temperatures:     73.93   162.34   182.07   221.73   293.25
          (Kelvin)            369.94   402.45   441.71   561.93   646.42
                              657.70   684.21   708.68   748.79   778.15
                              782.18   801.83   868.24   879.26   935.14
                              962.53   985.51  1088.61  1119.50  1165.04
                             1178.66  1195.93  1226.38  1284.55  1294.78
                             1351.62  1403.63  1407.81  1531.85  1547.78
                             1612.69  1668.26  1693.33  1738.20  1781.11
                             1819.10  1876.03  1958.79  2013.94  2035.37
                             2054.70  2070.31  2083.41  2140.81  2189.37
                             2265.11  2356.94  2378.71  2418.15  2434.08
                             3262.01  4582.51  4583.87  4599.27  4608.25
                             4624.89  4639.50  5212.04

 Zero-point correction=                           0.168862 (Hartree/Particle)
 Thermal correction to Energy=                    0.180169
 Thermal correction to Enthalpy=                  0.181113
 Thermal correction to Gibbs Free Energy=         0.131211
 Sum of electronic and zero-point Energies=           -696.984840
 Sum of electronic and thermal Energies=              -696.973533
 Sum of electronic and thermal Enthalpies=            -696.972589
 Sum of electronic and thermal Free Energies=         -697.022491

                     E (Thermal)             CV                S
                      KCal/Mol        Cal/Mol-Kelvin    Cal/Mol-Kelvin
 Total                  113.058             45.883            105.028
 Electronic               0.000              0.000              0.000
 Translational            0.889              2.981             41.916
 Rotational               0.889              2.981             32.266
 Vibrational            111.280             39.921             30.846
 Vibration     1          0.596              1.977              4.763
 Vibration     2          0.607              1.939              3.220
 Vibration     3          0.611              1.927              2.998
 Vibration     4          0.620              1.898              2.621
 Vibration     5          0.639              1.834              2.098
 Vibration     6          0.667              1.751              1.681
 Vibration     7          0.680              1.711              1.535
 Vibration     8          0.697              1.660              1.378
 Vibration     9          0.758              1.490              0.998
 Vibration    10          0.808              1.362              0.798
 Vibration    11          0.815              1.345              0.775
 Vibration    12          0.832              1.304              0.722
 Vibration    13          0.848              1.267              0.677
 Vibration    14          0.875              1.205              0.609
 Vibration    15          0.896              1.160              0.563
 Vibration    16          0.899              1.154              0.558
 Vibration    17          0.913              1.124              0.529
 Vibration    18          0.962              1.024              0.444
 Vibration    19          0.970              1.008              0.431

                           ! Non-Optimized Parameters !

 1\1\GINC-NODE114\Freq\RB3LYP\6-31G(d)\C11H7N5\VSC10255\10-Dec-2020\0\\
 #N Geom=AllCheck Guess=TCheck SCRF=Check GenChk RB3LYP/6-31G(d) Freq\\
 CID_150627734_JID_6552_neutraal\\0,1\C,0.6891110677,2.7008788162,0.000
 0172826\C,1.7079388851,1.76796014,-0.0000122576\C,1.4137365893,0.38003
 02009,-0.0001138277\C,2.4092822614,-0.6319582521,-0.0000730464\C,2.043
 5405364,-1.9649671067,-0.0001697036\C,0.6858028601,-2.3635572779,-0.00
 03788937\C,-0.2903845242,-1.3889032409,-0.0004188334\C,0.0410174986,-0
 .0063409668,-0.0002581094\C,-0.9998647355,0.9699306302,-0.0001235605\C

 Normal termination of Gaussian 16 at Thu Dec 10 23:32:16 2020.

 ----------------------------------------------------------------------
 # B3LYP/6-311++G(d,p) empiricaldispersion=gd3bj scf=xqc pop=npa geom=c
 heck
 ----------------------------------------------------------------------

 ---------------------------------------
 CID_150627734_JID_6552_Energie_neutraal
 ---------------------------------------
 Structure from the checkpoint file:  "JID_6552.chk"
 Charge =  0 Multiplicity = 1

 SCF Done:  E(RB3LYP) =  -697.329896460     A.U. after   18 cycles
 Normal termination of Gaussian 16 at Thu Dec 10 23:36:02 2020.

 ----------------------------------------------------------------------
 # B3LYP/6-311++G(d,p) empiricaldispersion=gd3bj scf=xqc pop=npa geom=c
 heck
 ----------------------------------------------------------------------

 -------------------------------------
 CID_150627734_JID_6552_Energie_kation
 -------------------------------------
 Structure from the checkpoint file:  "JID_6552.chk"
 Charge =  1 Multiplicity = 2

 SCF Done:  E(UB3LYP) =  -697.072082216     A.U. after   24 cycles
 Normal termination of Gaussian 16 at Thu Dec 10 23:43:09 2020.
 Gaussian 16:  ES64L-G16RevA.03 25-Dec-2016

 ------------------------------------
 CID_150627734_JID_6552_Energie_anion
 ------------------------------------
 Structure from the checkpoint file:  "JID_6552.chk"
 Charge = -1 Multiplicity = 2

                         Standard orientation:
 ---------------------------------------------------------------------
 Center     Atomic      Atomic             Coordinates (Angstroms)
 Number     Number       Type             X           Y           Z
 ---------------------------------------------------------------------
      1          6           0       -1.835476    2.678469    0.000192
      2          6           0       -0.475063    2.438424    0.000163
      3          6           0        0.021913    1.109545    0.000061
      4          6           0        1.405138    0.790293    0.000102
      5          6           0        1.812273   -0.530662    0.000005
      6          6           0        0.880825   -1.595899   -0.000204
      7          6           0       -0.466023   -1.297751   -0.000244
      8          6           0       -0.928734    0.046573   -0.000083
      9          6           0       -2.331030    0.311351    0.000051
     10          6           0       -2.771356    1.626332    0.000166
     11          7           0       -3.260032   -0.740072    0.000224
     12          6           0       -2.792483   -1.938082    0.000125
     13          7           0       -1.461402   -2.275481   -0.000676
     14          7           0        3.172499   -0.940931    0.000104
     15          7           0        4.040607   -0.059310   -0.000071
     16          7           0        4.933833    0.650015   -0.000172
     17          1           0       -2.195231    3.703785    0.000261
     18          1           0        0.230802    3.264060    0.000201
     19          1           0        2.134041    1.595249    0.000230
     20          1           0        1.242315   -2.618501   -0.000367
     21          1           0       -3.838563    1.818543    0.000273
     22          1           0       -3.476998   -2.784166    0.000297
     23          1           0       -1.194814   -3.250083    0.001243
 ---------------------------------------------------------------------

 SCF Done:  E(UB3LYP) =  -697.328949236     A.U. after   33 cycles
 SCF Done:  E(UB3LYP) =  -697.328957587     a.u. after    5 cycles

 The electronic state is 2-A.
 Alpha  occ. eigenvalues --  -14.32929 -14.23771 -14.23636 -14.22837 -14.17769
 Alpha  occ. eigenvalues --  -10.12655 -10.08355 -10.07766 -10.05717 -10.04943
 Alpha  occ. eigenvalues --  -10.04790 -10.03750 -10.03292 -10.01939 -10.01749
 Alpha  occ. eigenvalues --  -10.01718  -1.00228  -0.87193  -0.84800  -0.77829
 Alpha  occ. eigenvalues --   -0.73372  -0.67981  -0.64200  -0.61753  -0.57895
 Alpha  occ. eigenvalues --   -0.53443  -0.51886  -0.50680  -0.44509  -0.43762
 Alpha  occ. eigenvalues --   -0.41210  -0.39345  -0.37854  -0.37201  -0.37057
 Alpha  occ. eigenvalues --   -0.33665  -0.32346  -0.31697  -0.31254  -0.29785
 Alpha  occ. eigenvalues --   -0.29059  -0.28434  -0.25320  -0.24647  -0.23069
 Alpha  occ. eigenvalues --   -0.22764  -0.21125  -0.19027  -0.17545  -0.14903
 Alpha  occ. eigenvalues --   -0.14579  -0.13661  -0.09458  -0.05515   0.05578
 Alpha virt. eigenvalues --    0.06996   0.08662   0.09295   0.09500   0.10051
 Alpha virt. eigenvalues --    0.11035   0.11320   0.11959   0.13286   0.14156
 Alpha virt. eigenvalues --    0.14472   0.14694   0.15093   0.16956   0.17098

  Beta  occ. eigenvalues --  -14.32591 -14.23462 -14.23406 -14.22963 -14.17843
  Beta  occ. eigenvalues --  -10.12561 -10.08101 -10.07582 -10.05443 -10.05027
  Beta  occ. eigenvalues --  -10.04829 -10.03842 -10.03247 -10.01893 -10.01577
  Beta  occ. eigenvalues --  -10.01484  -0.99670  -0.86925  -0.84597  -0.77639
  Beta  occ. eigenvalues --   -0.73160  -0.67691  -0.63807  -0.61556  -0.57544
  Beta  occ. eigenvalues --   -0.53256  -0.51537  -0.50520  -0.44335  -0.43642
  Beta  occ. eigenvalues --   -0.41007  -0.39150  -0.37043  -0.36876  -0.36389
  Beta  occ. eigenvalues --   -0.33323  -0.32016  -0.30980  -0.30830  -0.29626
  Beta  occ. eigenvalues --   -0.28913  -0.28302  -0.25224  -0.23979  -0.22656
  Beta  occ. eigenvalues --   -0.22200  -0.21025  -0.18261  -0.17416  -0.14603
  Beta  occ. eigenvalues --   -0.13913  -0.12894  -0.09042  -0.04270
  Beta virt. eigenvalues --    0.06961   0.09403   0.09496   0.09718   0.10210
  Beta virt. eigenvalues --    0.10712   0.11294   0.11333   0.11957   0.13310
  Beta virt. eigenvalues --    0.14129   0.14505   0.15062   0.15978   0.17060

 Mulliken charges and spin densities:
               1          2
     1  C   -0.218872   0.042950
     2  C   -0.257799   0.154008
     3  C    0.711963  -0.014058
     4  C    0.294653   0.128892
     5  C   -2.071237   0.118563
     6  C   -0.326383  -0.079364
     7  C    0.698844   0.157650
     8  C    0.687768  -0.050865
     9  C   -0.776910   0.110919
    10  C   -0.516035   0.080545
    11  N   -0.139536  -0.034450
    12  C    0.218270   0.071085
    13  N   -0.238738   0.060758
    14  N    0.233433  -0.045244
    15  N    0.109573   0.097246
    16  N   -0.391848   0.204394
    17  H    0.114783  -0.003417
    18  H    0.074108  -0.014064
    19  H    0.124163  -0.010112
    20  H    0.130702   0.009688
    21  H    0.127324  -0.004279
    22  H    0.135393   0.014746
    23  H    0.276381   0.004410
 Sum of Mulliken charges =  -1.00000   1.00000

 Dipole moment (field-independent basis, Debye):
    X=             -2.3433    Y=             -3.8022    Z=             -0.1038  Tot=              4.4675
 Quadrupole moment (field-independent basis, Debye-Ang):
   XX=           -155.5937   YY=            -96.2631   ZZ=           -101.6059
   XY=              3.4767   XZ=             -0.1306   YZ=              0.3362

 Summary of Natural Population Analysis:

                                       Natural Population
                Natural  -----------------------------------------------
    Atom  No    Charge         Core      Valence    Rydberg      Total
 -----------------------------------------------------------------------
      C    1   -0.09304      0.99960     2.08389    0.00954     3.09304
      C    2   -0.06825      0.99943     2.05938    0.00944     3.06825
      C    3   -0.01297      0.99939     2.00450    0.00908     3.01297
      C    4   -0.11801      0.99952     2.10960    0.00889     3.11801
      C    5    0.10510      0.99944     1.88415    0.01131     2.89490
      C    6   -0.17355      0.99952     2.16445    0.00958     3.17355
      C    7    0.13949      0.99936     1.85016    0.01100     2.86051
      C    8   -0.05434      0.99939     2.04715    0.00779     3.05434
      C    9    0.11371      0.99944     1.87348    0.01337     2.88629
      C   10   -0.12050      0.99954     2.11030    0.01066     3.12050
      N   11   -0.27295      0.99969     2.76168    0.01158     3.77295
      C   12    0.16336      0.99968     1.82014    0.01682     2.83664
      N   13   -0.26772      0.99962     2.76017    0.00794     3.76772
      N   14   -0.20694      0.99966     2.69268    0.01460     3.70694
      N   15    0.15042      0.99971     2.33332    0.01655     3.34958
      N   16   -0.01227      0.99982     2.49936    0.01309     3.51227
      H   17    0.08878      0.00000     0.41009    0.00113     0.41122
      H   18    0.08804      0.00000     0.40996    0.00200     0.41196
      H   19    0.09561      0.00000     0.40278    0.00161     0.40439
      H   20    0.09734      0.00000     0.40100    0.00166     0.40266
      H   21    0.09507      0.00000     0.40316    0.00177     0.40493
      H   22    0.07515      0.00000     0.42353    0.00132     0.42485
      H   23    0.18850      0.00000     0.30901    0.00250     0.31150
 =======================================================================
   * Total *    0.00003     15.99279    37.81393    0.19324    53.99997

 Normal termination of Gaussian 16 at Fri Dec 11 00:37:24 2020.
