 Gaussian 16, Revision A.03,

 -----------------------------------------------------------
 # opt freq B3LYP/6-31G(d) empiricaldispersion=gd3bj scf=xqc
 -----------------------------------------------------------

 -------------------------------
 CID_105764659_JID_6691_neutraal
 -------------------------------
 Symbolic Z-matrix:
 Charge =  0 Multiplicity = 1

 SCF Done:  E(RB3LYP) =  -659.891136626     A.U. after   13 cycles
 SCF Done:  E(RB3LYP) =  -659.895742962     A.U. after   11 cycles
 SCF Done:  E(RB3LYP) =  -659.896626598     A.U. after   10 cycles
 SCF Done:  E(RB3LYP) =  -659.896953213     A.U. after   10 cycles
 SCF Done:  E(RB3LYP) =  -659.897057074     A.U. after    9 cycles
 SCF Done:  E(RB3LYP) =  -659.897114071     A.U. after    9 cycles
 SCF Done:  E(RB3LYP) =  -659.897121960     A.U. after    8 cycles
 SCF Done:  E(RB3LYP) =  -659.897123480     A.U. after    7 cycles
 SCF Done:  E(RB3LYP) =  -659.897123680     A.U. after    6 cycles
 Optimization completed.
    -- Stationary point found.
 Normal termination of Gaussian 16 at Thu Dec 10 22:52:48 2020.

 --------------------------------------------------------------------
 #N Geom=AllCheck Guess=TCheck SCRF=Check GenChk RB3LYP/6-31G(d) Freq
 --------------------------------------------------------------------

 Structure from the checkpoint file:  "JID_6691.chk"
 -------------------------------
 CID_105764659_JID_6691_neutraal
 -------------------------------
 Charge =  0 Multiplicity = 1

 SCF Done:  E(RB3LYP) =  -659.897123680     A.U. after    1 cycles

  Exact polarizability: 175.995   0.718 158.788  -2.260  -0.273 137.189
 Approx polarizability: 215.769  -0.978 218.553  -3.110  -0.154 213.427

                      1                      2                      3
                      A                      A                      A
 Frequencies --     27.7908                36.4944                54.3556
 Red. masses --      3.0454                 2.8879                 3.2945
 Frc consts  --      0.0014                 0.0023                 0.0057
 IR Inten    --      0.0017                 0.0296                 0.0450

                      4                      5                      6
                      A                      A                      A
 Frequencies --     65.1706                83.4371               128.2558
 Red. masses --      3.1371                 2.6757                 2.5623
 Frc consts  --      0.0079                 0.0110                 0.0248
 IR Inten    --      0.0477                 0.2039                 0.2293

                      7                      8                      9
                      A                      A                      A
 Frequencies --    147.9009               167.9045               182.5103
 Red. masses --      2.4796                 2.3609                 2.5998
 Frc consts  --      0.0320                 0.0392                 0.0510
 IR Inten    --      0.0389                 0.2186                 0.0155

                     10                     11                     12
                      A                      A                      A
 Frequencies --    214.7584               222.0892               243.3842
 Red. masses --      1.1714                 1.4301                 2.0251
 Frc consts  --      0.0318                 0.0416                 0.0707
 IR Inten    --      0.1173                 0.8712                 1.1434

                     13                     14                     15
                      A                      A                      A
 Frequencies --    245.6737               252.2055               289.0997
 Red. masses --      1.2673                 1.2300                 1.6966
 Frc consts  --      0.0451                 0.0461                 0.0835
 IR Inten    --      0.3272                 0.0511                 0.7874

                     16                     17                     18
                      A                      A                      A
 Frequencies --    332.9234               350.5606               364.7513
 Red. masses --      2.2327                 2.1614                 2.2124
 Frc consts  --      0.1458                 0.1565                 0.1734
 IR Inten    --      1.8332                 3.0166                 7.7902

                     19                     20                     21
                      A                      A                      A
 Frequencies --    368.9189               380.8694               394.0299
 Red. masses --      2.2580                 2.3159                 2.6697
 Frc consts  --      0.1811                 0.1979                 0.2442
 IR Inten    --      0.9008                 0.1119                 2.1774

                     22                     23                     24
                      A                      A                      A
 Frequencies --    421.4419               431.6076               468.7642
 Red. masses --      2.1370                 2.8159                 1.7835
 Frc consts  --      0.2236                 0.3091                 0.2309
 IR Inten    --      3.3943                 2.5078                 1.2642

                     25                     26                     27
                      A                      A                      A
 Frequencies --    479.7964               510.0239               524.2757
 Red. masses --      2.4063                 2.6781                 2.8922
 Frc consts  --      0.3264                 0.4104                 0.4684
 IR Inten    --      2.3499                 5.9088                 1.6334

                     28                     29                     30
                      A                      A                      A
 Frequencies --    578.3374               695.8678               712.9985
 Red. masses --      3.7007                 2.9490                 2.1523
 Frc consts  --      0.7293                 0.8414                 0.6447
 IR Inten    --      5.4619                 3.6282                 1.3820

                     31                     32                     33
                      A                      A                      A
 Frequencies --    740.9985               766.5060               814.8615
 Red. masses --      2.0086                 1.9004                 1.7600
 Frc consts  --      0.6498                 0.6579                 0.6885
 IR Inten    --     13.6520                 0.0471               110.7097

                     34                     35                     36
                      A                      A                      A
 Frequencies --    846.0034               869.8049               881.3383
 Red. masses --      1.9752                 2.3731                 1.3068
 Frc consts  --      0.8329                 1.0578                 0.5981
 IR Inten    --     10.2154                 1.5553                 5.6967

                     37                     38                     39
                      A                      A                      A
 Frequencies --    886.6596               896.2223               918.0806
 Red. masses --      2.0811                 2.3147                 1.8764
 Frc consts  --      0.9640                 1.0954                 0.9318
 IR Inten    --      1.6548                 9.4333                 3.8112

                     40                     41                     42
                      A                      A                      A
 Frequencies --    932.5525               934.5927               943.5761
 Red. masses --      1.6144                 1.3765                 1.8124
 Frc consts  --      0.8272                 0.7084                 0.9507
 IR Inten    --     14.3008                 2.6748                 8.4308

                     43                     44                     45
                      A                      A                      A
 Frequencies --    973.0748               981.3399               999.6887
 Red. masses --      1.6553                 1.3586                 1.9368
 Frc consts  --      0.9234                 0.7709                 1.1404
 IR Inten    --      2.4816                 1.3198                21.8821

                     46                     47                     48
                      A                      A                      A
 Frequencies --   1010.6740              1030.3646              1045.6484
 Red. masses --      1.8274                 1.7628                 1.4832
 Frc consts  --      1.0998                 1.1027                 0.9555
 IR Inten    --      8.6963                 4.7886                 0.6575

                     49                     50                     51
                      A                      A                      A
 Frequencies --   1066.8478              1073.4008              1088.8028
 Red. masses --      1.3115                 1.8867                 1.8021
 Frc consts  --      0.8795                 1.2808                 1.2587
 IR Inten    --      4.1651                 1.7774                 4.8000

                     52                     53                     54
                      A                      A                      A
 Frequencies --   1104.5482              1109.4551              1115.5292
 Red. masses --      2.2586                 2.1469                 1.8363
 Frc consts  --      1.6235                 1.5570                 1.3463
 IR Inten    --     19.2482                 4.9184                18.1689

                     55                     56                     57
                      A                      A                      A
 Frequencies --   1135.4718              1141.1235              1155.6816
 Red. masses --      1.8360                 1.9816                 2.0233
 Frc consts  --      1.3947                 1.5203                 1.5922
 IR Inten    --      2.9426                16.3384                11.6543

                     58                     59                     60
                      A                      A                      A
 Frequencies --   1168.9398              1177.7029              1184.1435
 Red. masses --      2.1405                 2.0185                 2.3410
 Frc consts  --      1.7232                 1.6495                 1.9340
 IR Inten    --      9.4489                13.6538                 1.0190

                     61                     62                     63
                      A                      A                      A
 Frequencies --   1210.8174              1217.7961              1261.9420
 Red. masses --      2.2264                 2.2878                 1.3478
 Frc consts  --      1.9231                 1.9990                 1.2646
 IR Inten    --      4.7279                38.8739                 3.1733

                     64                     65                     66
                      A                      A                      A
 Frequencies --   1276.8065              1292.8437              1307.6240
 Red. masses --      1.2736                 1.7990                 1.3471
 Frc consts  --      1.2233                 1.7716                 1.3571
 IR Inten    --      6.8166                 1.8764                23.9489

                     67                     68                     69
                      A                      A                      A
 Frequencies --   1319.6094              1345.1817              1352.0660
 Red. masses --      1.3497                 1.3459                 1.6745
 Frc consts  --      1.3848                 1.4350                 1.8036
 IR Inten    --      1.6674                 6.4260                 0.9206

                     70                     71                     72
                      A                      A                      A
 Frequencies --   1354.8370              1370.1211              1382.1092
 Red. masses --      1.3434                 1.2958                 1.5221
 Frc consts  --      1.4529                 1.4332                 1.7131
 IR Inten    --     13.4761                 5.0561                18.8115

                     73                     74                     75
                      A                      A                      A
 Frequencies --   1388.0795              1393.1739              1400.9363
 Red. masses --      1.3588                 1.3291                 1.4167
 Frc consts  --      1.5425                 1.5199                 1.6382
 IR Inten    --     17.5026                 2.9670                 1.2266

                     76                     77                     78
                      A                      A                      A
 Frequencies --   1418.5478              1428.0085              1432.1873
 Red. masses --      1.4575                 1.3956                 1.4110
 Frc consts  --      1.7281                 1.6767                 1.7052
 IR Inten    --      1.7845                15.1774                 4.1488

                     79                     80                     81
                      A                      A                      A
 Frequencies --   1434.8857              1440.6601              1443.7010
 Red. masses --      1.2732                 1.3265                 1.2861
 Frc consts  --      1.5444                 1.6221                 1.5794
 IR Inten    --     13.2662                 3.9714                 3.2573

                     82                     83                     84
                      A                      A                      A
 Frequencies --   1449.4234              1455.6714              1506.8124
 Red. masses --      1.3180                 1.4238                 1.0876
 Frc consts  --      1.6313                 1.7776                 1.4549
 IR Inten    --      6.4371                 3.0804                 9.4138

                     85                     86                     87
                      A                      A                      A
 Frequencies --   1509.5630              1511.8399              1514.3617
 Red. masses --      1.1116                 1.1166                 1.0524
 Frc consts  --      1.4924                 1.5037                 1.4219
 IR Inten    --      0.9433                 5.7804                 2.1382

                     88                     89                     90
                      A                      A                      A
 Frequencies --   1515.2492              1519.0958              1522.2838
 Red. masses --      1.1504                 1.1440                 1.1582
 Frc consts  --      1.5562                 1.5554                 1.5814
 IR Inten    --      3.4647                 9.0048                 2.2388

                     91                     92                     93
                      A                      A                      A
 Frequencies --   1524.5230              1526.3284              1530.9350
 Red. masses --      1.0538                 1.0599                 1.0581
 Frc consts  --      1.4430                 1.4548                 1.4611
 IR Inten    --      6.4065                 2.3844                 8.6442

                     94                     95                     96
                      A                      A                      A
 Frequencies --   1532.5930              1534.1969              1542.6557
 Red. masses --      1.0478                 1.0495                 1.0749
 Frc consts  --      1.4501                 1.4555                 1.5071
 IR Inten    --      3.0990                 1.7696                 3.5686

                     97                     98                     99
                      A                      A                      A
 Frequencies --   1543.7221              1546.9847              2884.7308
 Red. masses --      1.1428                 1.1058                 1.0800
 Frc consts  --      1.6046                 1.5592                 5.2951
 IR Inten    --      1.6930                 4.4057                53.3792

                    100                    101                    102
                      A                      A                      A
 Frequencies --   2930.9397              3031.5456              3038.0689
 Red. masses --      1.0732                 1.0358                 1.0612
 Frc consts  --      5.4318                 5.6085                 5.7706
 IR Inten    --     71.1078                36.7526                23.3188

                    103                    104                    105
                      A                      A                      A
 Frequencies --   3039.2800              3042.9631              3049.3162
 Red. masses --      1.0384                 1.0386                 1.0542
 Frc consts  --      5.6512                 5.6661                 5.7755
 IR Inten    --     41.6857                13.8374                 2.4549

                    106                    107                    108
                      A                      A                      A
 Frequencies --   3051.2901              3054.6462              3056.6515
 Red. masses --      1.0646                 1.0594                 1.0778
 Frc consts  --      5.8396                 5.8241                 5.9331
 IR Inten    --      6.4121                68.0256                39.1334

                    109                    110                    111
                      A                      A                      A
 Frequencies --   3059.3481              3068.7711              3080.0449
 Red. masses --      1.0576                 1.0882                 1.0868
 Frc consts  --      5.8323                 6.0378                 6.0744
 IR Inten    --     34.7471                43.9932                31.7798

                    112                    113                    114
                      A                      A                      A
 Frequencies --   3088.9448              3091.9897              3093.5510
 Red. masses --      1.1022                 1.1021                 1.1042
 Frc consts  --      6.1962                 6.2080                 6.2260
 IR Inten    --      5.5698                 2.6314                42.6378

                    115                    116                    117
                      A                      A                      A
 Frequencies --   3094.0163              3107.5066              3108.2087
 Red. masses --      1.1039                 1.1003                 1.1014
 Frc consts  --      6.2260                 6.2600                 6.2691
 IR Inten    --     75.7791                30.5537                30.2859

                    118                    119                    120
                      A                      A                      A
 Frequencies --   3110.8241              3112.1537              3119.8168
 Red. masses --      1.1011                 1.1013                 1.1019
 Frc consts  --      6.2780                 6.2847                 6.3191
 IR Inten    --     61.1336                54.3704                36.0557

                    121                    122                    123
                      A                      A                      A
 Frequencies --   3127.5712              3128.7150              3133.0013
 Red. masses --      1.0913                 1.1011                 1.0607
 Frc consts  --      6.2894                 6.3506                 6.1344
 IR Inten    --     20.8128                31.2395                27.9125

                    124                    125                    126
                      A                      A                      A
 Frequencies --   3141.4176              3210.1125              3462.3555
 Red. masses --      1.0883                 1.1169                 1.0737
 Frc consts  --      6.3275                 6.7814                 7.5835
 IR Inten    --     23.5066                16.5465                 4.2547

 - Thermochemistry -
 -------------------
 Temperature   298.150 Kelvin.  Pressure   1.00000 Atm.
 Atom     1 has atomic number  6 and mass  12.00000

 Molecular mass:   224.22525 amu.
 Principal axes and moments of inertia in atomic units:
                           1         2         3
     Eigenvalues --  2451.679286147.954207568.31547
           X            0.99991   0.01315   0.00069
           Y           -0.01315   0.99990  -0.00482
           Z           -0.00075   0.00481   0.99999
 This molecule is an asymmetric top.
 Rotational symmetry number  1.
 Warning -- assumption of classical behavior for rotation
           may cause significant error
 Rotational temperatures (Kelvin)      0.03533     0.01409     0.01144
 Rotational constants (GHZ):           0.73612     0.29355     0.23846
 Zero-point vibrational energy    1077511.1 (Joules/Mol)
                                  257.53133 (Kcal/Mol)
 Warning -- explicit consideration of  28 degrees of freedom as
           vibrations may cause significant error
 Vibrational temperatures:     39.98    52.51    78.21    93.77   120.05
          (Kelvin)            184.53   212.80   241.58   262.59   308.99
                              319.54   350.18   353.47   362.87   415.95
                              479.00   504.38   524.80   530.79   547.99
                              566.92   606.36   620.99   674.45   690.32
                              733.81   754.32   832.10  1001.20  1025.85
                             1066.13  1102.83  1172.40  1217.21  1251.46
                             1268.05  1275.71  1289.46  1320.91  1341.74
                             1344.67  1357.60  1400.04  1411.93  1438.33
                             1454.13  1482.46  1504.45  1534.96  1544.38
                             1566.54  1589.20  1596.26  1605.00  1633.69
                             1641.82  1662.77  1681.84  1694.45  1703.72
                             1742.10  1752.14  1815.65  1837.04  1860.11
                             1881.38  1898.62  1935.42  1945.32  1949.31
                             1971.30  1988.55  1997.14  2004.47  2015.63
                             2040.97  2054.59  2060.60  2064.48  2072.79
                             2077.16  2085.40  2094.39  2167.97  2171.92
                             2175.20  2178.83  2180.11  2185.64  2190.23
                             2193.45  2196.05  2202.67  2205.06  2207.37
                             2219.54  2221.07  2225.77  4150.48  4216.97
                             4361.72  4371.10  4372.85  4378.15  4387.29
                             4390.13  4394.95  4397.84  4401.72  4415.28
                             4431.50  4444.30  4448.68  4450.93  4451.60
                             4471.01  4472.02  4475.78  4477.70  4488.72
                             4499.88  4501.52  4507.69  4519.80  4618.64
                             4981.56

 Zero-point correction=                           0.410402 (Hartree/Particle)
 Thermal correction to Energy=                    0.428333
 Thermal correction to Enthalpy=                  0.429277
 Thermal correction to Gibbs Free Energy=         0.364426
 Sum of electronic and zero-point Energies=           -659.486721
 Sum of electronic and thermal Energies=              -659.468791
 Sum of electronic and thermal Enthalpies=            -659.467847
 Sum of electronic and thermal Free Energies=         -659.532697

                     E (Thermal)             CV                S
                      KCal/Mol        Cal/Mol-Kelvin    Cal/Mol-Kelvin
 Total                  268.783             69.659            136.490
 Electronic               0.000              0.000              0.000
 Translational            0.889              2.981             42.125
 Rotational               0.889              2.981             33.100
 Vibrational            267.005             63.697             61.265
 Vibration     1          0.593              1.984              5.981
 Vibration     2          0.594              1.982              5.441
 Vibration     3          0.596              1.976              4.652
 Vibration     4          0.597              1.971              4.294
 Vibration     5          0.600              1.961              3.808
 Vibration     6          0.611              1.925              2.972
 Vibration     7          0.617              1.905              2.699
 Vibration     8          0.625              1.882              2.459
 Vibration     9          0.630              1.864              2.303
 Vibration    10          0.645              1.819              2.003
 Vibration    11          0.648              1.807              1.942
 Vibration    12          0.659              1.774              1.778
 Vibration    13          0.660              1.770              1.761
 Vibration    14          0.664              1.759              1.715
 Vibration    15          0.686              1.694              1.479
 Vibration    16          0.715              1.610              1.246
 Vibration    17          0.727              1.574              1.164
 Vibration    18          0.738              1.545              1.102
 Vibration    19          0.741              1.536              1.084
 Vibration    20          0.751              1.511              1.036
 Vibration    21          0.761              1.483              0.985
 Vibration    22          0.784              1.424              0.887
 Vibration    23          0.793              1.401              0.853
 Vibration    24          0.826              1.319              0.741
 Vibration    25          0.836              1.295              0.711
 Vibration    26          0.865              1.228              0.634
 Vibration    27          0.879              1.196              0.600
 Vibration    28          0.935              1.078              0.488

                           ! Non-Optimized Parameters !
 Normal termination of Gaussian 16 at Thu Dec 10 23:10:06 2020.

 ----------------------------------------------------------------------
 # B3LYP/6-311++G(d,p) empiricaldispersion=gd3bj scf=xqc pop=npa geom=c
 heck
 ----------------------------------------------------------------------

 ---------------------------------------
 CID_105764659_JID_6691_Energie_neutraal
 ---------------------------------------
 Structure from the checkpoint file:  "JID_6691.chk"
 Charge =  0 Multiplicity = 1

 SCF Done:  E(RB3LYP) =  -660.079639708     A.U. after   14 cycles
 Normal termination of Gaussian 16 at Thu Dec 10 23:18:55 2020.

 ----------------------------------------------------------------------
 # B3LYP/6-311++G(d,p) empiricaldispersion=gd3bj scf=xqc pop=npa geom=c
 heck
 ----------------------------------------------------------------------

 -------------------------------------
 CID_105764659_JID_6691_Energie_kation
 -------------------------------------
 Structure from the checkpoint file:  "JID_6691.chk"
 Charge =  1 Multiplicity = 2

 SCF Done:  E(UB3LYP) =  -659.810192908     A.U. after   20 cycles
 Normal termination of Gaussian 16 at Thu Dec 10 23:34:03 2020.
 Gaussian 16:  ES64L-G16RevA.03 25-Dec-2016

 ----------------------------------------------------------------------
 # B3LYP/6-311++G(d,p) empiricaldispersion=gd3bj scf=xqc pop=npa geom=c
 heck
 ----------------------------------------------------------------------

 ------------------------------------
 CID_105764659_JID_6691_Energie_anion
 ------------------------------------
 Structure from the checkpoint file:  "JID_6691.chk"
 Charge = -1 Multiplicity = 2

                         Standard orientation:
 ---------------------------------------------------------------------
 Center     Atomic      Atomic             Coordinates (Angstroms)
 Number     Number       Type             X           Y           Z
 ---------------------------------------------------------------------
      1          6           0       -3.660174   -2.765178    0.196655
      2          6           0       -3.168801   -1.816281   -0.901143
      3          6           0       -3.171373   -0.332103   -0.508054
      4          6           0       -2.341061    0.015710    0.737200
      5          6           0       -0.852875   -0.332338    0.590151
      6          7           0       -0.225466    0.515903   -0.422088
      7          6           0       -0.280976    1.928207   -0.019865
      8          6           0       -1.757736    2.318074    0.181303
      9          7           0       -2.516532    1.441622    1.074732
     10          6           0        0.360534    2.856237   -1.050905
     11          6           0        1.092683    0.023919   -0.830980
     12          6           0        2.182324    0.073729    0.229603
     13          6           0        2.422083   -1.083024    1.176389
     14          6           0        3.461197   -0.736405    0.135585
     15          6           0        3.680317   -1.691163   -1.024961
     16          6           0        4.736179   -0.064380    0.612149
     17          1           0       -2.985142   -2.776053    1.060056
     18          1           0       -3.733730   -3.793877   -0.173782
     19          1           0       -4.652323   -2.467633    0.558088
     20          1           0       -2.161349   -2.113903   -1.220546
     21          1           0       -3.806757   -1.933893   -1.786753
     22          1           0       -2.799911    0.248220   -1.358483
     23          1           0       -4.199700   -0.001486   -0.315598
     24          1           0       -2.738072   -0.551343    1.587841
     25          1           0       -0.365480   -0.222094    1.578472
     26          1           0       -0.725694   -1.378910    0.291838
     27          1           0        0.233003    2.072966    0.954326
     28          1           0       -2.247739    2.329011   -0.799316
     29          1           0       -1.810939    3.338424    0.578869
     30          1           0       -2.170834    1.583230    2.023953
     31          1           0        0.157608    3.899921   -0.786193
     32          1           0        1.446536    2.737308   -1.107480
     33          1           0       -0.059515    2.666157   -2.045056
     34          1           0        0.948563   -1.008102   -1.169077
     35          1           0        1.410889    0.591744   -1.711892
     36          1           0        2.315863    1.062654    0.666054
     37          1           0        1.833952   -1.984960    1.021048
     38          1           0        2.634717   -0.869926    2.221229
     39          1           0        2.764627   -2.213671   -1.315887
     40          1           0        4.059140   -1.160922   -1.908126
     41          1           0        4.421505   -2.453619   -0.754082
     42          1           0        5.194254    0.526674   -0.191501
     43          1           0        4.542731    0.609417    1.454259
     44          1           0        5.473859   -0.808026    0.940463
 ---------------------------------------------------------------------

 SCF Done:  E(UB3LYP) =  -660.065809760     A.U. after   30 cycles

 The electronic state is 2-A.
 Alpha  occ. eigenvalues --  -14.20678 -14.20323 -10.10358 -10.09956 -10.09613
 Alpha  occ. eigenvalues --  -10.09567 -10.08996 -10.08814 -10.07434 -10.07361
 Alpha  occ. eigenvalues --  -10.07117 -10.06824 -10.06699 -10.06566 -10.06545
 Alpha  occ. eigenvalues --  -10.06372  -0.84728  -0.79927  -0.76930  -0.70700
 Alpha  occ. eigenvalues --   -0.67889  -0.64269  -0.62433  -0.60584  -0.59333
 Alpha  occ. eigenvalues --   -0.58249  -0.54537  -0.52399  -0.50045  -0.47400
 Alpha  occ. eigenvalues --   -0.45035  -0.43444  -0.41124  -0.38858  -0.37935
 Alpha  occ. eigenvalues --   -0.37741  -0.36917  -0.35845  -0.35553  -0.34107
 Alpha  occ. eigenvalues --   -0.33431  -0.32874  -0.31356  -0.30936  -0.30181
 Alpha  occ. eigenvalues --   -0.29541  -0.29328  -0.28629  -0.28461  -0.28003
 Alpha  occ. eigenvalues --   -0.27456  -0.26900  -0.25814  -0.25394  -0.24866
 Alpha  occ. eigenvalues --   -0.24425  -0.23372  -0.22977  -0.22301  -0.18272
 Alpha  occ. eigenvalues --   -0.17658  -0.13998  -0.11432   0.04157
 Alpha virt. eigenvalues --    0.05917   0.06365   0.06797   0.07723   0.08199
 Alpha virt. eigenvalues --    0.08329   0.08797   0.08978   0.09803   0.10131
 Alpha virt. eigenvalues --    0.10466   0.10630   0.11190   0.11366   0.11705

  Beta  occ. eigenvalues --  -14.20672 -14.20314 -10.10348 -10.09950 -10.09606
  Beta  occ. eigenvalues --  -10.09558 -10.08984 -10.08813 -10.07424 -10.07352
  Beta  occ. eigenvalues --  -10.07101 -10.06799 -10.06678 -10.06542 -10.06537
  Beta  occ. eigenvalues --  -10.06340  -0.84711  -0.79907  -0.76917  -0.70682
  Beta  occ. eigenvalues --   -0.67867  -0.64241  -0.62401  -0.60554  -0.59280
  Beta  occ. eigenvalues --   -0.58217  -0.54508  -0.52360  -0.50002  -0.47355
  Beta  occ. eigenvalues --   -0.44999  -0.43403  -0.41093  -0.38831  -0.37916
  Beta  occ. eigenvalues --   -0.37711  -0.36891  -0.35812  -0.35524  -0.34078
  Beta  occ. eigenvalues --   -0.33402  -0.32851  -0.31333  -0.30911  -0.30158
  Beta  occ. eigenvalues --   -0.29517  -0.29301  -0.28608  -0.28431  -0.27976
  Beta  occ. eigenvalues --   -0.27429  -0.26876  -0.25784  -0.25370  -0.24844
  Beta  occ. eigenvalues --   -0.24395  -0.23348  -0.22961  -0.22279  -0.18246
  Beta  occ. eigenvalues --   -0.17637  -0.13978  -0.11399
  Beta virt. eigenvalues --    0.06060   0.06573   0.06939   0.07113   0.08216
  Beta virt. eigenvalues --    0.08422   0.08709   0.09130   0.09261   0.10046
  Beta virt. eigenvalues --    0.10459   0.10726   0.10859   0.11400   0.11619

 Mulliken charges and spin densities:
               1          2
     1  C    0.422127  -1.037451
     2  C   -0.722158   0.506355
     3  C    0.242905  -0.424532
     4  C    0.360457  -0.743329
     5  C   -1.041913   0.514469
     6  N    0.393185   0.080797
     7  C   -0.401244   0.390556
     8  C    0.089187  -0.633384
     9  N   -0.076643   0.141704
    10  C    0.230571  -0.737989
    11  C   -0.547689  -0.580093
    12  C    1.122269  -0.915717
    13  C    0.500312  -1.394704
    14  C   -2.036348   3.065667
    15  C   -0.033796  -0.573311
    16  C    1.018719  -1.619655
    17  H   -0.306741   0.440120
    18  H   -0.195140   0.334065
    19  H    0.026412   0.107475
    20  H   -0.099336   0.237244
    21  H   -0.092633   0.243557
    22  H    0.123181  -0.000581
    23  H    0.128643   0.048976
    24  H    0.168857   0.058371
    25  H    0.030082   0.150105
    26  H    0.587277  -0.419765
    27  H   -0.141451   0.256770
    28  H    0.160806   0.003140
    29  H    0.011235   0.135919
    30  H    0.037383   0.211127
    31  H   -0.075767   0.221692
    32  H   -0.109703   0.268891
    33  H    0.097740   0.052277
    34  H    0.419283  -0.273693
    35  H    0.062589   0.109667
    36  H    0.329746  -0.108225
    37  H   -0.101483   0.277880
    38  H   -0.354090   0.528863
    39  H   -0.408691   0.548761
    40  H   -0.030777   0.175048
    41  H   -0.118617   0.263444
    42  H   -0.072360   0.212670
    43  H   -0.456360   0.596394
    44  H   -0.140023   0.280421
 Sum of Mulliken charges =  -1.00000   1.00000

 Dipole moment (field-independent basis, Debye):
    X=             -3.5485    Y=              2.2227    Z=             -2.2073  Tot=              4.7333
 Quadrupole moment (field-independent basis, Debye-Ang):
   XX=           -194.8417   YY=           -159.8820   ZZ=           -142.5775
   XY=             -3.9249   XZ=             -0.8232   YZ=             -3.3301

 Summary of Natural Population Analysis:

                                       Natural Population
                Natural  -----------------------------------------------
    Atom  No    Charge         Core      Valence    Rydberg      Total
 -----------------------------------------------------------------------
      C    1   -0.28835      0.99967     2.28381    0.00488     3.28835
      C    2   -0.19137      0.99964     2.18352    0.00821     3.19137
      C    3   -0.19327      0.99960     2.18517    0.00850     3.19327
      C    4   -0.01420      0.99958     2.00145    0.01317     3.01420
      C    5   -0.09396      0.99959     2.08227    0.01210     3.09396
      N    6   -0.28465      0.99970     2.77326    0.01169     3.78465
      C    7   -0.01526      0.99959     2.00307    0.01260     3.01526
      C    8   -0.08912      0.99959     2.07709    0.01243     3.08912
      N    9   -0.33653      0.99975     2.82462    0.01216     3.83653
      C   10   -0.29159      0.99964     2.28572    0.00622     3.29159
      C   11   -0.08202      0.99959     2.07018    0.01225     3.08202
      C   12   -0.12135      0.99953     2.11166    0.01016     3.12135
      C   13   -0.19299      0.99957     2.18363    0.00980     3.19299
      C   14   -0.04584      0.99956     2.03417    0.01210     3.04584
      C   15   -0.28003      0.99962     2.27543    0.00498     3.28003
      C   16   -0.27799      0.99962     2.27241    0.00596     3.27799
      H   17    0.09720      0.00000     0.40169    0.00111     0.40280
      H   18    0.09922      0.00000     0.39987    0.00091     0.40078
      H   19    0.09444      0.00000     0.40465    0.00091     0.40556
      H   20    0.09533      0.00000     0.40336    0.00131     0.40467
      H   21    0.09392      0.00000     0.40518    0.00090     0.40608
      H   22    0.10182      0.00000     0.39671    0.00147     0.39818
      H   23    0.09794      0.00000     0.40087    0.00119     0.40206
      H   24    0.09571      0.00000     0.40270    0.00159     0.40429
      H   25    0.08588      0.00000     0.41190    0.00222     0.41412
      H   26    0.09885      0.00000     0.39942    0.00172     0.40115
      H   27    0.07946      0.00000     0.41797    0.00256     0.42054
      H   28    0.09039      0.00000     0.40830    0.00132     0.40961
      H   29    0.09468      0.00000     0.40452    0.00080     0.40532
      H   30    0.17133      0.00000     0.32622    0.00245     0.32867
      H   31    0.10078      0.00000     0.39846    0.00076     0.39922
      H   32    0.10320      0.00000     0.39583    0.00098     0.39680
      H   33    0.09997      0.00000     0.39907    0.00096     0.40003
      H   34    0.09656      0.00000     0.40184    0.00159     0.40344
      H   35    0.09724      0.00000     0.40127    0.00149     0.40276
      H   36    0.10286      0.00000     0.39530    0.00184     0.39714
      H   37    0.10134      0.00000     0.39726    0.00140     0.39866
      H   38    0.10346      0.00000     0.39530    0.00125     0.39654
      H   39    0.10081      0.00000     0.39796    0.00123     0.39919
      H   40    0.09866      0.00000     0.40022    0.00112     0.40134
      H   41    0.09998      0.00000     0.39898    0.00104     0.40002
      H   42    0.09847      0.00000     0.40032    0.00121     0.40153
      H   43    0.10109      0.00000     0.39752    0.00139     0.39891
      H   44    0.09794      0.00000     0.40101    0.00105     0.40206
 =======================================================================
   * Total *    0.00000     15.99385    46.81116    0.19499    63.00000

 Normal termination of Gaussian 16 at Thu Dec 10 23:56:53 2020.
