 Gaussian 16, Revision A.03,

 -----------------------------------------------------------
 # opt freq B3LYP/6-31G(d) empiricaldispersion=gd3bj scf=xqc
 -----------------------------------------------------------

 ------------------------------
 CID_43408083_JID_8948_neutraal
 ------------------------------
 Symbolic Z-matrix:
 Charge =  0 Multiplicity = 1

 SCF Done:  E(RB3LYP) =  -1572.80498030     A.U. after   16 cycles
 SCF Done:  E(RB3LYP) =  -1572.74955286     A.U. after   15 cycles
 SCF Done:  E(RB3LYP) =  -1572.81129190     A.U. after   14 cycles
 SCF Done:  E(RB3LYP) =  -1572.81462735     A.U. after   13 cycles
 SCF Done:  E(RB3LYP) =  -1572.81626731     A.U. after   13 cycles
 SCF Done:  E(RB3LYP) =  -1572.81732989     A.U. after   13 cycles
 SCF Done:  E(RB3LYP) =  -1572.81799260     A.U. after   13 cycles
 SCF Done:  E(RB3LYP) =  -1572.81818244     A.U. after   13 cycles
 SCF Done:  E(RB3LYP) =  -1572.81834851     A.U. after   12 cycles
 SCF Done:  E(RB3LYP) =  -1572.81840506     A.U. after   11 cycles
 SCF Done:  E(RB3LYP) =  -1572.81844590     A.U. after    9 cycles
 SCF Done:  E(RB3LYP) =  -1572.81844648     A.U. after    9 cycles
 SCF Done:  E(RB3LYP) =  -1572.81844673     A.U. after    9 cycles
 SCF Done:  E(RB3LYP) =  -1572.81844682     A.U. after    8 cycles
 SCF Done:  E(RB3LYP) =  -1572.81844685     A.U. after    7 cycles
 Optimization completed.
    -- Stationary point found.
 Normal termination of Gaussian 16 at Fri Dec 11 23:10:20 2020.

 --------------------------------------------------------------------
 #N Geom=AllCheck Guess=TCheck SCRF=Check GenChk RB3LYP/6-31G(d) Freq
 --------------------------------------------------------------------

 Structure from the checkpoint file:  "JID_8948.chk"
 ------------------------------
 CID_43408083_JID_8948_neutraal
 ------------------------------
 Charge =  0 Multiplicity = 1

 SCF Done:  E(RB3LYP) =  -1572.81844685     A.U. after    1 cycles

  Exact polarizability: 176.028 -28.843 145.983 -10.482  -4.681 142.964
 Approx polarizability: 278.219 -61.816 250.957 -31.349  -9.509 296.744

                      1                      2                      3
                      A                      A                      A
 Frequencies --     20.7790                44.3766                63.8148
 Red. masses --      6.0375                11.9668                 8.5507
 Frc consts  --      0.0015                 0.0139                 0.0205
 IR Inten    --      0.0238                 0.9266                 0.5064

                      4                      5                      6
                      A                      A                      A
 Frequencies --     75.7366                92.5287               125.5607
 Red. masses --      8.1216                 4.2721                 3.8622
 Frc consts  --      0.0274                 0.0216                 0.0359
 IR Inten    --      0.2048                 3.0526                 1.9058

                      7                      8                      9
                      A                      A                      A
 Frequencies --    139.6879               147.5051               153.8972
 Red. masses --      5.0132                 5.5982                 1.2570
 Frc consts  --      0.0576                 0.0718                 0.0175
 IR Inten    --      1.4299                 1.4378                 0.2502

                     10                     11                     12
                      A                      A                      A
 Frequencies --    173.6363               186.3753               198.8465
 Red. masses --      4.0834                 1.0859                 5.1236
 Frc consts  --      0.0725                 0.0222                 0.1194
 IR Inten    --      1.0686                 0.2826                 8.4934

                     13                     14                     15
                      A                      A                      A
 Frequencies --    241.8152               279.7724               298.3198
 Red. masses --      5.1188                 7.2320                 8.0030
 Frc consts  --      0.1764                 0.3335                 0.4196
 IR Inten    --      2.9854                 3.4908                 3.7854

                     16                     17                     18
                      A                      A                      A
 Frequencies --    307.7407               327.2496               374.5827
 Red. masses --      4.9501                 4.5643                 4.7142
 Frc consts  --      0.2762                 0.2880                 0.3897
 IR Inten    --     13.3031                 1.6680                 7.7797

                     19                     20                     21
                      A                      A                      A
 Frequencies --    403.0843               461.5502               472.0556
 Red. masses --      6.5242                 8.4663                 5.9323
 Frc consts  --      0.6246                 1.0626                 0.7789
 IR Inten    --      0.5079                 2.1488                18.6311

                     22                     23                     24
                      A                      A                      A
 Frequencies --    477.1486               505.3084               539.2137
 Red. masses --      5.6969                 3.3914                 3.5088
 Frc consts  --      0.7642                 0.5102                 0.6011
 IR Inten    --      1.8542                30.7338                29.9405

                     25                     26                     27
                      A                      A                      A
 Frequencies --    569.8178               601.3034               616.0607
 Red. masses --      4.6360                 5.0568                 5.8766
 Frc consts  --      0.8869                 1.0772                 1.3141
 IR Inten    --     43.5880                16.0403                 1.4508

                     28                     29                     30
                      A                      A                      A
 Frequencies --    667.0319               668.3403               678.4384
 Red. masses --      3.8671                 5.0565                 7.1935
 Frc consts  --      1.0138                 1.3307                 1.9508
 IR Inten    --     31.8627                 8.1017                 7.5818

                     31                     32                     33
                      A                      A                      A
 Frequencies --    733.7323               755.3968               762.2790
 Red. masses --      1.8890                 7.9070                 5.4756
 Frc consts  --      0.5992                 2.6584                 1.8746
 IR Inten    --      5.7850                34.0072                24.0120

                     34                     35                     36
                      A                      A                      A
 Frequencies --    791.6121               818.7116               843.4861
 Red. masses --      4.5303                 5.5656                 8.9206
 Frc consts  --      1.6726                 2.1980                 3.7394
 IR Inten    --     21.7592                 7.3477                24.1114

                     37                     38                     39
                      A                      A                      A
 Frequencies --    867.1247               898.5215               957.3051
 Red. masses --      3.9248                 1.3646                 7.5324
 Frc consts  --      1.7387                 0.6491                 4.0671
 IR Inten    --     20.1143                 1.8876                15.6348

                     40                     41                     42
                      A                      A                      A
 Frequencies --    992.6861              1026.4771              1070.0693
 Red. masses --      2.3698                 5.4752                 2.8800
 Frc consts  --      1.3759                 3.3990                 1.9429
 IR Inten    --      4.2859                13.4525                19.0037

                     43                     44                     45
                      A                      A                      A
 Frequencies --   1078.2634              1113.3036              1121.4213
 Red. masses --      1.4876                 2.4110                 4.1591
 Frc consts  --      1.0191                 1.7607                 3.0817
 IR Inten    --      1.5933                55.4025                47.8659

                     46                     47                     48
                      A                      A                      A
 Frequencies --   1144.5256              1185.9349              1222.8984
 Red. masses --      1.8887                 1.2686                 1.5412
 Frc consts  --      1.4577                 1.0512                 1.3579
 IR Inten    --     30.7184                 0.7485                12.1937

                     49                     50                     51
                      A                      A                      A
 Frequencies --   1243.2429              1284.6235              1333.1021
 Red. masses --      2.2715                 5.0710                 4.2576
 Frc consts  --      2.0686                 4.9306                 4.4580
 IR Inten    --     61.7770                81.1373               166.2153

                     52                     53                     54
                      A                      A                      A
 Frequencies --   1377.4311              1389.4840              1407.8229
 Red. masses --      7.8860                 4.9797                 1.9542
 Frc consts  --      8.8155                 5.6644                 2.2820
 IR Inten    --     48.1324               159.5063               154.0906

                     55                     56                     57
                      A                      A                      A
 Frequencies --   1444.1498              1477.4710              1493.1403
 Red. masses --      1.3265                 3.5899                 1.5508
 Frc consts  --      1.6299                 4.6171                 2.0371
 IR Inten    --      4.3596                39.2876                21.3974

                     58                     59                     60
                      A                      A                      A
 Frequencies --   1503.2911              1508.6842              1510.7942
 Red. masses --      2.3007                 1.1015                 1.2010
 Frc consts  --      3.0634                 1.4772                 1.6151
 IR Inten    --    135.5865                17.4661                42.9169

                     61                     62                     63
                      A                      A                      A
 Frequencies --   1512.4966              1521.6224              1563.6615
 Red. masses --      1.0486                 1.0558                 4.5317
 Frc consts  --      1.4133                 1.4403                 6.5282
 IR Inten    --     11.0406                 5.4576                19.0906

                     64                     65                     66
                      A                      A                      A
 Frequencies --   1599.0251              1771.7959              1792.3272
 Red. masses --      6.9604                 9.1253                11.7182
 Frc consts  --     10.4857                16.8782                22.1792
 IR Inten    --     31.8968               408.9867               197.8240

                     67                     68                     69
                      A                      A                      A
 Frequencies --   3070.0567              3083.9248              3134.4247
 Red. masses --      1.0384                 1.0291                 1.0981
 Frc consts  --      5.7662                 5.7666                 6.3564
 IR Inten    --      8.7208                23.4160                 8.5489

                     70                     71                     72
                      A                      A                      A
 Frequencies --   3163.4834              3164.1766              3194.6110
 Red. masses --      1.1076                 1.1033                 1.1079
 Frc consts  --      6.5310                 6.5080                 6.6616
 IR Inten    --     16.4147                 7.8896                 7.4549

                     73                     74                     75
                      A                      A                      A
 Frequencies --   3228.5019              3272.1116              3565.4672
 Red. masses --      1.0919                 1.0971                 1.0749
 Frc consts  --      6.7053                 6.9205                 8.0508
 IR Inten    --      2.3310                 0.3591                46.7471

 - Thermochemistry -
 -------------------
 Temperature   298.150 Kelvin.  Pressure   1.00000 Atm.
 Atom     1 has atomic number  6 and mass  12.00000

 Molecular mass:   283.00853 amu.
 Principal axes and moments of inertia in atomic units:
                           1         2         3
     Eigenvalues --  3550.029095566.279456264.84569
           X            0.99900  -0.04448   0.00500
           Y            0.04440   0.99891   0.01421
           Z           -0.00563  -0.01398   0.99989
 This molecule is an asymmetric top.
 Rotational symmetry number  1.
 Warning -- assumption of classical behavior for rotation
           may cause significant error
 Rotational temperatures (Kelvin)      0.02440     0.01556     0.01383
 Rotational constants (GHZ):           0.50837     0.32423     0.28807
 Zero-point vibrational energy     495889.5 (Joules/Mol)
                                  118.52044 (Kcal/Mol)
 Warning -- explicit consideration of  27 degrees of freedom as
           vibrations may cause significant error
 Vibrational temperatures:     29.90    63.85    91.82   108.97   133.13
          (Kelvin)            180.65   200.98   212.23   221.42   249.82
                              268.15   286.10   347.92   402.53   429.22
                              442.77   470.84   538.94   579.95   664.07
                              679.18   686.51   727.03   775.81   819.84
                              865.14   886.37   959.71   961.59   976.12
                             1055.68  1086.85  1096.75  1138.95  1177.94
                             1213.59  1247.60  1292.77  1377.35  1428.25
                             1476.87  1539.59  1551.38  1601.80  1613.48
                             1646.72  1706.30  1759.48  1788.75  1848.29
                             1918.04  1981.82  1999.16  2025.54  2077.81
                             2125.75  2148.30  2162.90  2170.66  2173.70
                             2176.15  2189.28  2249.76  2300.64  2549.22
                             2578.76  4417.13  4437.08  4509.74  4551.55
                             4552.54  4596.33  4645.09  4707.84  5129.91

 Zero-point correction=                           0.188874 (Hartree/Particle)
 Thermal correction to Energy=                    0.205993
 Thermal correction to Enthalpy=                  0.206937
 Thermal correction to Gibbs Free Energy=         0.142643
 Sum of electronic and zero-point Energies=          -1572.629573
 Sum of electronic and thermal Energies=             -1572.612454
 Sum of electronic and thermal Enthalpies=           -1572.611510
 Sum of electronic and thermal Free Energies=        -1572.675804

                     E (Thermal)             CV                S
                      KCal/Mol        Cal/Mol-Kelvin    Cal/Mol-Kelvin
 Total                  129.262             62.238            135.319
 Electronic               0.000              0.000              0.000
 Translational            0.889              2.981             42.819
 Rotational               0.889              2.981             33.181
 Vibrational            127.485             56.276             59.319
 Vibration     1          0.593              1.986              6.558
 Vibration     2          0.595              1.980              5.053
 Vibration     3          0.597              1.972              4.336
 Vibration     4          0.599              1.965              3.998
 Vibration     5          0.602              1.955              3.606
 Vibration     6          0.611              1.928              3.013
 Vibration     7          0.615              1.914              2.808
 Vibration     8          0.617              1.905              2.704
 Vibration     9          0.619              1.898              2.623
 Vibration    10          0.627              1.875              2.396
 Vibration    11          0.632              1.858              2.264
 Vibration    12          0.637              1.841              2.144
 Vibration    13          0.658              1.776              1.789
 Vibration    14          0.680              1.711              1.535
 Vibration    15          0.691              1.677              1.426
 Vibration    16          0.698              1.659              1.374
 Vibration    17          0.711              1.621              1.274
 Vibration    18          0.746              1.524              1.061
 Vibration    19          0.768              1.463              0.951
 Vibration    20          0.819              1.335              0.762
 Vibration    21          0.829              1.312              0.732
 Vibration    22          0.834              1.301              0.718
 Vibration    23          0.861              1.238              0.645
 Vibration    24          0.894              1.163              0.567
 Vibration    25          0.926              1.097              0.505
 Vibration    26          0.960              1.029              0.447
 Vibration    27          0.976              0.998              0.423

                           ! Non-Optimized Parameters !
 Normal termination of Gaussian 16 at Fri Dec 11 23:22:21 2020.

 ----------------------------------------------------------------------
 # B3LYP/6-311++G(d,p) empiricaldispersion=gd3bj scf=xqc pop=npa geom=c
 heck
 ----------------------------------------------------------------------

 --------------------------------------
 CID_43408083_JID_8948_Energie_neutraal
 --------------------------------------
 Structure from the checkpoint file:  "JID_8948.chk"
 Charge =  0 Multiplicity = 1

 SCF Done:  E(RB3LYP) =  -1573.08874973     A.U. after   18 cycles
 Normal termination of Gaussian 16 at Fri Dec 11 23:28:28 2020.

 ----------------------------------------------------------------------
 # B3LYP/6-311++G(d,p) empiricaldispersion=gd3bj scf=xqc pop=npa geom=c
 heck
 ----------------------------------------------------------------------

 ------------------------------------
 CID_43408083_JID_8948_Energie_kation
 ------------------------------------
 Structure from the checkpoint file:  "JID_8948.chk"
 Charge =  1 Multiplicity = 2

 SCF Done:  E(UB3LYP) =  -1572.76425191     A.U. after   33 cycles
 SCF Done:  E(UB3LYP) =  -1572.76425192     a.u. after    3 cycles
 Normal termination of Gaussian 16 at Sat Dec 12 00:31:45 2020.
 Gaussian 16:  ES64L-G16RevA.03 25-Dec-2016

 ----------------------------------------------------------------------
 # B3LYP/6-311++G(d,p) empiricaldispersion=gd3bj scf=xqc pop=npa geom=c
 heck
 ----------------------------------------------------------------------

 -----------------------------------
 CID_43408083_JID_8948_Energie_anion
 -----------------------------------
 Structure from the checkpoint file:  "JID_8948.chk"
 Charge = -1 Multiplicity = 2

                         Standard orientation:
 ---------------------------------------------------------------------
 Center     Atomic      Atomic             Coordinates (Angstroms)
 Number     Number       Type             X           Y           Z
 ---------------------------------------------------------------------
      1          6           0       -0.063154   -2.691468   -0.583316
      2          6           0       -1.132591   -1.646525   -0.649035
      3          6           0       -1.470331   -0.683759    0.281651
      4         16           0       -2.838352    0.180867   -0.292265
      5          7           0       -2.868687   -0.738555   -1.755663
      6          7           0       -1.946570   -1.622519   -1.762136
      7          6           0       -0.964292   -0.421368    1.657163
      8          8           0       -1.730685   -0.168780    2.574252
      9          7           0        0.394144   -0.547057    1.885114
     10          6           0        1.456761   -0.419573    0.969788
     11          6           0        1.553693    0.509217   -0.054651
     12         16           0        2.989056    0.245017   -1.008066
     13          6           0        3.477947   -1.057796    0.013545
     14          6           0        2.575680   -1.306265    1.011026
     15          6           0        0.752641    1.693202   -0.400417
     16          8           0        0.928801    2.350056   -1.407854
     17          8           0       -0.157529    1.997196    0.547170
     18          6           0       -0.957707    3.163037    0.280335
     19          1           0       -0.406118   -3.587225   -1.107505
     20          1           0        0.855596   -2.346921   -1.070257
     21          1           0        0.178786   -2.949808    0.449204
     22          1           0        0.619708   -0.459145    2.870701
     23          1           0        4.394211   -1.593917   -0.193944
     24          1           0        2.668749   -2.105394    1.737453
     25          1           0       -0.324176    4.052174    0.238509
     26          1           0       -1.488147    3.050538   -0.667363
     27          1           0       -1.658665    3.222473    1.112187
 ---------------------------------------------------------------------

 SCF Done:  E(UB3LYP) =  -1573.12551269     A.U. after   24 cycles

 The electronic state is 2-A.
 Alpha  occ. eigenvalues --  -88.75915 -88.75623 -19.04529 -18.97584 -18.96115
 Alpha  occ. eigenvalues --  -14.22872 -14.22591 -14.21669 -10.16988 -10.15038
 Alpha  occ. eigenvalues --  -10.11366 -10.10231 -10.08904 -10.08593 -10.07887
 Alpha  occ. eigenvalues --  -10.07820 -10.07167 -10.05720  -7.84537  -7.84202
 Alpha  occ. eigenvalues --   -5.80832  -5.80537  -5.80461  -5.80150  -5.80099
 Alpha  occ. eigenvalues --   -5.79798  -0.98453  -0.92033  -0.90697  -0.89360
 Alpha  occ. eigenvalues --   -0.82189  -0.76025  -0.69388  -0.67805  -0.64742
 Alpha  occ. eigenvalues --   -0.62467  -0.60042  -0.58110  -0.53658  -0.50288
 Alpha  occ. eigenvalues --   -0.46852  -0.46084  -0.44686  -0.43173  -0.41759
 Alpha  occ. eigenvalues --   -0.37233  -0.36622  -0.35810  -0.34970  -0.33677
 Alpha  occ. eigenvalues --   -0.32728  -0.32673  -0.31358  -0.29985  -0.29760
 Alpha  occ. eigenvalues --   -0.29244  -0.28418  -0.27941  -0.27545  -0.25638
 Alpha  occ. eigenvalues --   -0.24431  -0.23977  -0.23895  -0.21382  -0.19348
 Alpha  occ. eigenvalues --   -0.18054  -0.16995  -0.15927  -0.14338  -0.14124
 Alpha  occ. eigenvalues --   -0.13343  -0.12286  -0.11846   0.01842
 Alpha virt. eigenvalues --    0.05232   0.07476   0.08761   0.09031   0.09945
 Alpha virt. eigenvalues --    0.10849   0.11263   0.11911   0.12162   0.12634
 Alpha virt. eigenvalues --    0.13036   0.13509   0.13774   0.13985   0.14398

  Beta  occ. eigenvalues --  -88.75870 -88.75576 -19.04502 -18.97388 -18.95853
  Beta  occ. eigenvalues --  -14.22939 -14.22206 -14.21667 -10.16857 -10.14872
  Beta  occ. eigenvalues --  -10.11363 -10.10073 -10.08744 -10.08551 -10.07719
  Beta  occ. eigenvalues --  -10.07679 -10.07233 -10.05724  -7.84497  -7.84159
  Beta  occ. eigenvalues --   -5.80812  -5.80513  -5.80441  -5.80076  -5.80001
  Beta  occ. eigenvalues --   -5.79648  -0.98293  -0.91615  -0.90339  -0.89081
  Beta  occ. eigenvalues --   -0.82015  -0.75847  -0.69091  -0.67550  -0.64442
  Beta  occ. eigenvalues --   -0.62271  -0.59856  -0.57930  -0.53211  -0.49910
  Beta  occ. eigenvalues --   -0.46672  -0.45898  -0.44489  -0.43046  -0.41618
  Beta  occ. eigenvalues --   -0.36924  -0.36403  -0.35659  -0.34825  -0.33493
  Beta  occ. eigenvalues --   -0.32527  -0.32299  -0.31034  -0.29715  -0.29405
  Beta  occ. eigenvalues --   -0.28777  -0.28099  -0.27674  -0.26898  -0.25079
  Beta  occ. eigenvalues --   -0.24230  -0.23777  -0.23602  -0.21082  -0.18767
  Beta  occ. eigenvalues --   -0.17421  -0.16331  -0.15673  -0.13844  -0.13539
  Beta  occ. eigenvalues --   -0.12315  -0.12054  -0.10885
  Beta virt. eigenvalues --    0.06687   0.07322   0.07477   0.08762   0.09041
  Beta virt. eigenvalues --    0.09997   0.10906   0.11582   0.11963   0.12541
  Beta virt. eigenvalues --    0.12803   0.13295   0.13556   0.13831   0.14097

 Mulliken charges and spin densities:
               1          2
     1  C   -0.589978  -0.005134
     2  C   -0.319868   0.062216
     3  C    0.554643   0.025423
     4  S    0.128034   0.099985
     5  N   -0.144097   0.156006
     6  N    0.021450  -0.002688
     7  C   -0.673321   0.112847
     8  O   -0.309822   0.089960
     9  N   -0.237106  -0.036306
    10  C   -0.255472   0.078211
    11  C    0.814796   0.113225
    12  S   -0.258519   0.079016
    13  C   -0.428546   0.084042
    14  C    0.152747  -0.013272
    15  C   -0.540580   0.065726
    16  O   -0.281027   0.066034
    17  O   -0.041300   0.006213
    18  C   -0.188975   0.004058
    19  H    0.164527  -0.000425
    20  H    0.179764  -0.004653
    21  H    0.133302   0.003921
    22  H    0.299659   0.009310
    23  H    0.205452  -0.008470
    24  H    0.131650   0.006027
    25  H    0.151063   0.001696
    26  H    0.178338   0.003177
    27  H    0.153187   0.003855
 Sum of Mulliken charges =  -1.00000   1.00000

 Dipole moment (field-independent basis, Debye):
    X=              4.4282    Y=             -0.4507    Z=              3.0398  Tot=              5.3900
 Quadrupole moment (field-independent basis, Debye-Ang):
   XX=           -151.4648   YY=           -128.7440   ZZ=           -147.4272
   XY=            -14.1047   XZ=              2.3837   YZ=              0.3069

 Summary of Natural Population Analysis:

                                       Natural Population
                Natural  -----------------------------------------------
    Atom  No    Charge         Core      Valence    Rydberg      Total
 -----------------------------------------------------------------------
      C    1   -0.29898      0.99963     2.29386    0.00549     3.29898
      C    2    0.06307      0.99947     1.92521    0.01225     2.93693
      C    3   -0.13511      0.99939     2.11646    0.01925     3.13511
      S    4    0.28874      4.99945     2.68819    0.02361     7.71126
      N    5   -0.12598      0.99982     2.60946    0.01670     3.62598
      N    6   -0.12560      0.99970     2.60823    0.01766     3.62560
      C    7    0.35437      0.99960     1.62271    0.02332     2.64563
      O    8   -0.29219      0.99988     3.28662    0.00569     4.29219
      N    9   -0.32449      0.99963     2.81333    0.01152     3.82449
      C   10    0.08594      0.99940     1.90100    0.01366     2.91406
      C   11   -0.13139      0.99940     2.11722    0.01478     3.13139
      S   12    0.24249      4.99944     2.73624    0.02182     7.75751
      C   13   -0.16574      0.99956     2.15537    0.01081     3.16574
      C   14   -0.15081      0.99950     2.14217    0.00914     3.15081
      C   15    0.40468      0.99958     1.57222    0.02352     2.59532
      O   16   -0.29676      0.99987     3.29159    0.00529     4.29676
      O   17   -0.27671      0.99986     3.26700    0.00984     4.27671
      C   18   -0.10634      0.99960     2.09834    0.00840     3.10634
      H   19    0.10434      0.00000     0.39456    0.00110     0.39566
      H   20    0.11120      0.00000     0.38761    0.00119     0.38880
      H   21    0.10442      0.00000     0.39459    0.00100     0.39558
      H   22    0.19546      0.00000     0.30299    0.00155     0.30454
      H   23    0.10175      0.00000     0.39734    0.00091     0.39825
      H   24    0.10254      0.00000     0.39640    0.00106     0.39746
      H   25    0.08520      0.00000     0.41373    0.00107     0.41480
      H   26    0.09504      0.00000     0.40371    0.00125     0.40496
      H   27    0.09083      0.00000     0.40838    0.00078     0.40917
 =======================================================================
   * Total *   -0.00000     25.99279    46.74453    0.26268    73.00000

 Normal termination of Gaussian 16 at Sat Dec 12 00:42:51 2020.
