 Gaussian 16, Revision A.03,

 -----------------------------------------------------------
 # opt freq B3LYP/6-31G(d) empiricaldispersion=gd3bj scf=xqc
 -----------------------------------------------------------

 ------------------------------
 CID_141300529_JID_487_neutraal
 ------------------------------
 Symbolic Z-matrix:
 Charge =  0 Multiplicity = 1

 SCF Done:  E(RB3LYP) =  -853.482058341     A.U. after   15 cycles
 SCF Done:  E(RB3LYP) =  -853.486705159     A.U. after   13 cycles
 SCF Done:  E(RB3LYP) =  -853.486066251     A.U. after   13 cycles
 SCF Done:  E(RB3LYP) =  -853.488046285     A.U. after   12 cycles
 SCF Done:  E(RB3LYP) =  -853.489190337     A.U. after   12 cycles
 SCF Done:  E(RB3LYP) =  -853.491538627     A.U. after   14 cycles
 SCF Done:  E(RB3LYP) =  -853.493415434     A.U. after   13 cycles
 SCF Done:  E(RB3LYP) =  -853.495292920     A.U. after   13 cycles
 SCF Done:  E(RB3LYP) =  -853.495054901     A.U. after   13 cycles
 SCF Done:  E(RB3LYP) =  -853.496118940     A.U. after   12 cycles
 SCF Done:  E(RB3LYP) =  -853.499594049     A.U. after   11 cycles
 SCF Done:  E(RB3LYP) =  -853.499609438     A.U. after   11 cycles
 SCF Done:  E(RB3LYP) =  -853.499613642     A.U. after    9 cycles
 SCF Done:  E(RB3LYP) =  -853.499615247     A.U. after    9 cycles
 SCF Done:  E(RB3LYP) =  -853.499616659     A.U. after   10 cycles
 SCF Done:  E(RB3LYP) =  -853.499616776     A.U. after    7 cycles
 Optimization completed.
    -- Stationary point found.
 Normal termination of Gaussian 16 at Tue Dec  8 10:47:39 2020.

 --------------------------------------------------------------------
 #N Geom=AllCheck Guess=TCheck SCRF=Check GenChk RB3LYP/6-31G(d) Freq
 --------------------------------------------------------------------

 Structure from the checkpoint file:  "JID_487.chk"
 ------------------------------
 CID_141300529_JID_487_neutraal
 ------------------------------
 Charge =  0 Multiplicity = 1

 SCF Done:  E(RB3LYP) =  -853.499616776     A.U. after    1 cycles

  Exact polarizability:  74.948   0.686  92.654   5.459   0.350  79.089
 Approx polarizability: 102.897   4.291 164.842  12.829   9.722 132.052

                      1                      2                      3
                      A                      A                      A
 Frequencies --     54.5257                67.1383               112.0692
 Red. masses --      4.8330                 6.8227                 8.6621
 Frc consts  --      0.0085                 0.0181                 0.0641
 IR Inten    --      2.2405                 0.5544                 0.6634

                      4                      5                      6
                      A                      A                      A
 Frequencies --    123.2937               196.0254               323.5827
 Red. masses --      3.5688                 5.0951                 4.4334
 Frc consts  --      0.0320                 0.1154                 0.2735
 IR Inten    --      0.9393                 2.8049                 0.0201

                      7                      8                      9
                      A                      A                      A
 Frequencies --    372.2694               434.5791               445.6248
 Red. masses --      3.1322                 2.4139                 2.5312
 Frc consts  --      0.2558                 0.2686                 0.2961
 IR Inten    --      4.0195                11.8649                 8.4553

                     10                     11                     12
                      A                      A                      A
 Frequencies --    458.3099               473.5760               541.0668
 Red. masses --      3.0759                 7.9785                 2.9134
 Frc consts  --      0.3807                 1.0543                 0.5025
 IR Inten    --      4.9520                 4.2734                29.4522

                     13                     14                     15
                      A                      A                      A
 Frequencies --    617.2936               650.8353               671.6590
 Red. masses --      6.4947                 1.7440                 7.6817
 Frc consts  --      1.4581                 0.4352                 2.0418
 IR Inten    --      8.1121                75.5068                57.0984

                     16                     17                     18
                      A                      A                      A
 Frequencies --    731.4683               777.1799               871.2014
 Red. masses --      2.8603                 4.0077                 1.5499
 Frc consts  --      0.9017                 1.4262                 0.6931
 IR Inten    --     71.4779                61.6841                 3.5135

                     19                     20                     21
                      A                      A                      A
 Frequencies --    884.4186               909.7744               949.8574
 Red. masses --      3.6907                 2.8153                 2.5725
 Frc consts  --      1.7009                 1.3729                 1.3675
 IR Inten    --      3.8381                 1.0638                52.7640

                     22                     23                     24
                      A                      A                      A
 Frequencies --    972.3037               988.7532              1039.6523
 Red. masses --      3.1636                 2.3556                 2.0833
 Frc consts  --      1.7621                 1.3568                 1.3267
 IR Inten    --     29.9777                 5.7334                17.3236

                     25                     26                     27
                      A                      A                      A
 Frequencies --   1119.0755              1173.6004              1212.9954
 Red. masses --      2.4101                 1.7336                 2.4433
 Frc consts  --      1.7783                 1.4068                 2.1181
 IR Inten    --    141.4993                58.2385               122.5491

                     28                     29                     30
                      A                      A                      A
 Frequencies --   1279.7885              1311.5654              1346.8401
 Red. masses --      1.1713                 1.1280                 1.6049
 Frc consts  --      1.1303                 1.1432                 1.7152
 IR Inten    --     10.4710                16.2377                13.4338

                     31                     32                     33
                      A                      A                      A
 Frequencies --   1368.4342              1391.5966              1397.0061
 Red. masses --      1.3111                 1.2458                 1.3246
 Frc consts  --      1.4466                 1.4214                 1.5231
 IR Inten    --      6.8437                16.6161                 2.9836

                     34                     35                     36
                      A                      A                      A
 Frequencies --   1421.6801              1432.3925              1490.3398
 Red. masses --      1.4049                 1.7323                 1.0793
 Frc consts  --      1.6731                 2.0941                 1.4124
 IR Inten    --     30.8294                48.3124                 6.0015

                     37                     38                     39
                      A                      A                      A
 Frequencies --   1491.5003              1510.9897              1716.3727
 Red. masses --      1.0869                 1.1190                 8.2401
 Frc consts  --      1.4246                 1.5052                14.3023
 IR Inten    --      4.5605                12.0538               121.8108

                     40                     41                     42
                      A                      A                      A
 Frequencies --   1850.2566              3033.2134              3070.7158
 Red. masses --      9.8339                 1.0707                 1.0618
 Frc consts  --     19.8354                 5.8040                 5.8989
 IR Inten    --    211.5651                51.5461                18.5847

                     43                     44                     45
                      A                      A                      A
 Frequencies --   3090.9156              3122.1748              3130.9166
 Red. masses --      1.0584                 1.0936                 1.1037
 Frc consts  --      5.9574                 6.2807                 6.3744
 IR Inten    --     26.6292                13.3798                11.5031

                     46                     47                     48
                      A                      A                      A
 Frequencies --   3145.2797              3155.5471              3673.4995
 Red. masses --      1.0911                 1.1110                 1.0638
 Frc consts  --      6.3598                 6.5177                 8.4582
 IR Inten    --     23.5528                 7.9185                42.9957

 - Thermochemistry -
 -------------------
 Temperature   298.150 Kelvin.  Pressure   1.00000 Atm.
 Atom     1 has atomic number  6 and mass  12.00000

 Molecular mass:   160.03065 amu.
 Principal axes and moments of inertia in atomic units:
                           1         2         3
     Eigenvalues --  1127.675891697.642911847.40734
           X            0.99981   0.01889   0.00505
           Y           -0.01841   0.99648  -0.08180
           Z           -0.00657   0.08170   0.99664
 This molecule is an asymmetric top.
 Rotational symmetry number  1.
 Warning -- assumption of classical behavior for rotation
           may cause significant error
 Rotational temperatures (Kelvin)      0.07681     0.05102     0.04688
 Rotational constants (GHZ):           1.60041     1.06309     0.97690
 Zero-point vibrational energy     368468.7 (Joules/Mol)
                                   88.06613 (Kcal/Mol)
 Warning -- explicit consideration of  13 degrees of freedom as
           vibrations may cause significant error
 Vibrational temperatures:     78.45    96.60   161.24   177.39   282.04
          (Kelvin)            465.56   535.61   625.26   641.15   659.41
                              681.37   778.47   888.15   936.41   966.37
                             1052.42  1118.19  1253.46  1272.48  1308.96
                             1366.63  1398.93  1422.60  1495.83  1610.10
                             1688.55  1745.23  1841.33  1887.05  1937.80
                             1968.87  2002.20  2009.98  2045.48  2060.89
                             2144.27  2145.94  2173.98  2469.48  2662.11
                             4364.12  4418.08  4447.14  4492.11  4504.69
                             4525.36  4540.13  5285.35

 Zero-point correction=                           0.140342 (Hartree/Particle)
 Thermal correction to Energy=                    0.149805
 Thermal correction to Enthalpy=                  0.150749
 Thermal correction to Gibbs Free Energy=         0.104663
 Sum of electronic and zero-point Energies=           -853.359274
 Sum of electronic and thermal Energies=              -853.349812
 Sum of electronic and thermal Enthalpies=            -853.348868
 Sum of electronic and thermal Free Energies=         -853.394954

                     E (Thermal)             CV                S
                      KCal/Mol        Cal/Mol-Kelvin    Cal/Mol-Kelvin
 Total                   94.004             34.659             96.997
 Electronic               0.000              0.000              0.000
 Translational            0.889              2.981             41.120
 Rotational               0.889              2.981             29.649
 Vibrational             92.227             28.698             26.229
 Vibration     1          0.596              1.976              4.646
 Vibration     2          0.598              1.970              4.236
 Vibration     3          0.607              1.939              3.233
 Vibration     4          0.610              1.930              3.048
 Vibration     5          0.636              1.845              2.170
 Vibration     6          0.708              1.628              1.292
 Vibration     7          0.744              1.529              1.070
 Vibration     8          0.795              1.395              0.844
 Vibration     9          0.805              1.371              0.809
 Vibration    10          0.816              1.343              0.771
 Vibration    11          0.830              1.309              0.728
 Vibration    12          0.896              1.159              0.563
 Vibration    13          0.977              0.995              0.421

 Optimization completed.
    -- Stationary point found.
 Normal termination of Gaussian 16 at Tue Dec  8 10:51:10 2020.

 ----------------------------------------------------------------------
 # B3LYP/6-311++G(d,p) empiricaldispersion=gd3bj scf=xqc pop=npa geom=c
 heck
 ----------------------------------------------------------------------

 --------------------------------------
 CID_141300529_JID_487_Energie_neutraal
 --------------------------------------
 Structure from the checkpoint file:  "JID_487.chk"
 Charge =  0 Multiplicity = 1

 SCF Done:  E(RB3LYP) =  -853.666038759     A.U. after   14 cycles
 Normal termination of Gaussian 16 at Tue Dec  8 10:54:53 2020.

 ----------------------------------------------------------------------
 # B3LYP/6-311++G(d,p) empiricaldispersion=gd3bj scf=xqc pop=npa geom=c
 heck
 ----------------------------------------------------------------------

 ------------------------------------
 CID_141300529_JID_487_Energie_kation
 ------------------------------------
 Structure from the checkpoint file:  "JID_487.chk"
 Charge =  1 Multiplicity = 2

 SCF Done:  E(UB3LYP) =  -853.361239611     A.U. after   23 cycles
 Normal termination of Gaussian 16 at Tue Dec  8 10:58:31 2020.
 Gaussian 16:  ES64L-G16RevA.03 25-Dec-2016

 ----------------------------------------------------------------------
 # B3LYP/6-311++G(d,p) empiricaldispersion=gd3bj scf=xqc pop=npa geom=c
 heck
 ----------------------------------------------------------------------

 -----------------------------------
 CID_141300529_JID_487_Energie_anion
 -----------------------------------
 Structure from the checkpoint file:  "JID_487.chk"
 Charge = -1 Multiplicity = 2

                         Standard orientation:
 ---------------------------------------------------------------------
 Center     Atomic      Atomic             Coordinates (Angstroms)
 Number     Number       Type             X           Y           Z
 ---------------------------------------------------------------------
      1          6           0        0.928150    1.670046   -0.008367
      2          7           0        1.488578    0.943616    1.118924
      3          6           0        1.568366   -0.318960    1.157248
      4         16           0        1.105545   -1.522877   -0.088734
      5          6           0        0.909656   -0.254951   -1.461521
      6          7           0        0.223775    0.929496   -1.055485
      7          6           0       -1.223416    0.824884   -0.946472
      8          6           0       -1.752900    0.079001    0.280660
      9          8           0       -1.565032    0.421115    1.425756
     10          8           0       -2.497196   -0.997084   -0.062980
     11          1           0        1.761360    2.218064   -0.470180
     12          1           0        0.234839    2.409203    0.400700
     13          1           0        1.972569   -0.792963    2.052733
     14          1           0        0.380303   -0.758384   -2.272510
     15          1           0        1.918337    0.003900   -1.792868
     16          1           0       -1.634016    1.839323   -0.892821
     17          1           0       -1.605876    0.352736   -1.855032
     18          1           0       -2.784016   -1.409998    0.774156
 ---------------------------------------------------------------------

 SCF Done:  E(UB3LYP) =  -853.653688761     A.U. after   30 cycles

 The electronic state is 2-A.
 Alpha  occ. eigenvalues --  -88.73832 -19.06193 -19.00512 -14.22054 -14.19762
 Alpha  occ. eigenvalues --  -10.19357 -10.12632 -10.12195 -10.11854 -10.10497
 Alpha  occ. eigenvalues --   -7.82499  -5.78790  -5.78521  -5.77973  -1.00120
 Alpha  occ. eigenvalues --   -0.91323  -0.85886  -0.79587  -0.67660  -0.64325
 Alpha  occ. eigenvalues --   -0.57261  -0.55013  -0.49821  -0.44005  -0.41228
 Alpha  occ. eigenvalues --   -0.39285  -0.38547  -0.37782  -0.34141  -0.33364
 Alpha  occ. eigenvalues --   -0.31135  -0.30124  -0.29224  -0.28803  -0.28280
 Alpha  occ. eigenvalues --   -0.26923  -0.22568  -0.20994  -0.18231  -0.15728
 Alpha  occ. eigenvalues --   -0.13133  -0.11352   0.04800
 Alpha virt. eigenvalues --    0.07234   0.08434   0.08674   0.09116   0.09813
 Alpha virt. eigenvalues --    0.10578   0.11222   0.11451   0.12440   0.13506
 Alpha virt. eigenvalues --    0.14150   0.15288   0.16340   0.16986   0.17233

  Beta  occ. eigenvalues --  -88.73826 -19.06142 -19.00492 -14.22057 -14.19718
  Beta  occ. eigenvalues --  -10.19316 -10.12616 -10.12120 -10.11829 -10.10453
  Beta  occ. eigenvalues --   -7.82494  -5.78774  -5.78511  -5.77974  -1.00034
  Beta  occ. eigenvalues --   -0.91258  -0.85849  -0.79523  -0.67576  -0.64228
  Beta  occ. eigenvalues --   -0.57199  -0.54895  -0.49712  -0.43907  -0.41166
  Beta  occ. eigenvalues --   -0.39198  -0.38471  -0.37729  -0.34031  -0.33262
  Beta  occ. eigenvalues --   -0.31059  -0.30078  -0.29152  -0.28735  -0.28210
  Beta  occ. eigenvalues --   -0.26829  -0.22456  -0.20873  -0.18198  -0.15677
  Beta  occ. eigenvalues --   -0.13065  -0.11296
  Beta virt. eigenvalues --    0.07574   0.08333   0.08987   0.09347   0.09643
  Beta virt. eigenvalues --    0.10417   0.11131   0.11831   0.12080   0.12431
  Beta virt. eigenvalues --    0.13840   0.14567   0.15748   0.16523   0.17189

 Mulliken charges and spin densities:
               1          2
     1  C    0.684926  -1.249324
     2  N   -0.091188   0.104392
     3  C   -0.549901   0.272575
     4  S    0.329050  -0.082187
     5  C    0.092148  -0.679542
     6  N   -0.271982   0.527004
     7  C    2.322819  -2.800887
     8  C   -0.827437   0.795921
     9  O   -0.275682   0.043049
    10  O   -0.129107   0.053079
    11  H   -0.555055   0.753617
    12  H    0.198681   0.018220
    13  H    0.125919   0.104733
    14  H   -0.469389   0.640742
    15  H   -0.484156   0.714572
    16  H   -0.564713   0.752035
    17  H   -0.194956   0.414459
    18  H   -0.339977   0.617542
 Sum of Mulliken charges =  -1.00000   1.00000

 Dipole moment (field-independent basis, Debye):
    X=              1.2385    Y=             -1.8168    Z=              2.9407  Tot=              3.6718
 Quadrupole moment (field-independent basis, Debye-Ang):
   XX=           -109.1732   YY=            -98.7437   ZZ=           -102.4010
   XY=             -5.3630   XZ=              3.1688   YZ=              0.1334

 Summary of Natural Population Analysis:

                                       Natural Population
                Natural  -----------------------------------------------
    Atom  No    Charge         Core      Valence    Rydberg      Total
 -----------------------------------------------------------------------
      C    1   -0.00531      0.99957     1.98918    0.01656     3.00531
      N    2   -0.23481      0.99966     2.72228    0.01287     3.73481
      C    3   -0.00846      0.99958     1.99304    0.01585     3.00846
      S    4    0.06563      4.99962     2.91674    0.01801     7.93437
      C    5   -0.12921      0.99957     2.11487    0.01477     3.12921
      N    6   -0.27554      0.99972     2.75604    0.01978     3.77554
      C    7   -0.12939      0.99955     2.11632    0.01352     3.12939
      C    8    0.40048      0.99973     1.57342    0.02637     2.59952
      O    9   -0.30701      0.99987     3.30034    0.00680     4.30701
      O   10   -0.34134      0.99988     3.33424    0.00723     4.34134
      H   11    0.09891      0.00000     0.39901    0.00208     0.40109
      H   12    0.10272      0.00000     0.39592    0.00136     0.39728
      H   13    0.08645      0.00000     0.41213    0.00142     0.41355
      H   14    0.10889      0.00000     0.38885    0.00225     0.39111
      H   15    0.10513      0.00000     0.39166    0.00320     0.39487
      H   16    0.11221      0.00000     0.38479    0.00300     0.38779
      H   17    0.10996      0.00000     0.38724    0.00280     0.39004
      H   18    0.24068      0.00000     0.25126    0.00805     0.25932
 =======================================================================
   * Total *   -0.00000     13.99674    27.82733    0.17593    42.00000

 Normal termination of Gaussian 16 at Tue Dec  8 11:03:58 2020.
