 Gaussian 16, Revision A.03,

 -----------------------------------------------------------
 # opt freq B3LYP/6-31G(d) empiricaldispersion=gd3bj scf=xqc
 -----------------------------------------------------------

 ------------------------------
 CID_70630345_JID_4858_neutraal
 ------------------------------
 Symbolic Z-matrix:
 Charge =  0 Multiplicity = 1

 SCF Done:  E(RB3LYP) =  -700.268966741     A.U. after   15 cycles
 SCF Done:  E(RB3LYP) =  -700.271575193     A.U. after   12 cycles
 SCF Done:  E(RB3LYP) =  -700.272266742     A.U. after   12 cycles
 SCF Done:  E(RB3LYP) =  -700.272623773     A.U. after   12 cycles
 SCF Done:  E(RB3LYP) =  -700.272946986     A.U. after   12 cycles
 SCF Done:  E(RB3LYP) =  -700.273063236     A.U. after   11 cycles
 SCF Done:  E(RB3LYP) =  -700.273071447     A.U. after   11 cycles
 SCF Done:  E(RB3LYP) =  -700.273094938     A.U. after    9 cycles
 SCF Done:  E(RB3LYP) =  -700.273098335     A.U. after    9 cycles
 SCF Done:  E(RB3LYP) =  -700.273099741     A.U. after    8 cycles
 SCF Done:  E(RB3LYP) =  -700.273101110     A.U. after    8 cycles
 SCF Done:  E(RB3LYP) =  -700.273101838     A.U. after    8 cycles
 Optimization completed.
    -- Stationary point found.
 Normal termination of Gaussian 16 at Thu Dec 10 10:40:57 2020.

 --------------------------------------------------------------------
 #N Geom=AllCheck Guess=TCheck SCRF=Check GenChk RB3LYP/6-31G(d) Freq
 --------------------------------------------------------------------

 Structure from the checkpoint file:  "JID_4858.chk"
 ------------------------------
 CID_70630345_JID_4858_neutraal
 ------------------------------
 Charge =  0 Multiplicity = 1

 SCF Done:  E(RB3LYP) =  -700.273101838     A.U. after    1 cycles

  Exact polarizability: 165.077  -3.092 130.540   0.082   0.643  43.784
 Approx polarizability: 236.453  -0.475 244.428   2.000   3.726  68.063

                      1                      2                      3
                      A                      A                      A
 Frequencies --     47.2766                63.9678                83.3923
 Red. masses --      7.8589                 8.5811                 4.9423
 Frc consts  --      0.0103                 0.0207                 0.0203
 IR Inten    --      3.0855                 4.5426                 4.9849

                      4                      5                      6
                      A                      A                      A
 Frequencies --    162.1289               179.2198               198.2002
 Red. masses --      4.4642                 6.3624                 3.5051
 Frc consts  --      0.0691                 0.1204                 0.0811
 IR Inten    --      6.7275                23.2259                30.6897

                      7                      8                      9
                      A                      A                      A
 Frequencies --    261.6085               266.6985               281.9600
 Red. masses --      1.3788                 5.1952                 1.2177
 Frc consts  --      0.0556                 0.2177                 0.0570
 IR Inten    --     34.3937                 3.2771               264.2357

                     10                     11                     12
                      A                      A                      A
 Frequencies --    317.8612               319.4756               355.1895
 Red. masses --      1.1051                 4.9060                 4.8289
 Frc consts  --      0.0658                 0.2950                 0.3589
 IR Inten    --     58.0762                 2.2709                 6.4174

                     13                     14                     15
                      A                      A                      A
 Frequencies --    370.9863               390.2240               429.0848
 Red. masses --      5.6576                 4.7961                 3.7843
 Frc consts  --      0.4588                 0.4303                 0.4105
 IR Inten    --      5.5327                28.5331                 6.4499

                     16                     17                     18
                      A                      A                      A
 Frequencies --    450.1747               491.8189               520.4212
 Red. masses --      3.2864                 7.7434                 6.8696
 Frc consts  --      0.3924                 1.1036                 1.0962
 IR Inten    --      4.9015                 3.1923                 9.8862

                     19                     20                     21
                      A                      A                      A
 Frequencies --    554.5281               583.4935               617.6479
 Red. masses --      1.7525                 1.6370                 1.9660
 Frc consts  --      0.3175                 0.3284                 0.4419
 IR Inten    --     54.4502                91.9930                30.3308

                     22                     23                     24
                      A                      A                      A
 Frequencies --    623.2783               651.9710               674.1288
 Red. masses --      3.4906                 2.5090                 2.7652
 Frc consts  --      0.7989                 0.6284                 0.7404
 IR Inten    --      3.4612                27.9685                70.9045

                     25                     26                     27
                      A                      A                      A
 Frequencies --    684.5480               715.4644               760.0247
 Red. masses --      2.3767                 1.7455                 5.5556
 Frc consts  --      0.6562                 0.5264                 1.8908
 IR Inten    --     16.2986                25.1627                 0.6781

                     28                     29                     30
                      A                      A                      A
 Frequencies --    783.6629               786.4520               831.3361
 Red. masses --      4.9555                 4.9293                 2.8335
 Frc consts  --      1.7931                 1.7963                 1.1538
 IR Inten    --     55.2174                21.7668               130.4412

                     31                     32                     33
                      A                      A                      A
 Frequencies --    869.7093               898.3301               934.6872
 Red. masses --      1.5631                 1.4512                 1.4116
 Frc consts  --      0.6966                 0.6900                 0.7266
 IR Inten    --     83.4239                 6.8307                32.6301

                     34                     35                     36
                      A                      A                      A
 Frequencies --   1043.2314              1120.7381              1143.5902
 Red. masses --      6.4085                 1.7672                 1.7621
 Frc consts  --      4.1093                 1.3078                 1.3578
 IR Inten    --     10.5561                29.2149                 7.4259

                     37                     38                     39
                      A                      A                      A
 Frequencies --   1147.7915              1161.8060              1209.0170
 Red. masses --      2.0086                 1.6138                 1.3588
 Frc consts  --      1.5591                 1.2834                 1.1703
 IR Inten    --      4.6884                 6.3558               129.9692

                     40                     41                     42
                      A                      A                      A
 Frequencies --   1257.9877              1314.3612              1329.0659
 Red. masses --      2.2330                 6.2996                 1.3829
 Frc consts  --      2.0820                 6.4120                 1.4393
 IR Inten    --     53.7246                 2.4230                40.2085

                     43                     44                     45
                      A                      A                      A
 Frequencies --   1365.9323              1383.9133              1392.7027
 Red. masses --      3.4164                 4.6864                 3.6931
 Frc consts  --      3.7556                 5.2882                 4.2205
 IR Inten    --    201.8761                62.9281                21.5036

                     46                     47                     48
                      A                      A                      A
 Frequencies --   1482.7000              1548.5380              1627.0886
 Red. masses --      5.9284                 3.1008                 5.1985
 Frc consts  --      7.6788                 4.3810                 8.1086
 IR Inten    --    445.4329                71.0205                13.7344

                     49                     50                     51
                      A                      A                      A
 Frequencies --   1642.9721              1649.7193              1679.1672
 Red. masses --      1.2628                 1.4076                 2.3957
 Frc consts  --      2.0083                 2.2570                 3.9800
 IR Inten    --    220.4653               161.4079                23.5150

                     52                     53                     54
                      A                      A                      A
 Frequencies --   1695.8754              1775.3793              1780.0014
 Red. masses --      1.5386                 8.6555                 8.8604
 Frc consts  --      2.6072                16.0740                16.5403
 IR Inten    --     49.7659               516.9045                49.5419

                     55                     56                     57
                      A                      A                      A
 Frequencies --   3193.8867              3207.1476              3504.9551
 Red. masses --      1.0898                 1.0897                 1.0500
 Frc consts  --      6.5501                 6.6035                 7.5997
 IR Inten    --      7.9523                 4.9475                11.3854

                     58                     59                     60
                      A                      A                      A
 Frequencies --   3525.5979              3588.3016              3602.2176
 Red. masses --      1.0493                 1.0444                 1.0952
 Frc consts  --      7.6845                 7.9235                 8.3733
 IR Inten    --     34.4015                47.8119                10.8511

                     61                     62                     63
                      A                      A                      A
 Frequencies --   3665.8424              3721.4619              3758.8878
 Red. masses --      1.1009                 1.1067                 1.0661
 Frc consts  --      8.7165                 9.0304                 8.8746
 IR Inten    --     64.2266                93.7514                56.5074

 - Thermochemistry -
 -------------------
 Temperature   298.150 Kelvin.  Pressure   1.00000 Atm.
 Atom     1 has atomic number  6 and mass  12.00000

 Molecular mass:   195.06439 amu.
 Principal axes and moments of inertia in atomic units:
                           1         2         3
     Eigenvalues --  1310.557344167.043045448.20546
           X            0.99970  -0.02455  -0.00186
           Y            0.02455   0.99969  -0.00423
           Z            0.00196   0.00419   0.99999
 This molecule is an asymmetric top.
 Rotational symmetry number  1.
 Warning -- assumption of classical behavior for rotation
           may cause significant error
 Rotational temperatures (Kelvin)      0.06609     0.02079     0.01590
 Rotational constants (GHZ):           1.37708     0.43310     0.33125
 Zero-point vibrational energy     464622.6 (Joules/Mol)
                                  111.04746 (Kcal/Mol)
 Warning -- explicit consideration of  21 degrees of freedom as
           vibrations may cause significant error
 Vibrational temperatures:     68.02    92.04   119.98   233.27   257.86
          (Kelvin)            285.17   376.40   383.72   405.68   457.33
                              459.65   511.04   533.77   561.45   617.36
                              647.70   707.62   748.77   797.84   839.52
                              888.66   896.76   938.04   969.92   984.91
                             1029.39  1093.51  1127.52  1131.53  1196.11
                             1251.32  1292.50  1344.81  1500.98  1612.49
                             1645.37  1651.42  1671.58  1739.51  1809.96
                             1891.07  1912.23  1965.27  1991.14  2003.79
                             2133.27  2228.00  2341.02  2363.87  2373.58
                             2415.95  2439.99  2554.37  2561.02  4595.29
                             4614.37  5042.85  5072.55  5162.77  5182.79
                             5274.33  5354.35  5408.20

 Zero-point correction=                           0.176965 (Hartree/Particle)
 Thermal correction to Energy=                    0.190001
 Thermal correction to Enthalpy=                  0.190946
 Thermal correction to Gibbs Free Energy=         0.137674
 Sum of electronic and zero-point Energies=           -700.096136
 Sum of electronic and thermal Energies=              -700.083100
 Sum of electronic and thermal Enthalpies=            -700.082156
 Sum of electronic and thermal Free Energies=         -700.135428

                     E (Thermal)             CV                S
                      KCal/Mol        Cal/Mol-Kelvin    Cal/Mol-Kelvin
 Total                  119.228             50.274            112.119
 Electronic               0.000              0.000              0.000
 Translational            0.889              2.981             41.710
 Rotational               0.889              2.981             31.765
 Vibrational            117.450             44.312             38.645
 Vibration     1          0.595              1.979              4.928
 Vibration     2          0.597              1.971              4.331
 Vibration     3          0.600              1.961              3.809
 Vibration     4          0.622              1.889              2.525
 Vibration     5          0.629              1.868              2.337
 Vibration     6          0.637              1.842              2.150
 Vibration     7          0.669              1.743              1.651
 Vibration     8          0.672              1.734              1.618
 Vibration     9          0.681              1.707              1.522
 Vibration    10          0.704              1.639              1.321
 Vibration    11          0.705              1.636              1.313
 Vibration    12          0.731              1.565              1.143
 Vibration    13          0.743              1.532              1.076
 Vibration    14          0.758              1.491              0.999
 Vibration    15          0.790              1.407              0.862
 Vibration    16          0.809              1.361              0.795
 Vibration    17          0.848              1.268              0.679
 Vibration    18          0.875              1.205              0.609
 Vibration    19          0.910              1.130              0.535
 Vibration    20          0.940              1.067              0.479
 Vibration    21          0.977              0.995              0.420

                           ! Non-Optimized Parameters !
 Normal termination of Gaussian 16 at Thu Dec 10 10:46:53 2020.

 ----------------------------------------------------------------------
 # B3LYP/6-311++G(d,p) empiricaldispersion=gd3bj scf=xqc pop=npa geom=c
 heck
 ----------------------------------------------------------------------

 --------------------------------------
 CID_70630345_JID_4858_Energie_neutraal
 --------------------------------------
 Structure from the checkpoint file:  "JID_4858.chk"
 Charge =  0 Multiplicity = 1

 SCF Done:  E(RB3LYP) =  -700.500471690     A.U. after   16 cycles
 Normal termination of Gaussian 16 at Thu Dec 10 10:49:04 2020.

 ----------------------------------------------------------------------
 # B3LYP/6-311++G(d,p) empiricaldispersion=gd3bj scf=xqc pop=npa geom=c
 heck
 ----------------------------------------------------------------------

 ------------------------------------
 CID_70630345_JID_4858_Energie_kation
 ------------------------------------
 Structure from the checkpoint file:  "JID_4858.chk"
 Charge =  1 Multiplicity = 2

 SCF Done:  E(UB3LYP) =  -700.201478222     A.U. after   24 cycles
 Normal termination of Gaussian 16 at Thu Dec 10 10:53:15 2020.
 Gaussian 16:  ES64L-G16RevA.03 25-Dec-2016

 ----------------------------------------------------------------------
 # B3LYP/6-311++G(d,p) empiricaldispersion=gd3bj scf=xqc pop=npa geom=c
 heck
 ----------------------------------------------------------------------

 -----------------------------------
 CID_70630345_JID_4858_Energie_anion
 -----------------------------------
 Structure from the checkpoint file:  "JID_4858.chk"
 Charge = -1 Multiplicity = 2

                         Standard orientation:
 ---------------------------------------------------------------------
 Center     Atomic      Atomic             Coordinates (Angstroms)
 Number     Number       Type             X           Y           Z
 ---------------------------------------------------------------------
      1          6           0        0.546176    1.253456   -0.049500
      2          6           0        1.411545    0.159540   -0.001122
      3          6           0        0.844218   -1.128656   -0.006544
      4          6           0       -0.536625   -1.272775   -0.032949
      5          6           0       -1.397583   -0.172403   -0.044682
      6          6           0       -0.843624    1.126654   -0.078310
      7          7           0       -1.652385    2.288315   -0.093907
      8          6           0       -2.862483   -0.509881    0.007731
      9          8           0       -3.265311   -1.646993   -0.213781
     10          7           0       -3.723134    0.513935    0.316615
     11          8           0        1.662526   -2.236654    0.017597
     12          6           0        2.882649    0.500139    0.031057
     13          8           0        3.254591    1.671108    0.016934
     14          7           0        3.760756   -0.535454    0.079087
     15          1           0        1.011970    2.234112   -0.070888
     16          1           0       -0.995951   -2.257910   -0.035107
     17          1           0       -1.095114    3.128807   -0.210244
     18          1           0       -2.374746    2.258976   -0.808608
     19          1           0       -3.363464    1.343926    0.775992
     20          1           0       -4.667423    0.222188    0.533455
     21          1           0        1.109113   -3.032579    0.008733
     22          1           0        3.455929   -1.497627    0.078891
     23          1           0        4.742931   -0.303590    0.095121
 ---------------------------------------------------------------------

 SCF Done:  E(UB3LYP) =  -700.514193995     A.U. after   24 cycles

 The electronic state is 2-A.
 Alpha  occ. eigenvalues --  -19.03215 -18.93282 -18.92974 -14.19210 -14.18748
 Alpha  occ. eigenvalues --  -14.18406 -10.11562 -10.11417 -10.08656 -10.06250
 Alpha  occ. eigenvalues --  -10.01625 -10.01573 -10.01306 -10.00971  -0.93912
 Alpha  occ. eigenvalues --   -0.88677  -0.88342  -0.78975  -0.75917  -0.75809
 Alpha  occ. eigenvalues --   -0.69319  -0.61429  -0.58133  -0.51548  -0.48475
 Alpha  occ. eigenvalues --   -0.45658  -0.43712  -0.42169  -0.40671  -0.39447
 Alpha  occ. eigenvalues --   -0.37189  -0.36542  -0.32879  -0.31324  -0.29170
 Alpha  occ. eigenvalues --   -0.28464  -0.27932  -0.27292  -0.26694  -0.26003
 Alpha  occ. eigenvalues --   -0.25699  -0.23412  -0.22065  -0.20628  -0.16024
 Alpha  occ. eigenvalues --   -0.14110  -0.13216  -0.11670  -0.11134  -0.10719
 Alpha  occ. eigenvalues --   -0.07189   0.04674
 Alpha virt. eigenvalues --    0.08518   0.08678   0.09972   0.10328   0.12696
 Alpha virt. eigenvalues --    0.12976   0.13743   0.14778   0.14870   0.15057
 Alpha virt. eigenvalues --    0.15436   0.17015   0.17809   0.17924   0.18540

  Beta  occ. eigenvalues --  -19.03212 -18.93074 -18.92807 -14.19206 -14.18674
  Beta  occ. eigenvalues --  -14.18332 -10.11442 -10.11256 -10.08694 -10.06256
  Beta  occ. eigenvalues --  -10.01342 -10.01274 -10.01138 -10.00824  -0.93900
  Beta  occ. eigenvalues --   -0.88295  -0.88034  -0.78888  -0.75708  -0.75603
  Beta  occ. eigenvalues --   -0.68943  -0.60774  -0.57813  -0.50848  -0.48339
  Beta  occ. eigenvalues --   -0.45383  -0.43505  -0.42058  -0.40567  -0.39290
  Beta  occ. eigenvalues --   -0.37097  -0.36356  -0.32699  -0.31095  -0.28554
  Beta  occ. eigenvalues --   -0.28203  -0.27763  -0.26534  -0.26376  -0.25509
  Beta  occ. eigenvalues --   -0.25070  -0.23238  -0.21666  -0.20363  -0.15417
  Beta  occ. eigenvalues --   -0.13255  -0.12421  -0.11307  -0.10774  -0.09011
  Beta  occ. eigenvalues --   -0.06229
  Beta virt. eigenvalues --    0.08501   0.08649   0.09944   0.10292   0.10334
  Beta virt. eigenvalues --    0.12685   0.12967   0.13729   0.14782   0.15013
  Beta virt. eigenvalues --    0.15429   0.16455   0.17176   0.17809   0.17916

 Mulliken charges and spin densities:
               1          2
     1  C   -0.908027   0.159517
     2  C    1.491499   0.199558
     3  C   -0.995587  -0.015184
     4  C   -0.823197   0.179412
     5  C    1.590564   0.149911
     6  C   -1.023615  -0.021766
     7  N   -0.411935   0.009772
     8  C   -0.012002   0.096246
     9  O   -0.429729   0.079247
    10  N   -0.465081   0.030703
    11  O   -0.303627   0.004164
    12  C    0.078768   0.056596
    13  O   -0.440840   0.065751
    14  N   -0.480530   0.033122
    15  H    0.151351  -0.010066
    16  H    0.125777  -0.011499
    17  H    0.242382  -0.000308
    18  H    0.248063   0.002027
    19  H    0.263250   0.000053
    20  H    0.271607  -0.002690
    21  H    0.261433  -0.000404
    22  H    0.290281  -0.001526
    23  H    0.279195  -0.002635
 Sum of Mulliken charges =  -1.00000   1.00000

 Dipole moment (field-independent basis, Debye):
    X=             -0.4370    Y=             -0.4190    Z=              0.3228  Tot=              0.6862
 Quadrupole moment (field-independent basis, Debye-Ang):
   XX=           -121.1845   YY=            -91.9624   ZZ=            -89.7225
   XY=            -25.8176   XZ=             -2.7248   YZ=             -2.9498

 Summary of Natural Population Analysis:

                                       Natural Population
                Natural  -----------------------------------------------
    Atom  No    Charge         Core      Valence    Rydberg      Total
 -----------------------------------------------------------------------
      C    1   -0.07444      0.99952     2.06621    0.00871     3.07444
      C    2   -0.03198      0.99942     2.02330    0.00926     3.03198
      C    3    0.14440      0.99934     1.84489    0.01137     2.85560
      C    4   -0.09119      0.99951     2.08247    0.00920     3.09119
      C    5   -0.02690      0.99943     2.01835    0.00912     3.02690
      C    6    0.07200      0.99946     1.91882    0.00973     2.92800
      N    7   -0.41948      0.99973     2.91006    0.00969     3.91948
      C    8    0.35393      0.99968     1.62429    0.02210     2.64607
      O    9   -0.32337      0.99988     3.31651    0.00698     4.32337
      N   10   -0.41428      0.99971     2.90645    0.00813     3.91428
      O   11   -0.36350      0.99987     3.35725    0.00637     4.36350
      C   12    0.34867      0.99968     1.62958    0.02207     2.65133
      O   13   -0.33130      0.99988     3.32467    0.00675     4.33130
      N   14   -0.40425      0.99970     2.89708    0.00748     3.90425
      H   15    0.10372      0.00000     0.39492    0.00137     0.39628
      H   16    0.10207      0.00000     0.39648    0.00145     0.39793
      H   17    0.17898      0.00000     0.31945    0.00156     0.32102
      H   18    0.18191      0.00000     0.31611    0.00199     0.31809
      H   19    0.19719      0.00000     0.30102    0.00179     0.30281
      H   20    0.18030      0.00000     0.31546    0.00424     0.31970
      H   21    0.23368      0.00000     0.26399    0.00232     0.26632
      H   22    0.20301      0.00000     0.29559    0.00140     0.29699
      H   23    0.18083      0.00000     0.31521    0.00395     0.31917
 =======================================================================
   * Total *   -0.00000     13.99480    36.83816    0.16703    51.00000

 Normal termination of Gaussian 16 at Thu Dec 10 10:57:37 2020.
