 Gaussian 16, Revision A.03,

 -----------------------------------------------------------
 # opt freq B3LYP/6-31G(d) empiricaldispersion=gd3bj scf=xqc
 -----------------------------------------------------------

 ------------------------------
 CID_63676960_JID_3511_neutraal
 ------------------------------
 Symbolic Z-matrix:
 Charge =  0 Multiplicity = 1

 SCF Done:  E(RB3LYP) =  -918.307241137     A.U. after   14 cycles
 SCF Done:  E(RB3LYP) =  -918.310590473     A.U. after   12 cycles
 SCF Done:  E(RB3LYP) =  -918.311340018     A.U. after   12 cycles
 SCF Done:  E(RB3LYP) =  -918.311825039     A.U. after   12 cycles
 SCF Done:  E(RB3LYP) =  -918.312038835     A.U. after   12 cycles
 SCF Done:  E(RB3LYP) =  -918.312265183     A.U. after   11 cycles
 SCF Done:  E(RB3LYP) =  -918.312312783     A.U. after   11 cycles
 SCF Done:  E(RB3LYP) =  -918.312332140     A.U. after   10 cycles
 SCF Done:  E(RB3LYP) =  -918.312335679     A.U. after    9 cycles
 SCF Done:  E(RB3LYP) =  -918.312336484     A.U. after    8 cycles
 SCF Done:  E(RB3LYP) =  -918.312336701     A.U. after    8 cycles
 SCF Done:  E(RB3LYP) =  -918.312336722     A.U. after    7 cycles
 Optimization completed.
    -- Stationary point found.
 Normal termination of Gaussian 16 at Wed Dec  9 23:30:20 2020.

 --------------------------------------------------------------------
 #N Geom=AllCheck Guess=TCheck SCRF=Check GenChk RB3LYP/6-31G(d) Freq
 --------------------------------------------------------------------

 Structure from the checkpoint file:  "JID_3511.chk"
 ------------------------------
 CID_63676960_JID_3511_neutraal
 ------------------------------
 Charge =  0 Multiplicity = 1

 SCF Done:  E(RB3LYP) =  -918.312336722     A.U. after    1 cycles

  Exact polarizability: 178.077 -10.766 143.358  -7.054   2.874  87.887
 Approx polarizability: 251.068 -20.186 223.125 -22.373   8.577 133.501

                      1                      2                      3
                      A                      A                      A
 Frequencies --     22.5810                57.9383                63.8834
 Red. masses --      3.6047                 3.7672                 3.5598
 Frc consts  --      0.0011                 0.0075                 0.0086
 IR Inten    --      0.6492                 0.7588                 1.8211

                      4                      5                      6
                      A                      A                      A
 Frequencies --     92.7760               109.1918               124.1053
 Red. masses --      2.0823                 1.7129                 3.8071
 Frc consts  --      0.0106                 0.0120                 0.0345
 IR Inten    --      0.2913                 1.7219                 2.2472

                      7                      8                      9
                      A                      A                      A
 Frequencies --    167.1022               232.7237               240.3808
 Red. masses --      3.1797                 3.9484                 2.0090
 Frc consts  --      0.0523                 0.1260                 0.0684
 IR Inten    --      2.1760                 0.2190                 0.3799

                     10                     11                     12
                      A                      A                      A
 Frequencies --    261.3968               277.1035               326.2153
 Red. masses --      1.2185                 1.7387                 2.5777
 Frc consts  --      0.0491                 0.0787                 0.1616
 IR Inten    --      0.8736                 1.1924                 7.3877

                     13                     14                     15
                      A                      A                      A
 Frequencies --    333.0646               345.8698               359.3235
 Red. masses --      3.8058                 1.6799                 2.8006
 Frc consts  --      0.2487                 0.1184                 0.2130
 IR Inten    --      0.6562                20.9629                 4.5725

                     16                     17                     18
                      A                      A                      A
 Frequencies --    369.8224               410.1210               461.8043
 Red. masses --      3.4876                 4.6618                 3.0026
 Frc consts  --      0.2810                 0.4620                 0.3773
 IR Inten    --      6.4728                 0.6882                11.6167

                     19                     20                     21
                      A                      A                      A
 Frequencies --    529.6226               588.6476               604.7527
 Red. masses --      3.5345                 3.8422                 3.7408
 Frc consts  --      0.5841                 0.7844                 0.8061
 IR Inten    --      1.7273                71.8790                72.2283

                     22                     23                     24
                      A                      A                      A
 Frequencies --    627.9942               644.3472               672.4484
 Red. masses --      1.9182                 4.1756                 5.1891
 Frc consts  --      0.4457                 1.0214                 1.3825
 IR Inten    --    209.9396                 6.0728                15.2516

                     25                     26                     27
                      A                      A                      A
 Frequencies --    720.9210               782.8472               818.8527
 Red. masses --      4.4849                 1.1980                 2.1646
 Frc consts  --      1.3734                 0.4326                 0.8551
 IR Inten    --     10.7578                15.6231                12.2764

                     28                     29                     30
                      A                      A                      A
 Frequencies --    826.4019               839.5533               873.6541
 Red. masses --      2.1044                 1.1414                 1.2999
 Frc consts  --      0.8467                 0.4740                 0.5846
 IR Inten    --     20.4945                 7.2638                 9.8613

                     31                     32                     33
                      A                      A                      A
 Frequencies --    888.4850               930.0596               965.6031
 Red. masses --      3.3657                 1.2748                 3.0007
 Frc consts  --      1.5654                 0.6497                 1.6484
 IR Inten    --      9.3906                 0.3610                24.4474

                     34                     35                     36
                      A                      A                      A
 Frequencies --    990.4533              1069.2954              1078.7220
 Red. masses --      1.8380                 1.3156                 2.9512
 Frc consts  --      1.0623                 0.8863                 2.0234
 IR Inten    --      7.0810                 3.9316                42.2308

                     37                     38                     39
                      A                      A                      A
 Frequencies --   1085.8057              1102.8172              1128.5329
 Red. masses --      1.9406                 1.7206                 2.2525
 Frc consts  --      1.3480                 1.2330                 1.6902
 IR Inten    --      4.0500                13.6108                 9.8295

                     40                     41                     42
                      A                      A                      A
 Frequencies --   1155.3159              1185.1509              1197.6677
 Red. masses --      2.2133                 1.2041                 1.5062
 Frc consts  --      1.7405                 0.9965                 1.2729
 IR Inten    --     19.9071                26.8522                 3.9032

                     43                     44                     45
                      A                      A                      A
 Frequencies --   1263.2085              1292.4587              1315.6116
 Red. masses --      5.4350                 1.2098                 1.1166
 Frc consts  --      5.1098                 1.1907                 1.1386
 IR Inten    --    245.5332                 2.9555                 3.8117

                     46                     47                     48
                      A                      A                      A
 Frequencies --   1317.1981              1317.8406              1328.6719
 Red. masses --      1.3324                 1.4046                 3.1569
 Frc consts  --      1.3620                 1.4373                 3.2836
 IR Inten    --     46.4651                 3.7643               108.3254

                     49                     50                     51
                      A                      A                      A
 Frequencies --   1395.8918              1421.5308              1436.4906
 Red. masses --      3.3971                 1.2480                 1.2287
 Frc consts  --      3.9000                 1.4859                 1.4939
 IR Inten    --     23.2975                 9.0280                 4.0648

                     52                     53                     54
                      A                      A                      A
 Frequencies --   1451.4828              1458.9075              1498.0800
 Red. masses --      1.4388                 3.6758                 1.0957
 Frc consts  --      1.7859                 4.6096                 1.4488
 IR Inten    --     24.2701                36.0828                 4.0085

                     55                     56                     57
                      A                      A                      A
 Frequencies --   1515.4098              1519.6137              1531.2207
 Red. masses --      1.0402                 1.0405                 1.0546
 Frc consts  --      1.4074                 1.4156                 1.4569
 IR Inten    --      5.6148                 4.2546                 5.5824

                     58                     59                     60
                      A                      A                      A
 Frequencies --   1534.0592              1549.3069              1563.2041
 Red. masses --      1.0468                 1.5136                 1.7184
 Frc consts  --      1.4514                 2.1406                 2.4741
 IR Inten    --      2.2520               113.4691                77.7213

                     61                     62                     63
                      A                      A                      A
 Frequencies --   1635.9772              1643.2144              1684.3558
 Red. masses --      6.3084                 2.7496                 1.5157
 Frc consts  --      9.9477                 4.3743                 2.5335
 IR Inten    --     16.4696                14.9600               128.0179

                     64                     65                     66
                      A                      A                      A
 Frequencies --   3018.9005              3048.1582              3055.8798
 Red. masses --      1.0555                 1.0382                 1.1087
 Frc consts  --      5.6679                 5.6832                 6.1001
 IR Inten    --     27.1229                32.8576                32.5535

                     67                     68                     69
                      A                      A                      A
 Frequencies --   3063.0076              3064.4967              3108.9413
 Red. masses --      1.0351                 1.0586                 1.1056
 Frc consts  --      5.7218                 5.8575                 6.2964
 IR Inten    --     19.0458                24.8063                 5.6320

                     70                     71                     72
                      A                      A                      A
 Frequencies --   3115.6192              3135.6230              3139.4597
 Red. masses --      1.0984                 1.1026                 1.1043
 Frc consts  --      6.2818                 6.3873                 6.4130
 IR Inten    --     26.0792                23.0567                29.0003

                     73                     74                     75
                      A                      A                      A
 Frequencies --   3139.7391              3180.1776              3217.0795
 Red. masses --      1.1040                 1.0888                 1.0928
 Frc consts  --      6.4123                 6.4880                 6.6638
 IR Inten    --     29.8197                20.2160                 7.0018

                     76                     77                     78
                      A                      A                      A
 Frequencies --   3231.4912              3558.9233              3664.3236
 Red. masses --      1.0897                 1.0469                 1.0990
 Frc consts  --      6.7046                 7.8126                 8.6945
 IR Inten    --      4.2836                24.4957                18.8243

 - Thermochemistry -
 -------------------
 Temperature   298.150 Kelvin.  Pressure   1.00000 Atm.
 Atom     1 has atomic number  6 and mass  12.00000

 Molecular mass:   197.08744 amu.
 Principal axes and moments of inertia in atomic units:
                           1         2         3
     Eigenvalues --  1774.420864488.847955560.37572
           X            0.99962   0.02118   0.01737
           Y           -0.02096   0.99970  -0.01283
           Z           -0.01763   0.01246   0.99977
 This molecule is an asymmetric top.
 Rotational symmetry number  1.
 Warning -- assumption of classical behavior for rotation
           may cause significant error
 Rotational temperatures (Kelvin)      0.04881     0.01930     0.01558
 Rotational constants (GHZ):           1.01709     0.40205     0.32457
 Zero-point vibrational energy     621932.0 (Joules/Mol)
                                  148.64531 (Kcal/Mol)
 Warning -- explicit consideration of  21 degrees of freedom as
           vibrations may cause significant error
 Vibrational temperatures:     32.49    83.36    91.91   133.48   157.10
          (Kelvin)            178.56   240.42   334.84   345.85   376.09
                              398.69   469.35   479.21   497.63   516.99
                              532.09   590.07   664.43   762.01   846.93
                              870.10   903.54   927.07   967.50  1037.24
                             1126.34  1178.15  1189.01  1207.93  1256.99
                             1278.33  1338.15  1389.29  1425.04  1538.48
                             1552.04  1562.23  1586.71  1623.71  1662.24
                             1705.17  1723.18  1817.48  1859.56  1892.87
                             1895.15  1896.08  1911.66  2008.38  2045.27
                             2066.79  2088.36  2099.04  2155.40  2180.34
                             2186.39  2203.09  2207.17  2229.11  2249.10
                             2353.81  2364.22  2423.41  4343.52  4385.62
                             4396.73  4406.98  4409.13  4473.07  4482.68
                             4511.46  4516.98  4517.38  4575.57  4628.66
                             4649.40  5120.50  5272.14

 Zero-point correction=                           0.236881 (Hartree/Particle)
 Thermal correction to Energy=                    0.251210
 Thermal correction to Enthalpy=                  0.252154
 Thermal correction to Gibbs Free Energy=         0.194613
 Sum of electronic and zero-point Energies=           -918.075455
 Sum of electronic and thermal Energies=              -918.061127
 Sum of electronic and thermal Enthalpies=            -918.060183
 Sum of electronic and thermal Free Energies=         -918.117723

                     E (Thermal)             CV                S
                      KCal/Mol        Cal/Mol-Kelvin    Cal/Mol-Kelvin
 Total                  157.637             53.021            121.105
 Electronic               0.000              0.000              0.000
 Translational            0.889              2.981             41.740
 Rotational               0.889              2.981             32.160
 Vibrational            155.859             47.059             47.204
 Vibration     1          0.593              1.985              6.393
 Vibration     2          0.596              1.974              4.526
 Vibration     3          0.597              1.972              4.333
 Vibration     4          0.602              1.954              3.601
 Vibration     5          0.606              1.942              3.283
 Vibration     6          0.610              1.929              3.035
 Vibration     7          0.624              1.883              2.468
 Vibration     8          0.653              1.791              1.858
 Vibration     9          0.657              1.779              1.800
 Vibration    10          0.669              1.743              1.652
 Vibration    11          0.678              1.716              1.551
 Vibration    12          0.710              1.623              1.279
 Vibration    13          0.715              1.609              1.245
 Vibration    14          0.724              1.584              1.185
 Vibration    15          0.734              1.556              1.125
 Vibration    16          0.742              1.534              1.081
 Vibration    17          0.774              1.448              0.926
 Vibration    18          0.820              1.335              0.761
 Vibration    19          0.885              1.184              0.588
 Vibration    20          0.946              1.056              0.470
 Vibration    21          0.963              1.022              0.442

 Optimization completed.
    -- Stationary point found.
 Normal termination of Gaussian 16 at Wed Dec  9 23:36:31 2020.

 ----------------------------------------------------------------------
 # B3LYP/6-311++G(d,p) empiricaldispersion=gd3bj scf=xqc pop=npa geom=c
 heck
 ----------------------------------------------------------------------

 --------------------------------------
 CID_63676960_JID_3511_Energie_neutraal
 --------------------------------------
 Structure from the checkpoint file:  "JID_3511.chk"
 Charge =  0 Multiplicity = 1

 SCF Done:  E(RB3LYP) =  -918.489440321     A.U. after   15 cycles
 Normal termination of Gaussian 16 at Wed Dec  9 23:39:05 2020.

 ----------------------------------------------------------------------
 # B3LYP/6-311++G(d,p) empiricaldispersion=gd3bj scf=xqc pop=npa geom=c
 heck
 ----------------------------------------------------------------------

 ------------------------------------
 CID_63676960_JID_3511_Energie_kation
 ------------------------------------
 Structure from the checkpoint file:  "JID_3511.chk"
 Charge =  1 Multiplicity = 2

 SCF Done:  E(UB3LYP) =  -918.222163025     A.U. after   24 cycles
 Normal termination of Gaussian 16 at Wed Dec  9 23:44:34 2020.
 Gaussian 16:  ES64L-G16RevA.03 25-Dec-2016

 ----------------------------------------------------------------------
 # B3LYP/6-311++G(d,p) empiricaldispersion=gd3bj scf=xqc pop=npa geom=c
 heck
 ----------------------------------------------------------------------

 -----------------------------------
 CID_63676960_JID_3511_Energie_anion
 -----------------------------------
 Structure from the checkpoint file:  "JID_3511.chk"
 Charge = -1 Multiplicity = 2

                         Standard orientation:
 ---------------------------------------------------------------------
 Center     Atomic      Atomic             Coordinates (Angstroms)
 Number     Number       Type             X           Y           Z
 ---------------------------------------------------------------------
      1          6           0       -4.077203   -2.030455    0.229015
      2          6           0       -2.621610   -1.690902   -0.031529
      3          8           0       -2.474865   -0.282228    0.123706
      4          6           0       -1.232593    0.266713   -0.069634
      5          6           0       -1.189973    1.674595    0.078638
      6          6           0        0.028945    2.325716   -0.123617
      7          6           0        1.182517    1.611096   -0.451798
      8          6           0        1.135197    0.223989   -0.590483
      9          6           0       -0.088022   -0.444986   -0.404542
     10         16           0        2.600823   -0.704305   -1.024183
     11          6           0        3.107030   -1.327517    0.638358
     12          6           0        3.527560   -0.228999    1.607239
     13          7           0       -2.345984    2.346258    0.464386
     14          1           0       -4.365828   -1.732034    1.241604
     15          1           0       -4.237625   -3.108542    0.124243
     16          1           0       -4.726762   -1.512152   -0.483437
     17          1           0       -1.961972   -2.210119    0.677748
     18          1           0       -2.321642   -1.985179   -1.047154
     19          1           0        0.072309    3.406426   -0.011923
     20          1           0        2.121828    2.132796   -0.600817
     21          1           0       -0.122710   -1.519351   -0.537352
     22          1           0        2.281219   -1.919068    1.047166
     23          1           0        3.935417   -2.014203    0.432799
     24          1           0        2.705572    0.473314    1.777041
     25          1           0        3.812394   -0.660659    2.574960
     26          1           0        4.380058    0.333950    1.213924
     27          1           0       -2.398621    3.311850    0.167196
     28          1           0       -3.197074    1.830370    0.280712
 ---------------------------------------------------------------------

 SCF Done:  E(UB3LYP) =  -918.475998113     A.U. after   32 cycles

 The electronic state is 2-A.
 Alpha  occ. eigenvalues --  -88.74429 -19.05738 -14.21647 -10.13493 -10.13061
 Alpha  occ. eigenvalues --  -10.11740 -10.10723 -10.09803 -10.07912 -10.07772
 Alpha  occ. eigenvalues --  -10.07579 -10.07427 -10.06694  -7.83026  -5.79421
 Alpha  occ. eigenvalues --   -5.79063  -5.78396  -0.97334  -0.82102  -0.75522
 Alpha  occ. eigenvalues --   -0.70637  -0.68138  -0.65109  -0.63469  -0.59124
 Alpha  occ. eigenvalues --   -0.55400  -0.52091  -0.49884  -0.48319  -0.43521
 Alpha  occ. eigenvalues --   -0.42245  -0.40809  -0.39025  -0.37168  -0.35203
 Alpha  occ. eigenvalues --   -0.34859  -0.34248  -0.33267  -0.31184  -0.30769
 Alpha  occ. eigenvalues --   -0.29908  -0.29747  -0.27758  -0.27479  -0.26341
 Alpha  occ. eigenvalues --   -0.26117  -0.24907  -0.22992  -0.22243  -0.20558
 Alpha  occ. eigenvalues --   -0.14634  -0.13597  -0.10525   0.04272
 Alpha virt. eigenvalues --    0.05970   0.06198   0.07506   0.08160   0.08256
 Alpha virt. eigenvalues --    0.08788   0.09280   0.09738   0.09825   0.10251
 Alpha virt. eigenvalues --    0.11282   0.11587   0.12220   0.12693   0.12990

  Beta  occ. eigenvalues --  -88.74428 -19.05725 -14.21596 -10.13494 -10.13040
  Beta  occ. eigenvalues --  -10.11721 -10.10704 -10.09801 -10.07894 -10.07770
  Beta  occ. eigenvalues --  -10.07564 -10.07415 -10.06647  -7.83025  -5.79420
  Beta  occ. eigenvalues --   -5.79061  -5.78395  -0.97317  -0.82041  -0.75495
  Beta  occ. eigenvalues --   -0.70610  -0.68103  -0.65074  -0.63431  -0.59082
  Beta  occ. eigenvalues --   -0.55337  -0.52036  -0.49816  -0.48285  -0.43472
  Beta  occ. eigenvalues --   -0.42201  -0.40759  -0.39000  -0.37148  -0.35152
  Beta  occ. eigenvalues --   -0.34829  -0.34210  -0.33234  -0.31143  -0.30721
  Beta  occ. eigenvalues --   -0.29864  -0.29698  -0.27732  -0.27434  -0.26315
  Beta  occ. eigenvalues --   -0.26081  -0.24856  -0.22964  -0.22203  -0.20522
  Beta  occ. eigenvalues --   -0.14587  -0.13586  -0.10470
  Beta virt. eigenvalues --    0.06228   0.07024   0.07268   0.07644   0.08612
  Beta virt. eigenvalues --    0.08672   0.08891   0.09694   0.09815   0.10398
  Beta virt. eigenvalues --    0.10782   0.11366   0.11807   0.12346   0.12772

 Mulliken charges and spin densities:
               1          2
     1  C    1.862764  -2.568268
     2  C   -0.614404   0.662624
     3  O   -0.170059   0.045679
     4  C    0.629243  -0.979723
     5  C   -0.425658   0.161617
     6  C   -0.603718   0.378115
     7  C   -0.656568   0.083419
     8  C    0.863390   0.018467
     9  C    0.535263  -0.281299
    10  S    0.155012  -0.328332
    11  C   -0.219156  -0.247536
    12  C   -0.278273  -0.275146
    13  N   -0.295888  -0.065873
    14  H   -0.221542   0.373124
    15  H   -0.470252   0.618436
    16  H   -0.379272   0.532993
    17  H   -0.053273   0.211737
    18  H   -0.020485   0.176225
    19  H   -0.280867   0.447399
    20  H    0.084560   0.080024
    21  H   -0.159106   0.376141
    22  H    0.043070   0.131366
    23  H   -0.046581   0.217826
    24  H    0.126115   0.039895
    25  H   -0.126358   0.251319
    26  H    0.068518   0.057876
    27  H   -0.406419   0.660276
    28  H    0.059943   0.221619
 Sum of Mulliken charges =  -1.00000   1.00000

 Dipole moment (field-independent basis, Debye):
    X=              6.4942    Y=              0.0479    Z=             -0.1672  Tot=              6.4965
 Quadrupole moment (field-independent basis, Debye-Ang):
   XX=           -166.2767   YY=           -143.3163   ZZ=           -117.1797
   XY=              0.4197   XZ=              0.4346   YZ=              0.3571

 Summary of Natural Population Analysis:

                                       Natural Population
                Natural  -----------------------------------------------
    Atom  No    Charge         Core      Valence    Rydberg      Total
 -----------------------------------------------------------------------
      C    1   -0.28941      0.99966     2.28505    0.00469     3.28941
      C    2   -0.01015      0.99959     1.99818    0.01238     3.01015
      O    3   -0.28281      0.99985     3.27195    0.01100     4.28281
      C    4    0.14795      0.99934     1.84004    0.01266     2.85205
      C    5    0.07784      0.99947     1.91071    0.01198     2.92216
      C    6   -0.12214      0.99953     2.11283    0.00978     3.12214
      C    7   -0.10756      0.99949     2.09682    0.01125     3.10756
      C    8   -0.11000      0.99941     2.09770    0.01289     3.11000
      C    9   -0.13701      0.99945     2.12690    0.01065     3.13701
      S   10    0.09433      4.99955     2.88738    0.01874     7.90567
      C   11   -0.24832      0.99961     2.23714    0.01157     3.24832
      C   12   -0.29269      0.99965     2.28748    0.00555     3.29269
      N   13   -0.39244      0.99971     2.88195    0.01078     3.89244
      H   14    0.10105      0.00000     0.39730    0.00165     0.39895
      H   15    0.10304      0.00000     0.39477    0.00219     0.39696
      H   16    0.10197      0.00000     0.39599    0.00204     0.39803
      H   17    0.08347      0.00000     0.41478    0.00175     0.41653
      H   18    0.08375      0.00000     0.41443    0.00182     0.41625
      H   19    0.10084      0.00000     0.39776    0.00140     0.39916
      H   20    0.10342      0.00000     0.39539    0.00119     0.39658
      H   21    0.10876      0.00000     0.38953    0.00171     0.39124
      H   22    0.10063      0.00000     0.39793    0.00144     0.39937
      H   23    0.10052      0.00000     0.39811    0.00136     0.39948
      H   24    0.10503      0.00000     0.39364    0.00133     0.39497
      H   25    0.09807      0.00000     0.40064    0.00130     0.40193
      H   26    0.09725      0.00000     0.40135    0.00141     0.40275
      H   27    0.18868      0.00000     0.30549    0.00583     0.31132
      H   28    0.19594      0.00000     0.30122    0.00284     0.30406
 =======================================================================
   * Total *   -0.00000     16.99433    35.83248    0.17319    53.00000

 Normal termination of Gaussian 16 at Wed Dec  9 23:51:43 2020.
