 Gaussian 16, Revision A.03,

 -----------------------------------------------------------
 # opt freq B3LYP/6-31G(d) empiricaldispersion=gd3bj scf=xqc
 -----------------------------------------------------------

 ------------------------------
 CID_71684003_JID_5090_neutraal
 ------------------------------
 Symbolic Z-matrix:
 Charge =  0 Multiplicity = 1

 SCF Done:  E(RB3LYP) =  -692.440998432     A.U. after   14 cycles
 SCF Done:  E(RB3LYP) =  -692.445749764     A.U. after   12 cycles
 SCF Done:  E(RB3LYP) =  -692.446154161     A.U. after   12 cycles
 SCF Done:  E(RB3LYP) =  -692.446798831     A.U. after   11 cycles
 SCF Done:  E(RB3LYP) =  -692.446905345     A.U. after   11 cycles
 SCF Done:  E(RB3LYP) =  -692.446942113     A.U. after   10 cycles
 SCF Done:  E(RB3LYP) =  -692.446958563     A.U. after   10 cycles
 SCF Done:  E(RB3LYP) =  -692.446966604     A.U. after    9 cycles
 SCF Done:  E(RB3LYP) =  -692.446969330     A.U. after    8 cycles
 SCF Done:  E(RB3LYP) =  -692.446969771     A.U. after    7 cycles
 SCF Done:  E(RB3LYP) =  -692.446969916     A.U. after    7 cycles
 Optimization completed.
    -- Stationary point found.
 Normal termination of Gaussian 16 at Thu Dec 10 14:45:40 2020.

 --------------------------------------------------------------------
 #N Geom=AllCheck Guess=TCheck SCRF=Check GenChk RB3LYP/6-31G(d) Freq
 --------------------------------------------------------------------

 Structure from the checkpoint file:  "JID_5090.chk"
 ------------------------------
 CID_71684003_JID_5090_neutraal
 ------------------------------
 Charge =  0 Multiplicity = 1

 SCF Done:  E(RB3LYP) =  -692.446969915     A.U. after    1 cycles

  Exact polarizability: 160.988  -3.225 129.887   0.937   0.707 111.461
 Approx polarizability: 191.170  -4.135 195.005   4.477  -2.652 163.358

                      1                      2                      3
                      A                      A                      A
 Frequencies --     30.1758                38.2598                43.7720
 Red. masses --      3.5471                 3.2530                 3.0753
 Frc consts  --      0.0019                 0.0028                 0.0035
 IR Inten    --      0.3082                 0.0115                 0.3040

                      4                      5                      6
                      A                      A                      A
 Frequencies --     60.8998                90.5072               109.3347
 Red. masses --      4.1004                 3.9802                 3.4095
 Frc consts  --      0.0090                 0.0192                 0.0240
 IR Inten    --      1.6717                 1.0976                 2.2987

                      7                      8                      9
                      A                      A                      A
 Frequencies --    150.6946               190.1609               208.8126
 Red. masses --      3.1320                 3.0312                 1.3759
 Frc consts  --      0.0419                 0.0646                 0.0353
 IR Inten    --      2.8697                 1.3146                 1.2714

                     10                     11                     12
                      A                      A                      A
 Frequencies --    228.4063               247.4610               257.5901
 Red. masses --      1.0964                 1.3043                 1.7948
 Frc consts  --      0.0337                 0.0471                 0.0702
 IR Inten    --      0.1124                 0.7902                 5.2023

                     13                     14                     15
                      A                      A                      A
 Frequencies --    264.5334               302.9820               323.8395
 Red. masses --      3.0148                 2.4024                 3.3105
 Frc consts  --      0.1243                 0.1299                 0.2046
 IR Inten    --      4.3550                 0.1206                 3.4990

                     16                     17                     18
                      A                      A                      A
 Frequencies --    345.1995               361.1111               383.7718
 Red. masses --      2.0426                 3.0976                 2.1486
 Frc consts  --      0.1434                 0.2380                 0.1864
 IR Inten    --      1.2535                 1.4424                 0.5070

                     19                     20                     21
                      A                      A                      A
 Frequencies --    401.9365               424.4730               453.4275
 Red. masses --      2.1340                 1.8996                 2.6144
 Frc consts  --      0.2031                 0.2017                 0.3167
 IR Inten    --      8.6790                 0.2648                 7.0035

                     22                     23                     24
                      A                      A                      A
 Frequencies --    505.0931               527.2489               550.8053
 Red. masses --      2.8796                 2.7796                 2.8041
 Frc consts  --      0.4328                 0.4553                 0.5012
 IR Inten    --      2.8867                19.9961                28.8778

                     25                     26                     27
                      A                      A                      A
 Frequencies --    607.4477               677.6698               724.4920
 Red. masses --      3.9211                 2.5509                 1.8522
 Frc consts  --      0.8525                 0.6902                 0.5728
 IR Inten    --     11.0891                 3.2448                29.7841

                     28                     29                     30
                      A                      A                      A
 Frequencies --    763.4751               777.7376               801.6942
 Red. masses --      2.4643                 2.5506                 4.2650
 Frc consts  --      0.8463                 0.9090                 1.6151
 IR Inten    --      7.7920                16.0253                39.7836

                     31                     32                     33
                      A                      A                      A
 Frequencies --    807.8914               873.1954               896.5484
 Red. masses --      2.7291                 1.6744                 2.5413
 Frc consts  --      1.0495                 0.7522                 1.2035
 IR Inten    --      8.9327                 2.0045                 4.7603

                     34                     35                     36
                      A                      A                      A
 Frequencies --    912.5816               926.0373               942.6399
 Red. masses --      1.7348                 2.0990                 1.1921
 Frc consts  --      0.8512                 1.0605                 0.6241
 IR Inten    --      5.5075                 0.8071                 1.9850

                     37                     38                     39
                      A                      A                      A
 Frequencies --    948.5341               975.7250               987.6878
 Red. masses --      1.9195                 1.4092                 1.9588
 Frc consts  --      1.0175                 0.7904                 1.1259
 IR Inten    --      7.6098                 0.2273                 8.1142

                     40                     41                     42
                      A                      A                      A
 Frequencies --    999.3306              1025.2915              1058.7507
 Red. masses --      1.7913                 1.6734                 2.2713
 Frc consts  --      1.0540                 1.0364                 1.5001
 IR Inten    --      0.2090                12.3621                48.9519

                     43                     44                     45
                      A                      A                      A
 Frequencies --   1084.1749              1108.3384              1120.9769
 Red. masses --      1.8729                 2.6363                 1.8385
 Frc consts  --      1.2971                 1.9080                 1.3612
 IR Inten    --     26.4560                19.2885                 0.4094

                     46                     47                     48
                      A                      A                      A
 Frequencies --   1145.1615              1160.7799              1168.7399
 Red. masses --      2.4180                 2.1300                 2.1695
 Frc consts  --      1.8683                 1.6910                 1.7460
 IR Inten    --     47.4482                55.0015                 7.5239

                     49                     50                     51
                      A                      A                      A
 Frequencies --   1175.2761              1183.2096              1207.3579
 Red. masses --      2.5142                 2.5279                 1.7240
 Frc consts  --      2.0461                 2.0851                 1.4807
 IR Inten    --     34.6727                50.0285                 1.5412

                     52                     53                     54
                      A                      A                      A
 Frequencies --   1229.4449              1251.1563              1272.1583
 Red. masses --      3.3972                 1.3161                 1.3742
 Frc consts  --      3.0254                 1.2138                 1.3103
 IR Inten    --     16.3845                74.1851                37.0777

                     55                     56                     57
                      A                      A                      A
 Frequencies --   1292.0796              1310.3090              1332.4949
 Red. masses --      1.4339                 1.3008                 1.3783
 Frc consts  --      1.4104                 1.3158                 1.4419
 IR Inten    --     78.6956                26.8756                68.7140

                     58                     59                     60
                      A                      A                      A
 Frequencies --   1356.7695              1374.2766              1376.5515
 Red. masses --      1.2307                 1.5160                 1.3100
 Frc consts  --      1.3348                 1.6869                 1.4626
 IR Inten    --      1.7028                20.9984                 9.0942

                     61                     62                     63
                      A                      A                      A
 Frequencies --   1387.6045              1394.0853              1406.7840
 Red. masses --      1.3637                 1.2376                 1.3697
 Frc consts  --      1.5471                 1.4171                 1.5971
 IR Inten    --     14.6373                16.0798                37.2686

                     64                     65                     66
                      A                      A                      A
 Frequencies --   1416.6601              1418.2443              1431.8884
 Red. masses --      1.4427                 1.4909                 1.2972
 Frc consts  --      1.7060                 1.7668                 1.5671
 IR Inten    --     20.2878                33.3120                11.4295

                     67                     68                     69
                      A                      A                      A
 Frequencies --   1433.1013              1435.2681              1451.0421
 Red. masses --      1.2927                 1.3974                 1.2697
 Frc consts  --      1.5642                 1.6961                 1.5751
 IR Inten    --     29.3168                 5.6444                34.4119

                     70                     71                     72
                      A                      A                      A
 Frequencies --   1461.1812              1483.0120              1503.3995
 Red. masses --      2.3960                 1.3862                 1.0948
 Frc consts  --      3.0141                 1.7963                 1.4579
 IR Inten    --    270.1216                 2.4847                 1.1200

                     73                     74                     75
                      A                      A                      A
 Frequencies --   1512.0421              1516.2402              1518.0325
 Red. masses --      1.0790                 1.0770                 1.0512
 Frc consts  --      1.4535                 1.4588                 1.4273
 IR Inten    --      7.6739                 1.2011                 0.2337

                     76                     77                     78
                      A                      A                      A
 Frequencies --   1523.4149              1525.3346              1529.1881
 Red. masses --      1.0653                 1.0582                 1.1112
 Frc consts  --      1.4567                 1.4505                 1.5309
 IR Inten    --      0.8277                 2.7289                24.6882

                     79                     80                     81
                      A                      A                      A
 Frequencies --   1535.3212              1538.4173              1541.0097
 Red. masses --      1.0568                 1.0604                 1.0666
 Frc consts  --      1.4677                 1.4787                 1.4923
 IR Inten    --      1.9635                 3.1090                 1.2658

                     82                     83                     84
                      A                      A                      A
 Frequencies --   1550.7682              1781.1858              2996.5333
 Red. masses --      1.0743                 7.7133                 1.0742
 Frc consts  --      1.5222                14.4182                 5.6830
 IR Inten    --      6.2162               381.2271                24.3898

                     85                     86                     87
                      A                      A                      A
 Frequencies --   3013.3706              3015.6549              3022.5099
 Red. masses --      1.0704                 1.0721                 1.0675
 Frc consts  --      5.7267                 5.7444                 5.7458
 IR Inten    --     11.3988               106.8145                10.8588

                     88                     89                     90
                      A                      A                      A
 Frequencies --   3027.2199              3030.5040              3038.0134
 Red. masses --      1.0715                 1.0742                 1.0380
 Frc consts  --      5.7852                 5.8123                 5.6444
 IR Inten    --     20.8825                 8.8062                41.0676

                     91                     92                     93
                      A                      A                      A
 Frequencies --   3043.6235              3061.2951              3068.0910
 Red. masses --      1.0393                 1.0363                 1.1007
 Frc consts  --      5.6722                 5.7222                 6.1048
 IR Inten    --     24.7178                15.8595                63.9807

                     94                     95                     96
                      A                      A                      A
 Frequencies --   3080.2838              3101.2175              3106.6521
 Red. masses --      1.0867                 1.1010                 1.1004
 Frc consts  --      6.0750                 6.2391                 6.2575
 IR Inten    --     36.0891                14.0771                65.0767

                     97                     98                     99
                      A                      A                      A
 Frequencies --   3109.1691              3111.4148              3114.7495
 Red. masses --      1.0952                 1.1025                 1.1015
 Frc consts  --      6.2377                 6.2886                 6.2965
 IR Inten    --     41.4941                20.1999                68.3830

                    100                    101                    102
                      A                      A                      A
 Frequencies --   3128.3710              3132.1969              3141.8972
 Red. masses --      1.1011                 1.0911                 1.1029
 Frc consts  --      6.3491                 6.3070                 6.4147
 IR Inten    --     22.7131                21.0441                31.3227

                    103                    104                    105
                      A                      A                      A
 Frequencies --   3157.2501              3172.9620              3581.8641
 Red. masses --      1.0910                 1.0885                 1.0747
 Frc consts  --      6.4073                 6.4564                 8.1240
 IR Inten    --      7.8815                11.1047                16.3042

 - Thermochemistry -
 -------------------
 Temperature   298.150 Kelvin.  Pressure   1.00000 Atm.
 Atom     1 has atomic number  6 and mass  12.00000

 Molecular mass:   214.16813 amu.
 Principal axes and moments of inertia in atomic units:
                           1         2         3
     Eigenvalues --  1611.473916511.956697216.02259
           X            0.99996  -0.00725  -0.00438
           Y            0.00736   0.99963   0.02635
           Z            0.00419  -0.02638   0.99964
 This molecule is an asymmetric top.
 Rotational symmetry number  1.
 Warning -- assumption of classical behavior for rotation
           may cause significant error
 Rotational temperatures (Kelvin)      0.05375     0.01330     0.01200
 Rotational constants (GHZ):           1.11993     0.27714     0.25010
 Zero-point vibrational energy     878684.3 (Joules/Mol)
                                  210.01060 (Kcal/Mol)
 Warning -- explicit consideration of  25 degrees of freedom as
           vibrations may cause significant error
 Vibrational temperatures:     43.42    55.05    62.98    87.62   130.22
          (Kelvin)            157.31   216.82   273.60   300.43   328.63
                              356.04   370.61   380.60   435.92   465.93
                              496.67   519.56   552.16   578.30   610.72
                              652.38   726.72   758.59   792.49   873.98
                              975.02  1042.38  1098.47  1118.99  1153.46
                             1162.38  1256.33  1289.93  1313.00  1332.36
                             1356.25  1364.73  1403.85  1421.06  1437.81
                             1475.17  1523.31  1559.89  1594.65  1612.84
                             1647.63  1670.10  1681.56  1690.96  1702.37
                             1737.12  1768.90  1800.13  1830.35  1859.01
                             1885.24  1917.16  1952.09  1977.28  1980.55
                             1996.45  2005.78  2024.05  2038.26  2040.54
                             2060.17  2061.91  2065.03  2087.73  2102.31
                             2133.72  2163.06  2175.49  2181.53  2184.11
                             2191.85  2194.62  2200.16  2208.98  2213.44
                             2217.17  2231.21  2562.73  4311.34  4335.57
                             4338.85  4348.72  4355.49  4360.22  4371.02
                             4379.10  4404.52  4414.30  4431.84  4461.96
                             4469.78  4473.40  4476.63  4481.43  4501.03
                             4506.53  4520.49  4542.58  4565.18  5153.50

 Zero-point correction=                           0.334673 (Hartree/Particle)
 Thermal correction to Energy=                    0.351007
 Thermal correction to Enthalpy=                  0.351952
 Thermal correction to Gibbs Free Energy=         0.289824
 Sum of electronic and zero-point Energies=           -692.112297
 Sum of electronic and thermal Energies=              -692.095963
 Sum of electronic and thermal Enthalpies=            -692.095018
 Sum of electronic and thermal Free Energies=         -692.157146

                     E (Thermal)             CV                S
                      KCal/Mol        Cal/Mol-Kelvin    Cal/Mol-Kelvin
 Total                  220.260             61.536            130.758
 Electronic               0.000              0.000              0.000
 Translational            0.889              2.981             41.988
 Rotational               0.889              2.981             32.693
 Vibrational            218.483             55.575             56.077
 Vibration     1          0.594              1.984              5.818
 Vibration     2          0.594              1.982              5.347
 Vibration     3          0.595              1.980              5.081
 Vibration     4          0.597              1.973              4.428
 Vibration     5          0.602              1.956              3.649
 Vibration     6          0.606              1.942              3.281
 Vibration     7          0.618              1.902              2.663
 Vibration     8          0.633              1.853              2.226
 Vibration     9          0.642              1.827              2.054
 Vibration    10          0.651              1.798              1.891
 Vibration    11          0.661              1.767              1.749
 Vibration    12          0.667              1.750              1.678
 Vibration    13          0.671              1.738              1.632
 Vibration    14          0.694              1.668              1.400
 Vibration    15          0.708              1.628              1.291
 Vibration    16          0.724              1.585              1.188
 Vibration    17          0.735              1.552              1.117
 Vibration    18          0.753              1.505              1.024
 Vibration    19          0.768              1.466              0.956
 Vibration    20          0.786              1.417              0.877
 Vibration    21          0.812              1.353              0.785
 Vibration    22          0.860              1.239              0.646
 Vibration    23          0.882              1.190              0.593
 Vibration    24          0.906              1.138              0.543
 Vibration    25          0.966              1.016              0.437

 Optimization completed.
    -- Stationary point found.
 Normal termination of Gaussian 16 at Thu Dec 10 14:56:54 2020.

 ----------------------------------------------------------------------
 # B3LYP/6-311++G(d,p) empiricaldispersion=gd3bj scf=xqc pop=npa geom=c
 heck
 ----------------------------------------------------------------------

 --------------------------------------
 CID_71684003_JID_5090_Energie_neutraal
 --------------------------------------
 Structure from the checkpoint file:  "JID_5090.chk"
 Charge =  0 Multiplicity = 1

 SCF Done:  E(RB3LYP) =  -692.649020047     A.U. after   14 cycles
 Normal termination of Gaussian 16 at Thu Dec 10 15:01:49 2020.

 ----------------------------------------------------------------------
 # B3LYP/6-311++G(d,p) empiricaldispersion=gd3bj scf=xqc pop=npa geom=c
 heck
 ----------------------------------------------------------------------

 ------------------------------------
 CID_71684003_JID_5090_Energie_kation
 ------------------------------------
 Structure from the checkpoint file:  "JID_5090.chk"
 Charge =  1 Multiplicity = 2

 SCF Done:  E(UB3LYP) =  -692.338626829     A.U. after   33 cycles
 SCF Done:  E(UB3LYP) =  -692.338628365     a.u. after    3 cycles
 Normal termination of Gaussian 16 at Thu Dec 10 15:43:06 2020.
 Gaussian 16:  ES64L-G16RevA.03 25-Dec-2016

 ----------------------------------------------------------------------
 # B3LYP/6-311++G(d,p) empiricaldispersion=gd3bj scf=xqc pop=npa geom=c
 heck
 ----------------------------------------------------------------------

 -----------------------------------
 CID_71684003_JID_5090_Energie_anion
 -----------------------------------
 Structure from the checkpoint file:  "JID_5090.chk"
 Charge = -1 Multiplicity = 2

                         Standard orientation:
 ---------------------------------------------------------------------
 Center     Atomic      Atomic             Coordinates (Angstroms)
 Number     Number       Type             X           Y           Z
 ---------------------------------------------------------------------
      1          6           0       -3.462972   -0.091008    1.738498
      2          6           0       -3.613156   -0.132082    0.216911
      3          6           0       -2.715843    0.886681   -0.494984
      4          7           0       -1.324069    0.457177   -0.387085
      5          6           0       -1.124608   -0.867845   -0.977151
      6          6           0       -2.035642   -1.863287   -0.267417
      7          8           0       -3.392756   -1.448005   -0.314397
      8          6           0       -0.353515    1.449332   -0.442974
      9          8           0       -0.621062    2.628918   -0.644127
     10          7           0        0.959377    1.018171   -0.258547
     11          6           0        1.353583    0.107174    0.825171
     12          6           0        2.449109   -0.873113    0.399098
     13          6           0        3.732129   -0.218953   -0.142071
     14          6           0        4.395362    0.706326    0.886761
     15          6           0        4.716668   -1.295890   -0.613265
     16          1           0       -2.415740   -0.172505    2.044015
     17          1           0       -4.028732   -0.909615    2.193699
     18          1           0       -3.849204    0.857481    2.127722
     19          1           0       -4.654127    0.084695   -0.045088
     20          1           0       -3.010323    0.961508   -1.552957
     21          1           0       -2.809480    1.878199   -0.050913
     22          1           0       -0.081216   -1.170105   -0.899173
     23          1           0       -1.387638   -0.836176   -2.047059
     24          1           0       -1.697903   -1.996910    0.771878
     25          1           0       -2.001674   -2.836591   -0.766122
     26          1           0        1.566865    1.824582   -0.345703
     27          1           0        1.688034    0.691285    1.693808
     28          1           0        0.465469   -0.438243    1.150651
     29          1           0        2.701563   -1.503760    1.264149
     30          1           0        2.047575   -1.542454   -0.373565
     31          1           0        3.450013    0.383272   -1.017423
     32          1           0        4.656219    0.152572    1.797941
     33          1           0        5.318517    1.137831    0.484108
     34          1           0        3.745732    1.538825    1.180109
     35          1           0        4.263295   -1.946266   -1.370321
     36          1           0        5.616424   -0.847197   -1.049280
     37          1           0        5.033033   -1.929177    0.225672
 ---------------------------------------------------------------------

 SCF Done:  E(UB3LYP) =  -692.637083380     A.U. after   31 cycles

 The electronic state is 2-A.
 Alpha  occ. eigenvalues --  -19.03732 -18.99632 -14.24713 -14.23533 -10.20317
 Alpha  occ. eigenvalues --  -10.13865 -10.12873 -10.11827 -10.11319 -10.11291
 Alpha  occ. eigenvalues --  -10.08231 -10.07300 -10.07275 -10.06637 -10.06388
 Alpha  occ. eigenvalues --   -0.96269  -0.95122  -0.85022  -0.82183  -0.71893
 Alpha  occ. eigenvalues --   -0.70589  -0.65074  -0.63867  -0.60780  -0.59306
 Alpha  occ. eigenvalues --   -0.56661  -0.54388  -0.51085  -0.47129  -0.45872
 Alpha  occ. eigenvalues --   -0.43905  -0.41032  -0.39810  -0.38987  -0.37982
 Alpha  occ. eigenvalues --   -0.37589  -0.36546  -0.35521  -0.34750  -0.33812
 Alpha  occ. eigenvalues --   -0.33230  -0.33037  -0.31475  -0.30329  -0.29745
 Alpha  occ. eigenvalues --   -0.29281  -0.28997  -0.28438  -0.27423  -0.27022
 Alpha  occ. eigenvalues --   -0.26606  -0.24045  -0.23667  -0.22933  -0.22202
 Alpha  occ. eigenvalues --   -0.19483  -0.18288  -0.16009  -0.15136   0.04080
 Alpha virt. eigenvalues --    0.05831   0.06687   0.06887   0.07887   0.08260
 Alpha virt. eigenvalues --    0.08681   0.09631   0.09741   0.09862   0.10409
 Alpha virt. eigenvalues --    0.10553   0.10929   0.11513   0.12038   0.12843

  Beta  occ. eigenvalues --  -19.03732 -18.99630 -14.24708 -14.23524 -10.20315
  Beta  occ. eigenvalues --  -10.13858 -10.12846 -10.11812 -10.11300 -10.11286
  Beta  occ. eigenvalues --  -10.08226 -10.07273 -10.07247 -10.06601 -10.06357
  Beta  occ. eigenvalues --   -0.96263  -0.95114  -0.85012  -0.82167  -0.71862
  Beta  occ. eigenvalues --   -0.70564  -0.65044  -0.63830  -0.60752  -0.59239
  Beta  occ. eigenvalues --   -0.56613  -0.54325  -0.51053  -0.47067  -0.45833
  Beta  occ. eigenvalues --   -0.43874  -0.40997  -0.39793  -0.38957  -0.37959
  Beta  occ. eigenvalues --   -0.37558  -0.36520  -0.35488  -0.34719  -0.33789
  Beta  occ. eigenvalues --   -0.33197  -0.33000  -0.31445  -0.30297  -0.29710
  Beta  occ. eigenvalues --   -0.29256  -0.28969  -0.28403  -0.27386  -0.26992
  Beta  occ. eigenvalues --   -0.26581  -0.24002  -0.23624  -0.22896  -0.22185
  Beta  occ. eigenvalues --   -0.19470  -0.18275  -0.15985  -0.15116
  Beta virt. eigenvalues --    0.06094   0.06529   0.07328   0.07590   0.08230
  Beta virt. eigenvalues --    0.08644   0.09047   0.09941   0.10117   0.10271
  Beta virt. eigenvalues --    0.10697   0.10854   0.11280   0.11612   0.12240

 Mulliken charges and spin densities:
               1          2
     1  C    1.076020  -1.584241
     2  C   -1.338810   1.230318
     3  C    0.538807  -0.769077
     4  N    0.019577  -0.053526
     5  C   -0.460929   0.145533
     6  C    0.786151  -1.083065
     7  O   -0.123505   0.007814
     8  C   -0.206598   0.308594
     9  O   -0.322742  -0.014031
    10  N   -0.164753   0.030023
    11  C   -0.370181  -0.137265
    12  C    1.533677  -1.812639
    13  C   -1.987692   2.402448
    14  C    1.269717  -1.923703
    15  C    0.295233  -0.915673
    16  H   -0.440831   0.620206
    17  H   -0.147364   0.312960
    18  H    0.040238   0.082824
    19  H   -0.172821   0.387784
    20  H    0.142668   0.006423
    21  H    0.091724   0.116305
    22  H    0.127855  -0.057874
    23  H   -0.019487   0.225720
    24  H   -0.124417   0.285463
    25  H   -0.410523   0.600315
    26  H    0.216703   0.101937
    27  H   -0.041414   0.236042
    28  H    0.526847  -0.367615
    29  H   -0.480199   0.635899
    30  H    0.056579   0.082117
    31  H    0.090452   0.062588
    32  H   -0.195889   0.347173
    33  H   -0.238965   0.379733
    34  H   -0.026749   0.157395
    35  H   -0.279457   0.419146
    36  H   -0.210685   0.349209
    37  H   -0.048242   0.184740
 Sum of Mulliken charges =  -1.00000   1.00000

 Dipole moment (field-independent basis, Debye):
    X=             -3.5085    Y=              2.2506    Z=             -1.7527  Tot=              4.5218
 Quadrupole moment (field-independent basis, Debye-Ang):
   XX=           -188.5567   YY=           -147.3486   ZZ=           -132.5274
   XY=              0.6945   XZ=              0.6641   YZ=              0.7077

 Summary of Natural Population Analysis:

                                       Natural Population
                Natural  -----------------------------------------------
    Atom  No    Charge         Core      Valence    Rydberg      Total
 -----------------------------------------------------------------------
      C    1   -0.30216      0.99964     2.29714    0.00538     3.30216
      C    2    0.06040      0.99955     1.92487    0.01518     2.93960
      C    3   -0.09592      0.99959     2.08620    0.01013     3.09592
      N    4   -0.27730      0.99964     2.76824    0.00943     3.77730
      C    5   -0.09908      0.99960     2.08894    0.01053     3.09908
      C    6   -0.01581      0.99957     2.00257    0.01368     3.01581
      O    7   -0.30343      0.99989     3.29397    0.00956     4.30343
      C    8    0.41704      0.99967     1.56056    0.02274     2.58296
      O    9   -0.33463      0.99988     3.32979    0.00496     4.33463
      N   10   -0.33715      0.99967     2.82859    0.00888     3.83715
      C   11   -0.09087      0.99960     2.08063    0.01064     3.09087
      C   12   -0.18979      0.99960     2.18047    0.00972     3.18979
      C   13   -0.11787      0.99962     2.10874    0.00951     3.11787
      C   14   -0.28716      0.99965     2.28157    0.00594     3.28716
      C   15   -0.28035      0.99965     2.27565    0.00505     3.28035
      H   16    0.10283      0.00000     0.39555    0.00162     0.39717
      H   17    0.10462      0.00000     0.39429    0.00109     0.39538
      H   18    0.10180      0.00000     0.39722    0.00098     0.39820
      H   19    0.09186      0.00000     0.40702    0.00112     0.40814
      H   20    0.09218      0.00000     0.40662    0.00120     0.40782
      H   21    0.11506      0.00000     0.38391    0.00103     0.38494
      H   22    0.11097      0.00000     0.38707    0.00196     0.38903
      H   23    0.08953      0.00000     0.40914    0.00133     0.41047
      H   24    0.08259      0.00000     0.41539    0.00201     0.41741
      H   25    0.09537      0.00000     0.40320    0.00143     0.40463
      H   26    0.19163      0.00000     0.30593    0.00245     0.30837
      H   27    0.09233      0.00000     0.40643    0.00124     0.40767
      H   28    0.10213      0.00000     0.39558    0.00229     0.39787
      H   29    0.10024      0.00000     0.39818    0.00159     0.39976
      H   30    0.09768      0.00000     0.40052    0.00180     0.40232
      H   31    0.09207      0.00000     0.40574    0.00219     0.40793
      H   32    0.09894      0.00000     0.39992    0.00115     0.40106
      H   33    0.10070      0.00000     0.39831    0.00099     0.39930
      H   34    0.09611      0.00000     0.40281    0.00108     0.40389
      H   35    0.10008      0.00000     0.39868    0.00124     0.39992
      H   36    0.09813      0.00000     0.40082    0.00105     0.40187
      H   37    0.09722      0.00000     0.40155    0.00123     0.40278
 =======================================================================
   * Total *    0.00000     14.99482    43.82180    0.18338    59.00000

 Normal termination of Gaussian 16 at Thu Dec 10 16:00:40 2020.
