 Gaussian 16, Revision A.03,

 -----------------------------------------------------------
 # opt freq B3LYP/6-31G(d) empiricaldispersion=gd3bj scf=xqc
 -----------------------------------------------------------

 ------------------------------
 CID_63961691_JID_6628_neutraal
 ------------------------------
 Symbolic Z-matrix:
 Charge =  0 Multiplicity = 1

 SCF Done:  E(RB3LYP) =  -692.219324147     A.U. after   14 cycles
 SCF Done:  E(RB3LYP) =  -692.223973620     A.U. after   12 cycles
 SCF Done:  E(RB3LYP) =  -692.224099476     A.U. after   12 cycles
 SCF Done:  E(RB3LYP) =  -692.225979666     A.U. after   12 cycles
 SCF Done:  E(RB3LYP) =  -692.226886974     A.U. after   12 cycles
 SCF Done:  E(RB3LYP) =  -692.227546362     A.U. after   12 cycles
 SCF Done:  E(RB3LYP) =  -692.227732081     A.U. after   12 cycles
 SCF Done:  E(RB3LYP) =  -692.227829699     A.U. after   10 cycles
 SCF Done:  E(RB3LYP) =  -692.227853046     A.U. after   10 cycles
 SCF Done:  E(RB3LYP) =  -692.227860797     A.U. after    9 cycles
 SCF Done:  E(RB3LYP) =  -692.227875553     A.U. after   10 cycles
 SCF Done:  E(RB3LYP) =  -692.227880672     A.U. after   10 cycles
 SCF Done:  E(RB3LYP) =  -692.227884162     A.U. after   10 cycles
 SCF Done:  E(RB3LYP) =  -692.227884820     A.U. after    8 cycles
 SCF Done:  E(RB3LYP) =  -692.227884920     A.U. after    7 cycles
 Optimization completed.
    -- Stationary point found.
 Normal termination of Gaussian 16 at Fri Dec 11 00:03:07 2020.

 --------------------------------------------------------------------
 #N Geom=AllCheck Guess=TCheck SCRF=Check GenChk RB3LYP/6-31G(d) Freq
 --------------------------------------------------------------------

 Structure from the checkpoint file:  "JID_6628.chk"
 ------------------------------
 CID_63961691_JID_6628_neutraal
 ------------------------------
 Charge =  0 Multiplicity = 1

 SCF Done:  E(RB3LYP) =  -692.227884920     A.U. after    1 cycles

  Exact polarizability: 198.213  -7.899 147.413   9.778   5.001 101.293
 Approx polarizability: 262.950 -14.879 236.681  14.503  16.245 156.542

                      1                      2                      3
                      A                      A                      A
 Frequencies --     20.8578                29.7656                68.0070
 Red. masses --      3.9373                 4.1053                 4.0323
 Frc consts  --      0.0010                 0.0021                 0.0110
 IR Inten    --      0.5874                 0.3140                 0.4020

                      4                      5                      6
                      A                      A                      A
 Frequencies --    111.0073               145.2091               180.3556
 Red. masses --      3.1377                 3.3685                 4.6336
 Frc consts  --      0.0228                 0.0418                 0.0888
 IR Inten    --      1.1343                 1.0511                 1.6328

                      7                      8                      9
                      A                      A                      A
 Frequencies --    218.8654               239.8025               258.9717
 Red. masses --      2.6087                 3.0735                 2.8413
 Frc consts  --      0.0736                 0.1041                 0.1123
 IR Inten    --      2.7079                 1.5080                 0.9471

                     10                     11                     12
                      A                      A                      A
 Frequencies --    272.6177               287.0832               312.3818
 Red. masses --      1.8465                 1.7565                 2.2760
 Frc consts  --      0.0809                 0.0853                 0.1309
 IR Inten    --      0.6865                 1.1557                 0.1811

                     13                     14                     15
                      A                      A                      A
 Frequencies --    358.6473               379.9284               398.6415
 Red. masses --      2.3895                 1.2941                 2.1417
 Frc consts  --      0.1811                 0.1101                 0.2005
 IR Inten    --      1.7406               223.9421                30.5724

                     16                     17                     18
                      A                      A                      A
 Frequencies --    416.4086               422.8374               463.0333
 Red. masses --      2.3051                 3.4393                 2.6774
 Frc consts  --      0.2355                 0.3623                 0.3382
 IR Inten    --     14.8818                13.9078                 9.3842

                     19                     20                     21
                      A                      A                      A
 Frequencies --    487.7435               490.9013               525.5928
 Red. masses --      2.8436                 2.6000                 2.4765
 Frc consts  --      0.3986                 0.3692                 0.4031
 IR Inten    --      5.2174                 5.8334                 6.9185

                     22                     23                     24
                      A                      A                      A
 Frequencies --    552.5655               611.5900               643.0616
 Red. masses --      3.5137                 4.8862                 4.2721
 Frc consts  --      0.6321                 1.0768                 1.0409
 IR Inten    --      4.6308                 2.1427                 4.8611

                     25                     26                     27
                      A                      A                      A
 Frequencies --    644.5545               717.6707               741.6068
 Red. masses --      2.5454                 1.2638                 3.3616
 Frc consts  --      0.6231                 0.3835                 1.0893
 IR Inten    --      1.2296                33.1804                 9.7295

                     28                     29                     30
                      A                      A                      A
 Frequencies --    754.4719               781.0716               801.7311
 Red. masses --      1.6981                 2.4165                 2.6218
 Frc consts  --      0.5695                 0.8686                 0.9929
 IR Inten    --      4.3571                55.7908                 2.3030

                     31                     32                     33
                      A                      A                      A
 Frequencies --    840.3053               856.1310               861.4359
 Red. masses --      3.2370                 1.6430                 1.5806
 Frc consts  --      1.3467                 0.7095                 0.6911
 IR Inten    --      5.4490                 0.5636                 3.7666

                     34                     35                     36
                      A                      A                      A
 Frequencies --    878.2413               894.0563               933.5014
 Red. masses --      1.4974                 2.1926                 2.5628
 Frc consts  --      0.6805                 1.0326                 1.3158
 IR Inten    --      4.1062                 2.8727                 9.3430

                     37                     38                     39
                      A                      A                      A
 Frequencies --    969.7329               972.0505               985.0517
 Red. masses --      1.9922                 1.3939                 1.5407
 Frc consts  --      1.1038                 0.7760                 0.8808
 IR Inten    --      2.9170                 0.4968                 2.8913

                     40                     41                     42
                      A                      A                      A
 Frequencies --    989.3817               999.0131              1004.4846
 Red. masses --      1.2917                 3.1349                 3.1103
 Frc consts  --      0.7450                 1.8434                 1.8490
 IR Inten    --      0.3344                12.9359                 1.4358

                     43                     44                     45
                      A                      A                      A
 Frequencies --   1023.7165              1041.5475              1077.3384
 Red. masses --      1.8031                 1.6639                 2.3972
 Frc consts  --      1.1133                 1.0635                 1.6393
 IR Inten    --      9.1308                20.8750                14.6401

                     46                     47                     48
                      A                      A                      A
 Frequencies --   1083.9854              1106.1720              1115.4697
 Red. masses --      1.7025                 2.2682                 1.9299
 Frc consts  --      1.1787                 1.6352                 1.4148
 IR Inten    --      3.4438                45.3507                15.7084

                     49                     50                     51
                      A                      A                      A
 Frequencies --   1119.6052              1142.8247              1162.6578
 Red. masses --      1.8357                 1.4709                 2.0298
 Frc consts  --      1.3557                 1.1319                 1.6166
 IR Inten    --      9.8271                 2.8084                25.7973

                     52                     53                     54
                      A                      A                      A
 Frequencies --   1190.8092              1194.5299              1208.4006
 Red. masses --      1.1431                 1.2424                 2.2556
 Frc consts  --      0.9551                 1.0445                 1.9406
 IR Inten    --      2.1517                19.8595                 8.0369

                     55                     56                     57
                      A                      A                      A
 Frequencies --   1231.2613              1272.9882              1299.7209
 Red. masses --      1.5571                 1.4703                 1.7849
 Frc consts  --      1.3908                 1.4038                 1.7765
 IR Inten    --      1.6410                16.2717                79.4054

                     58                     59                     60
                      A                      A                      A
 Frequencies --   1311.9775              1335.6875              1346.4098
 Red. masses --      1.2179                 1.5234                 2.2631
 Frc consts  --      1.2352                 1.6013                 2.4172
 IR Inten    --     31.8787                73.2780                 9.3365

                     61                     62                     63
                      A                      A                      A
 Frequencies --   1348.3195              1361.3091              1372.5315
 Red. masses --      1.4892                 1.3670                 1.7693
 Frc consts  --      1.5951                 1.4926                 1.9638
 IR Inten    --     22.6828                17.1430                11.7983

                     64                     65                     66
                      A                      A                      A
 Frequencies --   1374.1042              1388.3579              1393.9229
 Red. masses --      1.7171                 1.4417                 1.4710
 Frc consts  --      1.9102                 1.6373                 1.6840
 IR Inten    --     16.8714                 7.1559                 2.2806

                     67                     68                     69
                      A                      A                      A
 Frequencies --   1409.0761              1416.3692              1439.0917
 Red. masses --      1.3801                 1.4334                 1.5866
 Frc consts  --      1.6145                 1.6942                 1.9360
 IR Inten    --      1.5053                 3.7955                 7.8601

                     70                     71                     72
                      A                      A                      A
 Frequencies --   1443.7237              1482.3280              1496.1831
 Red. masses --      1.3301                 1.7499                 2.0910
 Frc consts  --      1.6335                 2.2655                 2.7579
 IR Inten    --     11.1153                 5.1084               119.5090

                     73                     74                     75
                      A                      A                      A
 Frequencies --   1513.2277              1514.7449              1515.9247
 Red. masses --      1.0848                 1.0892                 1.1619
 Frc consts  --      1.4636                 1.4724                 1.5732
 IR Inten    --      0.0580                 3.8775                 1.6771

                     76                     77                     78
                      A                      A                      A
 Frequencies --   1521.2639              1535.5865              1536.7776
 Red. masses --      1.0797                 1.0837                 1.0736
 Frc consts  --      1.4722                 1.5056                 1.4939
 IR Inten    --      5.3587                 6.7850                19.0440

                     79                     80                     81
                      A                      A                      A
 Frequencies --   1544.2411              1569.5467              1633.9689
 Red. masses --      1.0592                 2.3128                 4.8977
 Frc consts  --      1.4881                 3.3570                 7.7042
 IR Inten    --      4.5395               225.3586                43.2435

                     82                     83                     84
                      A                      A                      A
 Frequencies --   1662.9393              3020.4840              3028.0013
 Red. masses --      5.6106                 1.0769                 1.0738
 Frc consts  --      9.1414                 5.7885                 5.8010
 IR Inten    --    261.3400                 7.0414                46.8076

                     85                     86                     87
                      A                      A                      A
 Frequencies --   3031.9098              3038.6620              3040.8070
 Red. masses --      1.0636                 1.0642                 1.0653
 Frc consts  --      5.7607                 5.7892                 5.8035
 IR Inten    --     34.0842                 7.9971                57.1255

                     88                     89                     90
                      A                      A                      A
 Frequencies --   3048.7172              3050.6493              3072.4222
 Red. masses --      1.0572                 1.0450                 1.0989
 Frc consts  --      5.7895                 5.7300                 6.1116
 IR Inten    --     34.4601                 4.6236                42.2743

                     91                     92                     93
                      A                      A                      A
 Frequencies --   3078.1329              3080.4140              3091.0738
 Red. masses --      1.1027                 1.0976                 1.1041
 Frc consts  --      6.1555                 6.1363                 6.2153
 IR Inten    --     21.2173                63.5357                57.4325

                     94                     95                     96
                      A                      A                      A
 Frequencies --   3110.2235              3120.6063              3165.8339
 Red. masses --      1.1009                 1.1020                 1.0893
 Frc consts  --      6.2744                 6.3227                 6.4324
 IR Inten    --     70.7403                30.8584                35.7808

                     97                     98                     99
                      A                      A                      A
 Frequencies --   3176.8149              3191.3789              3221.3165
 Red. masses --      1.0881                 1.0891                 1.0953
 Frc consts  --      6.4698                 6.5354                 6.6968
 IR Inten    --     12.4706                12.5316                21.4103

                    100                    101                    102
                      A                      A                      A
 Frequencies --   3250.8480              3584.7693              3711.7695
 Red. masses --      1.0906                 1.0747                 1.0654
 Frc consts  --      6.7908                 8.1373                 8.6478
 IR Inten    --      6.2740                27.0358                11.7904

 - Thermochemistry -
 -------------------
 Temperature   298.150 Kelvin.  Pressure   1.00000 Atm.
 Atom     1 has atomic number  6 and mass  12.00000

 Molecular mass:   220.15756 amu.
 Principal axes and moments of inertia in atomic units:
                           1         2         3
     Eigenvalues --  1733.122146033.246267050.84381
           X            0.99999   0.00403   0.00299
           Y           -0.00401   0.99998  -0.00454
           Z           -0.00301   0.00453   0.99999
 This molecule is an asymmetric top.
 Rotational symmetry number  1.
 Warning -- assumption of classical behavior for rotation
           may cause significant error
 Rotational temperatures (Kelvin)      0.04998     0.01436     0.01228
 Rotational constants (GHZ):           1.04132     0.29913     0.25596
 Zero-point vibrational energy     839622.0 (Joules/Mol)
                                  200.67448 (Kcal/Mol)
 Warning -- explicit consideration of  23 degrees of freedom as
           vibrations may cause significant error
 Vibrational temperatures:     30.01    42.83    97.85   159.71   208.92
          (Kelvin)            259.49   314.90   345.02   372.60   392.24
                              413.05   449.45   516.01   546.63   573.56
                              599.12   608.37   666.20   701.75   706.30
                              756.21   795.02   879.94   925.22   927.37
                             1032.57  1067.01  1085.52  1123.79  1153.51
                             1209.01  1231.78  1239.41  1263.59  1286.35
                             1343.10  1395.23  1398.56  1417.27  1423.50
                             1437.36  1445.23  1472.90  1498.55  1550.05
                             1559.61  1591.53  1604.91  1610.86  1644.27
                             1672.81  1713.31  1718.66  1738.62  1771.51
                             1831.55  1870.01  1887.64  1921.76  1937.18
                             1939.93  1958.62  1974.77  1977.03  1997.54
                             2005.54  2027.35  2037.84  2070.53  2077.20
                             2132.74  2152.67  2177.20  2179.38  2181.08
                             2188.76  2209.37  2211.08  2221.82  2258.23
                             2350.92  2392.60  4345.80  4356.62  4362.24
                             4371.96  4375.04  4386.42  4389.20  4420.53
                             4428.75  4432.03  4447.37  4474.92  4489.86
                             4554.93  4570.73  4591.68  4634.76  4677.25
                             5157.68  5340.41

 Zero-point correction=                           0.319795 (Hartree/Particle)
 Thermal correction to Energy=                    0.334596
 Thermal correction to Enthalpy=                  0.335540
 Thermal correction to Gibbs Free Energy=         0.277193
 Sum of electronic and zero-point Energies=           -691.908090
 Sum of electronic and thermal Energies=              -691.893289
 Sum of electronic and thermal Enthalpies=            -691.892344
 Sum of electronic and thermal Free Energies=         -691.950692

                     E (Thermal)             CV                S
                      KCal/Mol        Cal/Mol-Kelvin    Cal/Mol-Kelvin
 Total                  209.962             59.622            122.803
 Electronic               0.000              0.000              0.000
 Translational            0.889              2.981             42.070
 Rotational               0.889              2.981             32.666
 Vibrational            208.185             53.660             48.066
 Vibration     1          0.593              1.986              6.551
 Vibration     2          0.594              1.984              5.845
 Vibration     3          0.598              1.969              4.210
 Vibration     4          0.607              1.940              3.251
 Vibration     5          0.617              1.908              2.734
 Vibration     6          0.629              1.866              2.325
 Vibration     7          0.647              1.812              1.968
 Vibration     8          0.657              1.780              1.804
 Vibration     9          0.668              1.748              1.669
 Vibration    10          0.676              1.724              1.580
 Vibration    11          0.684              1.698              1.491
 Vibration    12          0.701              1.650              1.350
 Vibration    13          0.733              1.557              1.128
 Vibration    14          0.750              1.513              1.039
 Vibration    15          0.765              1.473              0.968
 Vibration    16          0.780              1.435              0.904
 Vibration    17          0.785              1.421              0.882
 Vibration    18          0.821              1.332              0.757
 Vibration    19          0.844              1.277              0.689
 Vibration    20          0.847              1.270              0.681
 Vibration    21          0.881              1.193              0.597
 Vibration    22          0.908              1.134              0.539
 Vibration    23          0.971              1.007              0.430

 Optimization completed.
    -- Stationary point found.
 Normal termination of Gaussian 16 at Fri Dec 11 00:15:34 2020.

 ----------------------------------------------------------------------
 # B3LYP/6-311++G(d,p) empiricaldispersion=gd3bj scf=xqc pop=npa geom=c
 heck
 ----------------------------------------------------------------------

 --------------------------------------
 CID_63961691_JID_6628_Energie_neutraal
 --------------------------------------
 Structure from the checkpoint file:  "JID_6628.chk"
 Charge =  0 Multiplicity = 1

 SCF Done:  E(RB3LYP) =  -692.426098571     A.U. after   15 cycles
 Normal termination of Gaussian 16 at Fri Dec 11 00:22:00 2020.

 ----------------------------------------------------------------------
 # B3LYP/6-311++G(d,p) empiricaldispersion=gd3bj scf=xqc pop=npa geom=c
 heck
 ----------------------------------------------------------------------

 ------------------------------------
 CID_63961691_JID_6628_Energie_kation
 ------------------------------------
 Structure from the checkpoint file:  "JID_6628.chk"
 Charge =  1 Multiplicity = 2

 SCF Done:  E(UB3LYP) =  -692.142124563     A.U. after   22 cycles
 Normal termination of Gaussian 16 at Fri Dec 11 00:35:26 2020.
 Gaussian 16:  ES64L-G16RevA.03 25-Dec-2016

 ----------------------------------------------------------------------
 # B3LYP/6-311++G(d,p) empiricaldispersion=gd3bj scf=xqc pop=npa geom=c
 heck
 ----------------------------------------------------------------------

 -----------------------------------
 CID_63961691_JID_6628_Energie_anion
 -----------------------------------
 Structure from the checkpoint file:  "JID_6628.chk"
 Charge = -1 Multiplicity = 2

                         Standard orientation:
 ---------------------------------------------------------------------
 Center     Atomic      Atomic             Coordinates (Angstroms)
 Number     Number       Type             X           Y           Z
 ---------------------------------------------------------------------
      1          6           0        1.261680    2.331699   -0.270412
      2          6           0        2.249823    1.349023   -0.915874
      3          6           0        3.533850    1.202030   -0.076995
      4          6           0        3.326085    0.302882    1.148004
      5          6           0        2.858463   -1.091876    0.718094
      6          6           0        1.560113   -1.061016   -0.093730
      7          6           0        1.660277   -0.042218   -1.248240
      8          6           0        0.332236   -0.833971    0.820121
      9          7           0       -0.900110   -1.177345    0.127614
     10          6           0       -2.073410   -0.445839    0.136025
     11          6           0       -2.134011    0.934491    0.415588
     12          6           0       -3.368291    1.566080    0.348673
     13          6           0       -4.508399    0.834681    0.007734
     14          6           0       -4.340851   -0.524007   -0.247979
     15          7           0       -3.168327   -1.160429   -0.185390
     16          8           0        1.426477   -2.379037   -0.652305
     17          1           0        0.315990    2.362752   -0.822306
     18          1           0        1.683321    3.343490   -0.267830
     19          1           0        1.034605    2.081348    0.771248
     20          1           0        2.530613    1.793326   -1.880442
     21          1           0        4.321809    0.758890   -0.701755
     22          1           0        3.893924    2.192603    0.228646
     23          1           0        2.597493    0.756233    1.833697
     24          1           0        4.261409    0.218007    1.713584
     25          1           0        2.731044   -1.754561    1.582660
     26          1           0        3.624938   -1.550382    0.080952
     27          1           0        0.671154    0.067706   -1.713639
     28          1           0        2.311222   -0.513254   -1.995091
     29          1           0        0.447024   -1.468331    1.710156
     30          1           0        0.280607    0.197362    1.164504
     31          1           0       -1.097739   -2.169644    0.082999
     32          1           0       -1.245108    1.496094    0.669463
     33          1           0       -3.437937    2.629622    0.561392
     34          1           0       -5.487416    1.297303   -0.053936
     35          1           0       -5.195789   -1.144219   -0.513785
     36          1           0        0.680697   -2.329384   -1.273701
 ---------------------------------------------------------------------

 SCF Done:  E(UB3LYP) =  -692.413477778     A.U. after   33 cycles
 SCF Done:  E(UB3LYP) =  -692.413477778     a.u. after    2 cycles

 The electronic state is 2-A.
 Alpha  occ. eigenvalues --  -19.03232 -14.23534 -14.20528 -10.15092 -10.13624
 Alpha  occ. eigenvalues --  -10.11432 -10.10811 -10.08852 -10.07833 -10.07650
 Alpha  occ. eigenvalues --  -10.07459 -10.07185 -10.07163 -10.06988 -10.06551
 Alpha  occ. eigenvalues --  -10.06027  -0.93864  -0.87546  -0.81116  -0.74068
 Alpha  occ. eigenvalues --   -0.70491  -0.67808  -0.66356  -0.64325  -0.59968
 Alpha  occ. eigenvalues --   -0.58429  -0.53998  -0.52568  -0.51558  -0.49082
 Alpha  occ. eigenvalues --   -0.44710  -0.43722  -0.42293  -0.41026  -0.39185
 Alpha  occ. eigenvalues --   -0.38449  -0.36759  -0.35696  -0.35494  -0.34776
 Alpha  occ. eigenvalues --   -0.32961  -0.31845  -0.31513  -0.31104  -0.30119
 Alpha  occ. eigenvalues --   -0.29285  -0.29026  -0.28071  -0.27254  -0.26042
 Alpha  occ. eigenvalues --   -0.24791  -0.24235  -0.23276  -0.21971  -0.21658
 Alpha  occ. eigenvalues --   -0.20611  -0.19079  -0.18350  -0.17065  -0.12191
 Alpha  occ. eigenvalues --    0.04248
 Alpha virt. eigenvalues --    0.05830   0.06245   0.07094   0.07263   0.07770
 Alpha virt. eigenvalues --    0.08224   0.08940   0.09330   0.09650   0.09915
 Alpha virt. eigenvalues --    0.10158   0.10621   0.11643   0.12279   0.12717

  Beta  occ. eigenvalues --  -19.03227 -14.23531 -14.20473 -10.15101 -10.13626
  Beta  occ. eigenvalues --  -10.11426 -10.10754 -10.08776 -10.07822 -10.07609
  Beta  occ. eigenvalues --  -10.07470 -10.07171 -10.07149 -10.06976 -10.06526
  Beta  occ. eigenvalues --  -10.05991  -0.93857  -0.87497  -0.81061  -0.74040
  Beta  occ. eigenvalues --   -0.70369  -0.67772  -0.66310  -0.64277  -0.59933
  Beta  occ. eigenvalues --   -0.58380  -0.53861  -0.52520  -0.51517  -0.49044
  Beta  occ. eigenvalues --   -0.44656  -0.43670  -0.42259  -0.40985  -0.39154
  Beta  occ. eigenvalues --   -0.38396  -0.36721  -0.35655  -0.35465  -0.34734
  Beta  occ. eigenvalues --   -0.32920  -0.31758  -0.31477  -0.31021  -0.30052
  Beta  occ. eigenvalues --   -0.29247  -0.28994  -0.28026  -0.27214  -0.26009
  Beta  occ. eigenvalues --   -0.24760  -0.24205  -0.23226  -0.21931  -0.21570
  Beta  occ. eigenvalues --   -0.20582  -0.18807  -0.18227  -0.16996  -0.12077
  Beta virt. eigenvalues --    0.06332   0.06746   0.06787   0.07556   0.07711
  Beta virt. eigenvalues --    0.08207   0.08764   0.08988   0.09670   0.10070
  Beta virt. eigenvalues --    0.10180   0.10451   0.10948   0.11972   0.12668

 Mulliken charges and spin densities:
               1          2
     1  C    0.975344  -1.710368
     2  C   -1.108987   1.575019
     3  C    0.565468  -1.186197
     4  C    0.279802  -0.480380
     5  C   -0.149788  -0.024131
     6  C   -0.305626   0.247954
     7  C    0.473342  -0.909002
     8  C    0.354001  -0.767288
     9  N   -0.142639  -0.024107
    10  C   -1.426137   0.219591
    11  C    1.159854  -0.055814
    12  C   -0.916407   0.305071
    13  C    1.468269  -1.469387
    14  C   -0.483018   0.312702
    15  N   -0.127505   0.101361
    16  O   -0.182717   0.011291
    17  H    0.100203   0.044126
    18  H   -0.473718   0.640787
    19  H   -0.144347   0.258044
    20  H   -0.358767   0.577109
    21  H   -0.105617   0.237696
    22  H   -0.328672   0.497945
    23  H    0.099146   0.026932
    24  H   -0.479440   0.685191
    25  H    0.035697   0.101586
    26  H    0.034421   0.160546
    27  H    0.059252   0.119793
    28  H    0.015146   0.180998
    29  H    0.136904   0.072351
    30  H    0.072493   0.033367
    31  H    0.242190   0.045687
    32  H    0.281104  -0.223344
    33  H   -0.697066   0.888788
    34  H   -0.223992   0.376398
    35  H    0.026093   0.148956
    36  H    0.275711  -0.019267
 Sum of Mulliken charges =  -1.00000   1.00000

 Dipole moment (field-independent basis, Debye):
    X=             -1.9749    Y=             -5.2158    Z=              0.3297  Tot=              5.5869
 Quadrupole moment (field-independent basis, Debye-Ang):
   XX=           -193.3806   YY=           -152.9393   ZZ=           -128.5850
   XY=             -1.6781   XZ=             -0.2513   YZ=              0.1625

 Summary of Natural Population Analysis:

                                       Natural Population
                Natural  -----------------------------------------------
    Atom  No    Charge         Core      Valence    Rydberg      Total
 -----------------------------------------------------------------------
      C    1   -0.28542      0.99964     2.27930    0.00647     3.28542
      C    2   -0.11350      0.99960     2.10215    0.01175     3.11350
      C    3   -0.18691      0.99961     2.17791    0.00939     3.18691
      C    4   -0.19275      0.99962     2.18414    0.00899     3.19275
      C    5   -0.19583      0.99957     2.18542    0.01084     3.19583
      C    6    0.13062      0.99950     1.85588    0.01400     2.86938
      C    7   -0.20479      0.99956     2.19395    0.01128     3.20479
      C    8   -0.09471      0.99954     2.08496    0.01021     3.09471
      N    9   -0.32155      0.99966     2.81070    0.01118     3.82155
      C   10    0.20425      0.99953     1.78180    0.01442     2.79575
      C   11   -0.14462      0.99952     2.13677    0.00834     3.14462
      C   12   -0.06196      0.99957     2.05178    0.01060     3.06196
      C   13   -0.15354      0.99956     2.14382    0.01016     3.15354
      C   14    0.04278      0.99959     1.94371    0.01392     2.95722
      N   15   -0.25845      0.99968     2.74775    0.01102     3.75845
      O   16   -0.37905      0.99989     3.37285    0.00631     4.37905
      H   17    0.10138      0.00000     0.39724    0.00139     0.39862
      H   18    0.10386      0.00000     0.39472    0.00142     0.39614
      H   19    0.08980      0.00000     0.40866    0.00154     0.41020
      H   20    0.09914      0.00000     0.39897    0.00190     0.40086
      H   21    0.09665      0.00000     0.40182    0.00153     0.40335
      H   22    0.10253      0.00000     0.39584    0.00163     0.39747
      H   23    0.09266      0.00000     0.40586    0.00148     0.40734
      H   24    0.10219      0.00000     0.39661    0.00120     0.39781
      H   25    0.10044      0.00000     0.39860    0.00096     0.39956
      H   26    0.10400      0.00000     0.39478    0.00122     0.39600
      H   27    0.10398      0.00000     0.39462    0.00140     0.39602
      H   28    0.10499      0.00000     0.39377    0.00124     0.39501
      H   29    0.09256      0.00000     0.40635    0.00110     0.40744
      H   30    0.10321      0.00000     0.39494    0.00184     0.39679
      H   31    0.19168      0.00000     0.30515    0.00317     0.30832
      H   32    0.10599      0.00000     0.39199    0.00201     0.39401
      H   33    0.10221      0.00000     0.39645    0.00134     0.39779
      H   34    0.10318      0.00000     0.39577    0.00105     0.39682
      H   35    0.08648      0.00000     0.41241    0.00111     0.41352
      H   36    0.22849      0.00000     0.26871    0.00280     0.27151
 =======================================================================
   * Total *    0.00000     15.99365    43.80615    0.20020    60.00000

 Normal termination of Gaussian 16 at Fri Dec 11 01:45:06 2020.
