 Gaussian 16, Revision A.03,

 -----------------------------------------------------------
 # opt freq B3LYP/6-31G(d) empiricaldispersion=gd3bj scf=xqc
 -----------------------------------------------------------

 -----------------------------
 CID_127010323_JID_26_neutraal
 -----------------------------
 Symbolic Z-matrix:
 Charge =  0 Multiplicity = 1

 SCF Done:  E(RB3LYP) =  -1144.34665632     A.U. after   15 cycles
 SCF Done:  E(RB3LYP) =  -1144.35027689     A.U. after   13 cycles
 SCF Done:  E(RB3LYP) =  -1144.35140774     A.U. after   13 cycles
 SCF Done:  E(RB3LYP) =  -1144.35170789     A.U. after   13 cycles
 SCF Done:  E(RB3LYP) =  -1144.35189450     A.U. after   12 cycles
 SCF Done:  E(RB3LYP) =  -1144.35193226     A.U. after   11 cycles
 SCF Done:  E(RB3LYP) =  -1144.35193666     A.U. after   10 cycles
 SCF Done:  E(RB3LYP) =  -1144.35193735     A.U. after    8 cycles
 SCF Done:  E(RB3LYP) =  -1144.35193762     A.U. after    8 cycles
 SCF Done:  E(RB3LYP) =  -1144.35193768     A.U. after    8 cycles
 Optimization completed.
    -- Stationary point found.
 Normal termination of Gaussian 16 at Tue Dec  8 10:15:53 2020.

 --------------------------------------------------------------------
 #N Geom=AllCheck Guess=TCheck SCRF=Check GenChk RB3LYP/6-31G(d) Freq
 --------------------------------------------------------------------

 Structure from the checkpoint file:  "JID_26.chk"
 -----------------------------
 CID_127010323_JID_26_neutraal
 -----------------------------
 Charge =  0 Multiplicity = 1

 SCF Done:  E(RB3LYP) =  -1144.35193768     A.U. after    1 cycles

  Exact polarizability: 127.139  -0.643 108.695   7.627   8.124  83.314
 Approx polarizability: 192.419   4.291 202.469  20.587  27.348 136.214

                      1                      2                      3
                      A                      A                      A
 Frequencies --     40.9925                66.0612               104.4733
 Red. masses --      5.8002                 3.3479                 5.8136
 Frc consts  --      0.0057                 0.0086                 0.0374
 IR Inten    --      1.0231                 3.4310                 4.1082

                      4                      5                      6
                      A                      A                      A
 Frequencies --    177.9482               189.0122               226.1407
 Red. masses --      1.2840                 2.6663                 2.7105
 Frc consts  --      0.0240                 0.0561                 0.0817
 IR Inten    --      2.7692                 1.4731                 1.4154

                      7                      8                      9
                      A                      A                      A
 Frequencies --    245.7041               251.0988               283.2774
 Red. masses --      1.4442                 2.7669                 3.5750
 Frc consts  --      0.0514                 0.1028                 0.1690
 IR Inten    --      2.3351                 0.8272                 2.2841

                     10                     11                     12
                      A                      A                      A
 Frequencies --    319.1856               385.9338               434.5555
 Red. masses --      3.6830                 5.6172                 4.8859
 Frc consts  --      0.2211                 0.4929                 0.5436
 IR Inten    --      5.3449                 3.0007                 2.5921

                     13                     14                     15
                      A                      A                      A
 Frequencies --    495.8949               567.8578               595.4885
 Red. masses --      5.4989                 3.4816                 5.8382
 Frc consts  --      0.7967                 0.6615                 1.2198
 IR Inten    --     11.9428                 0.5095                 2.1586

                     16                     17                     18
                      A                      A                      A
 Frequencies --    623.3199               677.4511               710.4855
 Red. masses --      3.7244                 4.2975                 1.1791
 Frc consts  --      0.8526                 1.1620                 0.3507
 IR Inten    --      3.9249                10.9748                55.3677

                     19                     20                     21
                      A                      A                      A
 Frequencies --    731.1036               753.5244               831.7719
 Red. masses --      3.5584                 7.0921                 1.3130
 Frc consts  --      1.1206                 2.3726                 0.5352
 IR Inten    --      2.2326                 1.4453                 6.7088

                     22                     23                     24
                      A                      A                      A
 Frequencies --    866.5673               905.1615               959.3584
 Red. masses --      4.1726                 1.3041                 1.2850
 Frc consts  --      1.8461                 0.6295                 0.6968
 IR Inten    --      7.7064                 0.3688                 6.3550

                     25                     26                     27
                      A                      A                      A
 Frequencies --    967.1812               992.8563              1051.6028
 Red. masses --      1.4910                 2.2249                 1.7302
 Frc consts  --      0.8218                 1.2922                 1.1273
 IR Inten    --     17.6695                 8.4734                 5.0817

                     28                     29                     30
                      A                      A                      A
 Frequencies --   1080.6343              1084.3196              1105.2389
 Red. masses --      1.7595                 5.6121                 1.5360
 Frc consts  --      1.2106                 3.8877                 1.1055
 IR Inten    --      6.1975                86.7420                 0.6019

                     31                     32                     33
                      A                      A                      A
 Frequencies --   1118.7984              1178.7111              1247.7570
 Red. masses --      1.2479                 2.5829                 1.2815
 Frc consts  --      0.9203                 2.1143                 1.1755
 IR Inten    --      1.6852                12.7688                 4.2582

                     34                     35                     36
                      A                      A                      A
 Frequencies --   1280.2157              1359.7524              1371.0540
 Red. masses --      1.3810                 1.1886                 1.6829
 Frc consts  --      1.3335                 1.2948                 1.8639
 IR Inten    --     12.0418                 5.8245                 2.2372

                     37                     38                     39
                      A                      A                      A
 Frequencies --   1406.2784              1437.6492              1479.7113
 Red. masses --      2.0962                 1.2495                 1.0579
 Frc consts  --      2.4425                 1.5216                 1.3647
 IR Inten    --      0.4360                 5.2928                 9.5218

                     40                     41                     42
                      A                      A                      A
 Frequencies --   1490.4671              1491.1713              1523.2911
 Red. masses --      1.0567                 5.6789                 1.0530
 Frc consts  --      1.3831                 7.4399                 1.4395
 IR Inten    --      6.5293                 5.8372                10.0901

                     43                     44                     45
                      A                      A                      A
 Frequencies --   1535.2957              1589.6017              3063.2793
 Red. masses --      1.0497                 4.9317                 1.0353
 Frc consts  --      1.4578                 7.3422                 5.7238
 IR Inten    --      2.2851                 0.8157                13.1682

                     46                     47                     48
                      A                      A                      A
 Frequencies --   3070.0503              3071.7921              3134.5700
 Red. masses --      1.0842                 1.0295                 1.1027
 Frc consts  --      6.0208                 5.7236                 6.3835
 IR Inten    --      4.2480                 7.4782                14.8358

                     49                     50                     51
                      A                      A                      A
 Frequencies --   3135.8888              3169.0440              3179.2058
 Red. masses --      1.1028                 1.1051                 1.1067
 Frc consts  --      6.3893                 6.5392                 6.5903
 IR Inten    --     17.7046                 4.5646                 0.6014

                     52                     53                     54
                      A                      A                      A
 Frequencies --   3218.3188              3232.6401              3269.2381
 Red. masses --      1.0880                 1.0951                 1.0970
 Frc consts  --      6.6396                 6.7423                 6.9082
 IR Inten    --      8.4592                 8.1820                 1.1036

 - Thermochemistry -
 -------------------
 Temperature   298.150 Kelvin.  Pressure   1.00000 Atm.
 Atom     1 has atomic number  6 and mass  12.00000

 Molecular mass:   174.01731 amu.
 Principal axes and moments of inertia in atomic units:
                           1         2         3
     Eigenvalues --  1132.885902301.364822738.39967
           X            0.99970  -0.02445   0.00338
           Y            0.02454   0.99932  -0.02736
           Z           -0.00271   0.02744   0.99962
 This molecule is an asymmetric top.
 Rotational symmetry number  1.
 Warning -- assumption of classical behavior for rotation
           may cause significant error
 Rotational temperatures (Kelvin)      0.07645     0.03764     0.03163
 Rotational constants (GHZ):           1.59305     0.78420     0.65905
 Zero-point vibrational energy     411383.7 (Joules/Mol)
                                   98.32306 (Kcal/Mol)
 Warning -- explicit consideration of  15 degrees of freedom as
           vibrations may cause significant error
 Vibrational temperatures:     58.98    95.05   150.31   256.03   271.95
          (Kelvin)            325.37   353.51   361.28   407.57   459.24
                              555.27   625.23   713.48   817.02   856.78
                              896.82   974.70  1022.23  1051.90  1084.15
                             1196.73  1246.80  1302.33  1380.30  1391.56
                             1428.50  1513.02  1554.79  1560.09  1590.19
                             1609.70  1695.90  1795.24  1841.94  1956.38
                             1972.64  2023.32  2068.46  2128.97  2144.45
                             2145.46  2191.68  2208.95  2287.08  4407.38
                             4417.12  4419.62  4509.95  4511.84  4559.55
                             4574.17  4630.44  4651.05  4703.70

 Zero-point correction=                           0.156688 (Hartree/Particle)
 Thermal correction to Energy=                    0.167694
 Thermal correction to Enthalpy=                  0.168638
 Thermal correction to Gibbs Free Energy=         0.119321
 Sum of electronic and zero-point Energies=          -1144.195250
 Sum of electronic and thermal Energies=             -1144.184244
 Sum of electronic and thermal Enthalpies=           -1144.183300
 Sum of electronic and thermal Free Energies=        -1144.232616

                     E (Thermal)             CV                S
                      KCal/Mol        Cal/Mol-Kelvin    Cal/Mol-Kelvin
 Total                  105.229             40.451            103.795
 Electronic               0.000              0.000              0.000
 Translational            0.889              2.981             41.369
 Rotational               0.889              2.981             30.347
 Vibrational            103.452             34.489             32.079
 Vibration     1          0.594              1.981              5.211
 Vibration     2          0.597              1.970              4.267
 Vibration     3          0.605              1.946              3.369
 Vibration     4          0.628              1.869              2.350
 Vibration     5          0.633              1.855              2.237
 Vibration     6          0.650              1.801              1.909
 Vibration     7          0.660              1.770              1.761
 Vibration     8          0.663              1.761              1.723
 Vibration     9          0.682              1.705              1.514
 Vibration    10          0.705              1.637              1.314
 Vibration    11          0.755              1.500              1.016
 Vibration    12          0.795              1.395              0.844
 Vibration    13          0.851              1.259              0.668
 Vibration    14          0.924              1.101              0.508
 Vibration    15          0.953              1.041              0.457

                           ! Non-Optimized Parameters !
 Normal termination of Gaussian 16 at Tue Dec  8 10:19:41 2020.

 ----------------------------------------------------------------------
 # B3LYP/6-311++G(d,p) empiricaldispersion=gd3bj scf=xqc pop=npa geom=c
 heck
 ----------------------------------------------------------------------

 -------------------------------------
 CID_127010323_JID_26_Energie_neutraal
 -------------------------------------
 Structure from the checkpoint file:  "JID_26.chk"
 Charge =  0 Multiplicity = 1

 SCF Done:  E(RB3LYP) =  -1144.50703322     A.U. after   16 cycles
 Normal termination of Gaussian 16 at Tue Dec  8 10:21:12 2020.

 ----------------------------------------------------------------------
 # B3LYP/6-311++G(d,p) empiricaldispersion=gd3bj scf=xqc pop=npa geom=c
 heck
 ----------------------------------------------------------------------

 -----------------------------------
 CID_127010323_JID_26_Energie_kation
 -----------------------------------
 Structure from the checkpoint file:  "JID_26.chk"
 Charge =  1 Multiplicity = 2

 SCF Done:  E(UB3LYP) =  -1144.21271598     A.U. after   24 cycles
 Normal termination of Gaussian 16 at Tue Dec  8 10:24:04 2020.
 Gaussian 16:  ES64L-G16RevA.03 25-Dec-2016

 ----------------------------------------------------------------------
 # B3LYP/6-311++G(d,p) empiricaldispersion=gd3bj scf=xqc pop=npa geom=c
 heck
 ----------------------------------------------------------------------

 ----------------------------------
 CID_127010323_JID_26_Energie_anion
 ----------------------------------
 Structure from the checkpoint file:  "JID_26.chk"
 Charge = -1 Multiplicity = 2

                         Standard orientation:
 ---------------------------------------------------------------------
 Center     Atomic      Atomic             Coordinates (Angstroms)
 Number     Number       Type             X           Y           Z
 ---------------------------------------------------------------------
      1          6           0       -1.219231    2.131538   -0.812397
      2          6           0       -0.756167    0.677546   -0.860848
      3          6           0        0.621526    0.443116   -0.355350
      4          6           0        1.424950    1.294909    0.369012
      5          6           0        2.684440    0.725276    0.716224
      6          6           0        2.826017   -0.555386    0.253981
      7         16           0        1.415910   -1.096773   -0.592956
      8         16           0       -2.032644   -0.419682    0.021480
      9          8           0       -1.576265   -1.849477   -0.175611
     10          6           0       -1.621892    0.043920    1.743739
     11          1           0       -1.172997    2.540285    0.201518
     12          1           0       -2.250127    2.220108   -1.169019
     13          1           0       -0.579812    2.748687   -1.451121
     14          1           0       -0.860412    0.289991   -1.880783
     15          1           0        1.133587    2.306018    0.629029
     16          1           0        3.449267    1.249393    1.278384
     17          1           0        3.669250   -1.221008    0.380010
     18          1           0       -0.557807   -0.121670    1.926506
     19          1           0       -1.890563    1.088731    1.922907
     20          1           0       -2.220367   -0.606950    2.384898
 ---------------------------------------------------------------------

 SCF Done:  E(UB3LYP) =  -1144.49489895     A.U. after   33 cycles
 SCF Done:  E(UB3LYP) =  -1144.49489895     a.u. after    1 cycles

 The electronic state is 2-A.
 Alpha  occ. eigenvalues --  -88.83578 -88.76199 -18.97529 -10.10974 -10.09346
 Alpha  occ. eigenvalues --  -10.08757 -10.08526 -10.06772 -10.06706 -10.06388
 Alpha  occ. eigenvalues --   -7.91333  -7.84805  -5.87592  -5.87454  -5.86934
 Alpha  occ. eigenvalues --   -5.81089  -5.80713  -5.80420  -0.90484  -0.77448
 Alpha  occ. eigenvalues --   -0.70787  -0.64855  -0.62590  -0.60716  -0.55375
 Alpha  occ. eigenvalues --   -0.49853  -0.45484  -0.42274  -0.40042  -0.37130
 Alpha  occ. eigenvalues --   -0.34337  -0.34261  -0.32056  -0.30933  -0.30656
 Alpha  occ. eigenvalues --   -0.28844  -0.27675  -0.27088  -0.26134  -0.25447
 Alpha  occ. eigenvalues --   -0.25286  -0.23100  -0.16793  -0.14820  -0.13554
 Alpha  occ. eigenvalues --   -0.11619   0.04709
 Alpha virt. eigenvalues --    0.07073   0.07241   0.07997   0.08633   0.09627
 Alpha virt. eigenvalues --    0.10041   0.10948   0.11615   0.12577   0.12772
 Alpha virt. eigenvalues --    0.13093   0.13970   0.14618   0.14678   0.15070

  Beta  occ. eigenvalues --  -88.83563 -88.76186 -18.97513 -10.10962 -10.09274
  Beta  occ. eigenvalues --  -10.08718 -10.08435 -10.06719 -10.06706 -10.06341
  Beta  occ. eigenvalues --   -7.91318  -7.84792  -5.87582  -5.87415  -5.86926
  Beta  occ. eigenvalues --   -5.81083  -5.80708  -5.80374  -0.90447  -0.77344
  Beta  occ. eigenvalues --   -0.70706  -0.64786  -0.62501  -0.60576  -0.55273
  Beta  occ. eigenvalues --   -0.49743  -0.45368  -0.42156  -0.39972  -0.37036
  Beta  occ. eigenvalues --   -0.34263  -0.34193  -0.31993  -0.30876  -0.30602
  Beta  occ. eigenvalues --   -0.28774  -0.27559  -0.26978  -0.26025  -0.25376
  Beta  occ. eigenvalues --   -0.25184  -0.23020  -0.16654  -0.14600  -0.13349
  Beta  occ. eigenvalues --   -0.11376
  Beta virt. eigenvalues --    0.07266   0.07650   0.08082   0.08700   0.09258
  Beta virt. eigenvalues --    0.10247   0.10661   0.11667   0.11962   0.12872
  Beta virt. eigenvalues --    0.12994   0.13327   0.14370   0.14756   0.14870

 Mulliken charges and spin densities:
               1          2
     1  C    1.918247  -2.612056
     2  C   -1.511256   1.216286
     3  C    1.055846  -0.856897
     4  C   -0.726494   1.137423
     5  C    0.790024  -1.530594
     6  C    0.056211  -0.016778
     7  S   -0.487137   0.232868
     8  S    0.853948  -0.258330
     9  O   -0.460795   0.015704
    10  C   -0.128640  -0.618651
    11  H   -0.124336   0.295529
    12  H   -0.630718   0.798248
    13  H   -0.303527   0.468288
    14  H   -0.045276   0.349391
    15  H   -0.714648   0.889773
    16  H   -0.402657   0.549293
    17  H    0.075084   0.141860
    18  H    0.249293   0.002833
    19  H   -0.465078   0.619226
    20  H    0.001910   0.176583
 Sum of Mulliken charges =  -1.00000   1.00000

 Dipole moment (field-independent basis, Debye):
    X=              1.6653    Y=             -4.8036    Z=              0.1514  Tot=              5.0863
 Quadrupole moment (field-independent basis, Debye-Ang):
   XX=           -118.5594   YY=           -128.3965   ZZ=           -103.6552
   XY=             -1.7677   XZ=             -1.7902   YZ=             -1.0818

 Summary of Natural Population Analysis:

                                       Natural Population
                Natural  -----------------------------------------------
    Atom  No    Charge         Core      Valence    Rydberg      Total
 -----------------------------------------------------------------------
      C    1   -0.29349      0.99964     2.28584    0.00801     3.29349
      C    2   -0.19273      0.99949     2.17517    0.01808     3.19273
      C    3   -0.11211      0.99947     2.09624    0.01641     3.11211
      C    4   -0.12166      0.99945     2.10981    0.01240     3.12166
      C    5   -0.13400      0.99954     2.12249    0.01197     3.13400
      C    6   -0.18648      0.99954     2.17619    0.01075     3.18648
      S    7    0.23153      4.99940     2.74941    0.01965     7.76847
      S    8    0.58275      4.99947     2.36338    0.05440     7.41725
      O    9   -0.48176      0.99993     3.47561    0.00621     4.48176
      C   10   -0.38443      0.99962     2.37660    0.00821     3.38443
      H   11    0.10406      0.00000     0.39268    0.00326     0.39594
      H   12    0.10547      0.00000     0.39186    0.00267     0.39453
      H   13    0.11225      0.00000     0.38543    0.00232     0.38775
      H   14    0.11251      0.00000     0.38585    0.00164     0.38749
      H   15    0.11152      0.00000     0.38633    0.00215     0.38848
      H   16    0.10538      0.00000     0.39344    0.00118     0.39462
      H   17    0.10495      0.00000     0.39427    0.00078     0.39505
      H   18    0.11608      0.00000     0.38261    0.00132     0.38392
      H   19    0.11082      0.00000     0.38618    0.00300     0.38918
      H   20    0.10935      0.00000     0.38939    0.00126     0.39065
 =======================================================================
   * Total *    0.00000     17.99553    27.81880    0.18567    46.00000

 Normal termination of Gaussian 16 at Tue Dec  8 10:27:58 2020.
