 Gaussian 16, Revision A.03,

 -----------------------------------------------------------
 # opt freq B3LYP/6-31G(d) empiricaldispersion=gd3bj scf=xqc
 -----------------------------------------------------------

 ------------------------------
 CID_82602224_JID_3662_neutraal
 ------------------------------
 Symbolic Z-matrix:
 Charge =  0 Multiplicity = 1

 SCF Done:  E(RB3LYP) =  -559.191459858     A.U. after   12 cycles
 SCF Done:  E(RB3LYP) =  -559.195392858     A.U. after   11 cycles
 SCF Done:  E(RB3LYP) =  -559.195959408     A.U. after   10 cycles
 SCF Done:  E(RB3LYP) =  -559.196243274     A.U. after   11 cycles
 SCF Done:  E(RB3LYP) =  -559.196634285     A.U. after   10 cycles
 SCF Done:  E(RB3LYP) =  -559.196938418     A.U. after   10 cycles
 SCF Done:  E(RB3LYP) =  -559.197050625     A.U. after   10 cycles
 SCF Done:  E(RB3LYP) =  -559.197100107     A.U. after   10 cycles
 SCF Done:  E(RB3LYP) =  -559.197121711     A.U. after   10 cycles
 SCF Done:  E(RB3LYP) =  -559.197146116     A.U. after    9 cycles
 SCF Done:  E(RB3LYP) =  -559.197161324     A.U. after    9 cycles
 SCF Done:  E(RB3LYP) =  -559.197173170     A.U. after    9 cycles
 SCF Done:  E(RB3LYP) =  -559.197176899     A.U. after    9 cycles
 SCF Done:  E(RB3LYP) =  -559.197177369     A.U. after    9 cycles
 SCF Done:  E(RB3LYP) =  -559.197177706     A.U. after    7 cycles
 SCF Done:  E(RB3LYP) =  -559.197177791     A.U. after    6 cycles
 Optimization completed.
    -- Stationary point found.
 Normal termination of Gaussian 16 at Wed Dec  9 23:25:26 2020.

 --------------------------------------------------------------------
 #N Geom=AllCheck Guess=TCheck SCRF=Check GenChk RB3LYP/6-31G(d) Freq
 --------------------------------------------------------------------

 Structure from the checkpoint file:  "JID_3662.chk"
 ------------------------------
 CID_82602224_JID_3662_neutraal
 ------------------------------
 Charge =  0 Multiplicity = 1

 SCF Done:  E(RB3LYP) =  -559.197177791     A.U. after    1 cycles

  Exact polarizability: 137.639   0.200 124.163   4.071  -0.107 108.865
 Approx polarizability: 172.581  -1.605 171.333   4.423  -0.294 165.937

                      1                      2                      3
                      A                      A                      A
 Frequencies --     31.9265                48.3363                72.7739
 Red. masses --      2.9409                 3.0236                 3.0846
 Frc consts  --      0.0018                 0.0042                 0.0096
 IR Inten    --      0.2980                 0.1705                 1.1210

                      4                      5                      6
                      A                      A                      A
 Frequencies --    101.6150               153.1888               156.4282
 Red. masses --      3.0726                 3.1987                 2.9968
 Frc consts  --      0.0187                 0.0442                 0.0432
 IR Inten    --      4.7771                 0.5533                 5.7829

                      7                      8                      9
                      A                      A                      A
 Frequencies --    184.5383               211.2070               254.0860
 Red. masses --      2.6680                 2.1286                 1.4710
 Frc consts  --      0.0535                 0.0559                 0.0560
 IR Inten    --      1.6901                11.9926                 2.7335

                     10                     11                     12
                      A                      A                      A
 Frequencies --    256.7672               261.6759               299.2846
 Red. masses --      1.2131                 1.4427                 1.9300
 Frc consts  --      0.0471                 0.0582                 0.1019
 IR Inten    --     60.1164                 2.5321                 1.4420

                     13                     14                     15
                      A                      A                      A
 Frequencies --    309.4623               350.6571               375.9026
 Red. masses --      1.2909                 2.7281                 2.1259
 Frc consts  --      0.0728                 0.1976                 0.1770
 IR Inten    --      3.4917                 1.6458                 1.0076

                     16                     17                     18
                      A                      A                      A
 Frequencies --    403.3863               413.7563               440.9536
 Red. masses --      2.1445                 2.1466                 1.8168
 Frc consts  --      0.2056                 0.2165                 0.2081
 IR Inten    --      2.3696                 1.5602                 0.0815

                     19                     20                     21
                      A                      A                      A
 Frequencies --    472.3654               496.1823               517.9118
 Red. masses --      2.8299                 2.6062                 2.6194
 Frc consts  --      0.3720                 0.3780                 0.4140
 IR Inten    --     22.7427                 9.4300                 3.8488

                     22                     23                     24
                      A                      A                      A
 Frequencies --    566.9153               672.2122               738.1985
 Red. masses --      2.9109                 1.9982                 2.5282
 Frc consts  --      0.5512                 0.5320                 0.8117
 IR Inten    --      0.9990                33.0537                 2.3724

                     25                     26                     27
                      A                      A                      A
 Frequencies --    782.7936               813.8790               867.3491
 Red. masses --      2.7922                 1.9276                 1.8513
 Frc consts  --      1.0081                 0.7523                 0.8205
 IR Inten    --     27.1628                29.4633                23.2956

                     28                     29                     30
                      A                      A                      A
 Frequencies --    873.7600               885.8381               907.4585
 Red. masses --      1.7218                 1.8760                 2.0595
 Frc consts  --      0.7745                 0.8673                 0.9992
 IR Inten    --     44.5184                26.2821                 6.1719

                     31                     32                     33
                      A                      A                      A
 Frequencies --    925.7971               934.3070               977.8020
 Red. masses --      2.0866                 1.8111                 1.7231
 Frc consts  --      1.0537                 0.9315                 0.9706
 IR Inten    --      5.8930                17.8259                 9.7856

                     34                     35                     36
                      A                      A                      A
 Frequencies --   1009.1019              1037.1614              1065.0670
 Red. masses --      1.8198                 2.0132                 3.0248
 Frc consts  --      1.0918                 1.2760                 2.0216
 IR Inten    --     14.5667                 8.9392                 7.3954

                     37                     38                     39
                      A                      A                      A
 Frequencies --   1071.2073              1088.2696              1092.2851
 Red. masses --      1.9631                 1.8178                 2.1420
 Frc consts  --      1.3272                 1.2684                 1.5057
 IR Inten    --      5.4789                17.7708                35.3946

                     40                     41                     42
                      A                      A                      A
 Frequencies --   1093.7053              1098.7072              1120.6344
 Red. masses --      1.5016                 1.8877                 1.9026
 Frc consts  --      1.0583                 1.3426                 1.4077
 IR Inten    --      3.8989                 3.4506                 6.6168

                     43                     44                     45
                      A                      A                      A
 Frequencies --   1136.9195              1142.8884              1170.2854
 Red. masses --      1.2843                 2.2854                 2.0816
 Frc consts  --      0.9780                 1.7588                 1.6797
 IR Inten    --     16.2150                12.5103                12.6274

                     46                     47                     48
                      A                      A                      A
 Frequencies --   1188.9677              1191.5877              1202.3627
 Red. masses --      1.3268                 1.4077                 1.2260
 Frc consts  --      1.1050                 1.1777                 1.0443
 IR Inten    --      4.0135                 6.7924                 2.9812

                     49                     50                     51
                      A                      A                      A
 Frequencies --   1226.3480              1240.7137              1279.4722
 Red. masses --      1.6976                 1.1659                 1.4303
 Frc consts  --      1.5042                 1.0575                 1.3795
 IR Inten    --      2.8157                 3.4686                10.1986

                     52                     53                     54
                      A                      A                      A
 Frequencies --   1293.2774              1327.2865              1331.9826
 Red. masses --      1.2959                 1.3076                 1.3819
 Frc consts  --      1.2770                 1.3572                 1.4446
 IR Inten    --      2.3197                 1.5934                 5.7126

                     55                     56                     57
                      A                      A                      A
 Frequencies --   1344.7531              1355.6676              1369.7190
 Red. masses --      2.4474                 1.3806                 1.3943
 Frc consts  --      2.6076                 1.4949                 1.5412
 IR Inten    --     22.4829                 8.2007                22.8560

                     58                     59                     60
                      A                      A                      A
 Frequencies --   1380.8778              1385.1654              1400.9664
 Red. masses --      1.3435                 1.4100                 1.2924
 Frc consts  --      1.5094                 1.5940                 1.4946
 IR Inten    --      3.6077                 4.4801                11.8171

                     61                     62                     63
                      A                      A                      A
 Frequencies --   1413.0697              1423.1828              1423.8921
 Red. masses --      1.4252                 1.3312                 1.3355
 Frc consts  --      1.6767                 1.5886                 1.5953
 IR Inten    --      2.3688                20.9085                 4.3421

                     64                     65                     66
                      A                      A                      A
 Frequencies --   1446.1309              1454.0476              1473.0773
 Red. masses --      1.4968                 1.4325                 1.1557
 Frc consts  --      1.8442                 1.7844                 1.4776
 IR Inten    --      4.1831                 0.9765                 0.9550

                     67                     68                     69
                      A                      A                      A
 Frequencies --   1493.9965              1499.9020              1506.3358
 Red. masses --      1.1191                 1.2744                 1.0537
 Frc consts  --      1.4717                 1.6892                 1.4087
 IR Inten    --      0.6323                 3.4052                 7.5561

                     70                     71                     72
                      A                      A                      A
 Frequencies --   1508.6193              1512.4225              1513.5114
 Red. masses --      1.0832                 1.1080                 1.0814
 Frc consts  --      1.4525                 1.4933                 1.4594
 IR Inten    --      0.8998                 9.8119                11.0544

                     73                     74                     75
                      A                      A                      A
 Frequencies --   1524.8869              1531.9422              1540.3824
 Red. masses --      1.1150                 1.1066                 1.0924
 Frc consts  --      1.5275                 1.5302                 1.5272
 IR Inten    --      9.6583                 4.0472                 9.9149

                     76                     77                     78
                      A                      A                      A
 Frequencies --   1542.1944              1544.3950              1558.4035
 Red. masses --      1.0656                 1.0800                 1.0546
 Frc consts  --      1.4932                 1.5178                 1.5091
 IR Inten    --      1.4185                 3.6482                 9.1593

                     79                     80                     81
                      A                      A                      A
 Frequencies --   1699.8967              2925.4421              2927.9793
 Red. masses --      1.0859                 1.0620                 1.0739
 Frc consts  --      1.8488                 5.3549                 5.4245
 IR Inten    --     34.9380                29.0433                39.2050

                     82                     83                     84
                      A                      A                      A
 Frequencies --   2932.9565              2934.6090              3013.0486
 Red. masses --      1.0700                 1.0670                 1.0661
 Frc consts  --      5.4229                 5.4142                 5.7023
 IR Inten    --     46.0892               218.3831                41.1800

                     85                     86                     87
                      A                      A                      A
 Frequencies --   3026.2331              3037.3009              3044.3318
 Red. masses --      1.0653                 1.0621                 1.0656
 Frc consts  --      5.7481                 5.7730                 5.8185
 IR Inten    --     18.3119                52.2350                44.8991

                     88                     89                     90
                      A                      A                      A
 Frequencies --   3045.9664              3058.5864              3060.1501
 Red. masses --      1.0698                 1.0693                 1.0879
 Frc consts  --      5.8480                 5.8937                 6.0025
 IR Inten    --     36.0851                77.2475                25.6079

                     91                     92                     93
                      A                      A                      A
 Frequencies --   3063.9491              3066.1530              3074.8324
 Red. masses --      1.0966                 1.0915                 1.0923
 Frc consts  --      6.0657                 6.0457                 6.0849
 IR Inten    --     18.5609                28.4004                95.5403

                     94                     95                     96
                      A                      A                      A
 Frequencies --   3077.1972              3084.0151              3088.6626
 Red. masses --      1.0885                 1.1028                 1.0948
 Frc consts  --      6.0728                 6.1797                 6.1535
 IR Inten    --     20.6998                40.1509                72.3549

                     97                     98                     99
                      A                      A                      A
 Frequencies --   3100.4033              3106.7209              3135.0876
 Red. masses --      1.0839                 1.1029                 1.0972
 Frc consts  --      6.1389                 6.2717                 6.3540
 IR Inten    --     40.5234                39.5937                12.5219

                    100                    101                    102
                      A                      A                      A
 Frequencies --   3471.5147              3497.5065              3551.6610
 Red. masses --      1.0502                 1.0746                 1.0917
 Frc consts  --      7.4573                 7.7450                 8.1139
 IR Inten    --      2.3420                 2.7012                 0.9072

 - Thermochemistry -
 -------------------
 Temperature   298.150 Kelvin.  Pressure   1.00000 Atm.
 Atom     1 has atomic number  6 and mass  12.00000

 Molecular mass:   185.18920 amu.
 Principal axes and moments of inertia in atomic units:
                           1         2         3
     Eigenvalues --  1598.366743577.468854372.72375
           X            0.99996  -0.00319   0.00817
           Y            0.00313   0.99997   0.00710
           Z           -0.00819  -0.00708   0.99994
 This molecule is an asymmetric top.
 Rotational symmetry number  1.
 Warning -- assumption of classical behavior for rotation
           may cause significant error
 Rotational temperatures (Kelvin)      0.05419     0.02421     0.01981
 Rotational constants (GHZ):           1.12912     0.50447     0.41273
 Zero-point vibrational energy     887262.4 (Joules/Mol)
                                  212.06081 (Kcal/Mol)
 Warning -- explicit consideration of  22 degrees of freedom as
           vibrations may cause significant error
 Vibrational temperatures:     45.94    69.55   104.71   146.20   220.40
          (Kelvin)            225.07   265.51   303.88   365.57   369.43
                              376.49   430.60   445.25   504.52   540.84
                              580.38   595.30   634.43   679.63   713.90
                              745.16   815.66   967.16  1062.10  1126.27
                             1170.99  1247.92  1257.15  1274.52  1305.63
                             1332.02  1344.26  1406.84  1451.87  1492.24
                             1532.39  1541.23  1565.78  1571.55  1573.60
                             1580.79  1612.34  1635.77  1644.36  1683.78
                             1710.66  1714.43  1729.93  1764.44  1785.11
                             1840.88  1860.74  1909.67  1916.43  1934.80
                             1950.50  1970.72  1986.78  1992.94  2015.68
                             2033.09  2047.64  2048.66  2080.66  2092.05
                             2119.43  2149.53  2158.02  2167.28  2170.57
                             2176.04  2177.61  2193.97  2204.12  2216.27
                             2218.87  2222.04  2242.20  2445.77  4209.06
                             4212.71  4219.87  4222.25  4335.10  4354.07
                             4370.00  4380.11  4382.47  4400.62  4402.87
                             4408.34  4411.51  4424.00  4427.40  4437.21
                             4443.90  4460.79  4469.88  4510.69  4994.74
                             5032.13  5110.05

 Zero-point correction=                           0.337940 (Hartree/Particle)
 Thermal correction to Energy=                    0.352418
 Thermal correction to Enthalpy=                  0.353362
 Thermal correction to Gibbs Free Energy=         0.296617
 Sum of electronic and zero-point Energies=           -558.859237
 Sum of electronic and thermal Energies=              -558.844760
 Sum of electronic and thermal Enthalpies=            -558.843816
 Sum of electronic and thermal Free Energies=         -558.900561

                     E (Thermal)             CV                S
                      KCal/Mol        Cal/Mol-Kelvin    Cal/Mol-Kelvin
 Total                  221.145             55.671            119.430
 Electronic               0.000              0.000              0.000
 Translational            0.889              2.981             41.555
 Rotational               0.889              2.981             31.592
 Vibrational            219.368             49.709             46.283
 Vibration     1          0.594              1.983              5.706
 Vibration     2          0.595              1.978              4.884
 Vibration     3          0.599              1.967              4.077
 Vibration     4          0.604              1.948              3.423
 Vibration     5          0.619              1.899              2.632
 Vibration     6          0.620              1.895              2.593
 Vibration     7          0.631              1.861              2.282
 Vibration     8          0.643              1.824              2.033
 Vibration     9          0.665              1.756              1.702
 Vibration    10          0.666              1.751              1.684
 Vibration    11          0.669              1.743              1.651
 Vibration    12          0.692              1.675              1.421
 Vibration    13          0.699              1.656              1.365
 Vibration    14          0.728              1.574              1.163
 Vibration    15          0.747              1.521              1.056
 Vibration    16          0.769              1.463              0.950
 Vibration    17          0.777              1.440              0.913
 Vibration    18          0.801              1.381              0.824
 Vibration    19          0.829              1.311              0.731
 Vibration    20          0.852              1.258              0.668
 Vibration    21          0.873              1.210              0.615
 Vibration    22          0.923              1.103              0.510

 Optimization completed.
    -- Stationary point found.
 Normal termination of Gaussian 16 at Wed Dec  9 23:36:29 2020.

 ----------------------------------------------------------------------
 # B3LYP/6-311++G(d,p) empiricaldispersion=gd3bj scf=xqc pop=npa geom=c
 heck
 ----------------------------------------------------------------------

 --------------------------------------
 CID_82602224_JID_3662_Energie_neutraal
 --------------------------------------
 Structure from the checkpoint file:  "JID_3662.chk"
 Charge =  0 Multiplicity = 1

 SCF Done:  E(RB3LYP) =  -559.364130736     A.U. after   13 cycles
 Normal termination of Gaussian 16 at Wed Dec  9 23:40:53 2020.

 ----------------------------------------------------------------------
 # B3LYP/6-311++G(d,p) empiricaldispersion=gd3bj scf=xqc pop=npa geom=c
 heck
 ----------------------------------------------------------------------

 ------------------------------------
 CID_82602224_JID_3662_Energie_kation
 ------------------------------------
 Structure from the checkpoint file:  "JID_3662.chk"
 Charge =  1 Multiplicity = 2

 SCF Done:  E(UB3LYP) =  -559.095138047     A.U. after   22 cycles
 Normal termination of Gaussian 16 at Wed Dec  9 23:51:03 2020.
 Gaussian 16:  ES64L-G16RevA.03 25-Dec-2016

 ----------------------------------------------------------------------
 # B3LYP/6-311++G(d,p) empiricaldispersion=gd3bj scf=xqc pop=npa geom=c
 heck
 ----------------------------------------------------------------------

 -----------------------------------
 CID_82602224_JID_3662_Energie_anion
 -----------------------------------
 Structure from the checkpoint file:  "JID_3662.chk"
 Charge = -1 Multiplicity = 2

                         Standard orientation:
 ---------------------------------------------------------------------
 Center     Atomic      Atomic             Coordinates (Angstroms)
 Number     Number       Type             X           Y           Z
 ---------------------------------------------------------------------
      1          6           0        2.768210    1.197635    0.287933
      2          7           0        2.971867   -0.065137   -0.399458
      3          6           0        3.698916   -1.022575    0.407199
      4          6           0        1.833592   -0.620706   -1.124839
      5          6           0        0.664788   -1.235114   -0.322441
      6          6           0       -0.274444   -0.235491    0.384207
      7          6           0       -1.214953   -0.941674    1.384759
      8          6           0       -2.356927   -1.686608    0.691400
      9          7           0       -3.099458   -0.742810   -0.144773
     10          6           0       -2.251382   -0.204668   -1.210385
     11          6           0       -1.095510    0.617859   -0.618817
     12          6           0       -1.609847    1.928510   -0.004768
     13          7           0       -0.492051    2.804968    0.383100
     14          1           0        3.734345    1.705561    0.411120
     15          1           0        2.329715    1.091626    1.299369
     16          1           0        2.104349    1.845666   -0.290961
     17          1           0        3.172181   -1.328896    1.332774
     18          1           0        3.902369   -1.925782   -0.179450
     19          1           0        4.660662   -0.589786    0.708905
     20          1           0        1.458131    0.165420   -1.789937
     21          1           0        2.235493   -1.407778   -1.777644
     22          1           0        0.086681   -1.864630   -1.011561
     23          1           0        1.075533   -1.923364    0.428510
     24          1           0        0.363396    0.437279    0.963696
     25          1           0       -0.638282   -1.636937    2.007920
     26          1           0       -1.659317   -0.198742    2.058075
     27          1           0       -1.949434   -2.537064    0.110042
     28          1           0       -3.040104   -2.105318    1.439153
     29          1           0       -3.905944   -1.207968   -0.555301
     30          1           0       -2.866460    0.436387   -1.853226
     31          1           0       -1.836081   -1.002659   -1.855828
     32          1           0       -0.440415    0.912903   -1.446598
     33          1           0       -2.183831    2.459694   -0.774048
     34          1           0       -2.313314    1.708033    0.812041
     35          1           0       -0.851007    3.734273    0.595495
     36          1           0       -0.075838    2.469925    1.249885
 ---------------------------------------------------------------------

 SCF Done:  E(UB3LYP) =  -559.349305106     A.U. after   27 cycles

 The electronic state is 2-A.
 Alpha  occ. eigenvalues --  -14.20101 -14.19128 -14.19103 -10.09003 -10.08713
 Alpha  occ. eigenvalues --  -10.08619 -10.08460 -10.08314 -10.08086 -10.06686
 Alpha  occ. eigenvalues --  -10.06471 -10.05948 -10.05846  -0.81969  -0.80871
 Alpha  occ. eigenvalues --   -0.77901  -0.70287  -0.65552  -0.63778  -0.60529
 Alpha  occ. eigenvalues --   -0.57497  -0.54441  -0.51855  -0.50120  -0.47341
 Alpha  occ. eigenvalues --   -0.41456  -0.41309  -0.39382  -0.37800  -0.37153
 Alpha  occ. eigenvalues --   -0.36349  -0.35408  -0.34229  -0.33659  -0.31958
 Alpha  occ. eigenvalues --   -0.31433  -0.30375  -0.29497  -0.28392  -0.27751
 Alpha  occ. eigenvalues --   -0.26777  -0.26247  -0.26116  -0.25966  -0.24428
 Alpha  occ. eigenvalues --   -0.24081  -0.21038  -0.20561  -0.19952  -0.14741
 Alpha  occ. eigenvalues --   -0.12102  -0.10651   0.04400
 Alpha virt. eigenvalues --    0.06289   0.06527   0.07501   0.08365   0.08889
 Alpha virt. eigenvalues --    0.09185   0.09608   0.09766   0.10992   0.11295
 Alpha virt. eigenvalues --    0.11844   0.12200   0.12502   0.12714   0.13536

  Beta  occ. eigenvalues --  -14.20100 -14.19104 -14.19073 -10.08995 -10.08687
  Beta  occ. eigenvalues --  -10.08603 -10.08440 -10.08300 -10.08064 -10.06680
  Beta  occ. eigenvalues --  -10.06468 -10.05935 -10.05831  -0.81957  -0.80836
  Beta  occ. eigenvalues --   -0.77854  -0.70261  -0.65517  -0.63749  -0.60490
  Beta  occ. eigenvalues --   -0.57456  -0.54386  -0.51805  -0.50074  -0.47296
  Beta  occ. eigenvalues --   -0.41403  -0.41250  -0.39353  -0.37775  -0.37125
  Beta  occ. eigenvalues --   -0.36317  -0.35363  -0.34195  -0.33628  -0.31929
  Beta  occ. eigenvalues --   -0.31397  -0.30340  -0.29471  -0.28361  -0.27717
  Beta  occ. eigenvalues --   -0.26749  -0.26219  -0.26089  -0.25937  -0.24404
  Beta  occ. eigenvalues --   -0.24053  -0.21011  -0.20531  -0.19925  -0.14709
  Beta  occ. eigenvalues --   -0.12057  -0.10634
  Beta virt. eigenvalues --    0.06454   0.07184   0.07272   0.08025   0.08877
  Beta virt. eigenvalues --    0.09207   0.09687   0.09996   0.10186   0.11385
  Beta virt. eigenvalues --    0.11473   0.12215   0.12560   0.12746   0.12947

 Mulliken charges and spin densities:
               1          2
     1  C   -0.067369  -0.444311
     2  N   -0.020430   0.149734
     3  C    0.352634  -0.724789
     4  C   -0.011283  -0.638264
     5  C   -0.282715  -0.102594
     6  C   -0.519763   0.898555
     7  C    0.150224  -0.517987
     8  C    0.571151  -1.010213
     9  N   -0.430029   0.279511
    10  C    0.953099  -1.571961
    11  C    0.058201   0.358655
    12  C   -0.170187  -0.557616
    13  N   -0.405252   0.058230
    14  H   -0.104662   0.245175
    15  H   -0.156028   0.291062
    16  H    0.092705   0.095668
    17  H   -0.145094   0.257401
    18  H   -0.114856   0.247773
    19  H   -0.109407   0.240214
    20  H    0.155614  -0.031120
    21  H   -0.161107   0.350237
    22  H    0.230301  -0.146787
    23  H    0.046579   0.121223
    24  H    0.194317  -0.068270
    25  H   -0.075007   0.210015
    26  H   -0.114188   0.284478
    27  H   -0.277642   0.405310
    28  H   -0.307473   0.492711
    29  H   -0.147998   0.406098
    30  H   -0.085930   0.242780
    31  H   -0.262759   0.384376
    32  H    0.214834  -0.022675
    33  H   -0.078681   0.219633
    34  H    0.130399   0.024726
    35  H   -0.109135   0.365709
    36  H    0.006937   0.207311
 Sum of Mulliken charges =  -1.00000   1.00000

 Dipole moment (field-independent basis, Debye):
    X=              1.3670    Y=              0.3383    Z=             -1.2509  Tot=              1.8836
 Quadrupole moment (field-independent basis, Debye-Ang):
   XX=           -156.7271   YY=           -133.0825   ZZ=           -119.9294
   XY=             -5.1177   XZ=             -1.6570   YZ=             -0.9436

 Summary of Natural Population Analysis:

                                       Natural Population
                Natural  -----------------------------------------------
    Atom  No    Charge         Core      Valence    Rydberg      Total
 -----------------------------------------------------------------------
      C    1   -0.17845      0.99964     2.17012    0.00868     3.17845
      N    2   -0.28151      0.99974     2.76877    0.01300     3.78151
      C    3   -0.17666      0.99965     2.16853    0.00849     3.17666
      C    4   -0.07768      0.99960     2.06642    0.01166     3.07768
      C    5   -0.20201      0.99960     2.19298    0.00943     3.20201
      C    6   -0.11490      0.99956     2.10346    0.01188     3.11490
      C    7   -0.19124      0.99961     2.18170    0.00993     3.19124
      C    8   -0.08630      0.99962     2.07570    0.01098     3.08630
      N    9   -0.34265      0.99974     2.83033    0.01258     3.84265
      C   10   -0.08493      0.99960     2.07332    0.01201     3.08493
      C   11   -0.11732      0.99957     2.10506    0.01269     3.11732
      C   12   -0.08628      0.99959     2.07554    0.01115     3.08628
      N   13   -0.42412      0.99977     2.91425    0.01010     3.92412
      H   14    0.08975      0.00000     0.40914    0.00110     0.41025
      H   15    0.07796      0.00000     0.42044    0.00160     0.42204
      H   16    0.10546      0.00000     0.39303    0.00152     0.39454
      H   17    0.08051      0.00000     0.41798    0.00151     0.41949
      H   18    0.09373      0.00000     0.40528    0.00099     0.40627
      H   19    0.09298      0.00000     0.40598    0.00104     0.40702
      H   20    0.09348      0.00000     0.40505    0.00147     0.40652
      H   21    0.09200      0.00000     0.40696    0.00103     0.40800
      H   22    0.09780      0.00000     0.40049    0.00171     0.40220
      H   23    0.09837      0.00000     0.40031    0.00132     0.40163
      H   24    0.09923      0.00000     0.39721    0.00356     0.40077
      H   25    0.09917      0.00000     0.39969    0.00113     0.40083
      H   26    0.09892      0.00000     0.39965    0.00143     0.40108
      H   27    0.07618      0.00000     0.42202    0.00180     0.42382
      H   28    0.09529      0.00000     0.40337    0.00134     0.40471
      H   29    0.17593      0.00000     0.32045    0.00363     0.32407
      H   30    0.09492      0.00000     0.40378    0.00130     0.40508
      H   31    0.07937      0.00000     0.41892    0.00171     0.42063
      H   32    0.10021      0.00000     0.39770    0.00210     0.39979
      H   33    0.08835      0.00000     0.41059    0.00105     0.41165
      H   34    0.08686      0.00000     0.41096    0.00218     0.41314
      H   35    0.17486      0.00000     0.32342    0.00172     0.32514
      H   36    0.17273      0.00000     0.32516    0.00211     0.32727
 =======================================================================
   * Total *    0.00000     12.99529    38.82375    0.18096    52.00000

 Normal termination of Gaussian 16 at Thu Dec 10 00:03:11 2020.
