 Gaussian 16, Revision A.03,

 -----------------------------------------------------------
 # opt freq B3LYP/6-31G(d) empiricaldispersion=gd3bj scf=xqc
 -----------------------------------------------------------

 --------------------------------
 CID_147304814_JID_10398_neutraal
 --------------------------------
 Symbolic Z-matrix:
 Charge =  0 Multiplicity = 1

 SCF Done:  E(RB3LYP) =  -861.904201454     A.U. after   15 cycles
 SCF Done:  E(RB3LYP) =  -861.912102915     A.U. after   13 cycles
 SCF Done:  E(RB3LYP) =  -861.912751874     A.U. after   12 cycles
 SCF Done:  E(RB3LYP) =  -861.913039819     A.U. after   12 cycles
 SCF Done:  E(RB3LYP) =  -861.913460327     A.U. after   11 cycles
 SCF Done:  E(RB3LYP) =  -861.913578577     A.U. after   11 cycles
 SCF Done:  E(RB3LYP) =  -861.913615393     A.U. after   11 cycles
 SCF Done:  E(RB3LYP) =  -861.913639122     A.U. after   10 cycles
 SCF Done:  E(RB3LYP) =  -861.913647352     A.U. after   10 cycles
 SCF Done:  E(RB3LYP) =  -861.913649079     A.U. after    8 cycles
 SCF Done:  E(RB3LYP) =  -861.913649671     A.U. after    8 cycles
 SCF Done:  E(RB3LYP) =  -861.913650115     A.U. after    8 cycles
 SCF Done:  E(RB3LYP) =  -861.913650275     A.U. after    7 cycles
 SCF Done:  E(RB3LYP) =  -861.913650323     A.U. after    6 cycles
 Optimization completed.
    -- Stationary point found.
 Normal termination of Gaussian 16 at Mon Dec 14 13:47:56 2020.

 --------------------------------------------------------------------
 #N Geom=AllCheck Guess=TCheck SCRF=Check GenChk RB3LYP/6-31G(d) Freq
 --------------------------------------------------------------------

 Structure from the checkpoint file:  "JID_10398.chk"
 --------------------------------
 CID_147304814_JID_10398_neutraal
 --------------------------------
 Charge =  0 Multiplicity = 1

 SCF Done:  E(RB3LYP) =  -861.913650323     A.U. after    1 cycles

  Exact polarizability: 301.297   5.821 177.117  -4.711 -21.036 125.842
 Approx polarizability: 433.650  18.981 290.355 -10.268 -48.564 201.071

                      1                      2                      3
                      A                      A                      A
 Frequencies --     19.7788                35.0047                41.9212
 Red. masses --      4.0985                 3.4113                 3.1687
 Frc consts  --      0.0009                 0.0025                 0.0033
 IR Inten    --      0.6480                 0.2355                 0.9198

                      4                      5                      6
                      A                      A                      A
 Frequencies --     57.2253                61.5174                70.3920
 Red. masses --      3.2293                 3.7685                 3.1495
 Frc consts  --      0.0062                 0.0084                 0.0092
 IR Inten    --      1.1866                 0.5185                 0.6032

                      7                      8                      9
                      A                      A                      A
 Frequencies --    108.8945               113.2012               146.7751
 Red. masses --      2.4847                 3.0228                 1.6754
 Frc consts  --      0.0174                 0.0228                 0.0213
 IR Inten    --      1.0235                 0.2429                 1.5176

                     10                     11                     12
                      A                      A                      A
 Frequencies --    151.3522               169.8533               191.9860
 Red. masses --      2.2339                 3.2737                 2.0361
 Frc consts  --      0.0302                 0.0556                 0.0442
 IR Inten    --      0.1289                 3.0991                 4.2353

                     13                     14                     15
                      A                      A                      A
 Frequencies --    206.0437               239.9034               253.1294
 Red. masses --      1.6177                 1.4309                 1.6304
 Frc consts  --      0.0405                 0.0485                 0.0615
 IR Inten    --      0.4033                 1.1443                 0.1092

                     16                     17                     18
                      A                      A                      A
 Frequencies --    287.6852               291.3367               310.9128
 Red. masses --      3.3088                 3.0795                 4.7683
 Frc consts  --      0.1613                 0.1540                 0.2716
 IR Inten    --      0.4136                 1.8777                 3.1056

                     19                     20                     21
                      A                      A                      A
 Frequencies --    337.7362               352.0563               381.1134
 Red. masses --      1.8070                 2.9935                 3.5875
 Frc consts  --      0.1214                 0.2186                 0.3070
 IR Inten    --     53.9642                 3.0861                 1.1993

                     22                     23                     24
                      A                      A                      A
 Frequencies --    390.7667               417.9555               457.9247
 Red. masses --      1.7195                 2.7653                 3.6435
 Frc consts  --      0.1547                 0.2846                 0.4501
 IR Inten    --    125.6121                 1.6191                18.3301

                     25                     26                     27
                      A                      A                      A
 Frequencies --    460.6908               475.3196               487.0531
 Red. masses --      2.8601                 3.3771                 3.7782
 Frc consts  --      0.3576                 0.4495                 0.5281
 IR Inten    --      2.6002                17.4246                 4.3217

                     28                     29                     30
                      A                      A                      A
 Frequencies --    535.3088               542.6880               548.6550
 Red. masses --      1.9786                 3.2834                 3.8810
 Frc consts  --      0.3341                 0.5697                 0.6883
 IR Inten    --    105.4501                16.7881                23.3010

                     31                     32                     33
                      A                      A                      A
 Frequencies --    577.9536               604.1284               630.9842
 Red. masses --      4.0410                 3.1319                 4.8074
 Frc consts  --      0.7953                 0.6735                 1.1277
 IR Inten    --      1.3354                90.0801                 5.4835

                     34                     35                     36
                      A                      A                      A
 Frequencies --    673.9913               703.7195               715.6089
 Red. masses --      5.0074                 5.9203                 3.7052
 Frc consts  --      1.3402                 1.7274                 1.1179
 IR Inten    --     11.2555                35.1661                 7.9986

                     37                     38                     39
                      A                      A                      A
 Frequencies --    756.3297               772.5287               781.2923
 Red. masses --      4.7134                 1.3094                 4.0544
 Frc consts  --      1.5886                 0.4604                 1.4581
 IR Inten    --      1.8663                46.0155                 0.6490

                     40                     41                     42
                      A                      A                      A
 Frequencies --    791.6379               817.6478               823.9001
 Red. masses --      2.9979                 1.2168                 1.3236
 Frc consts  --      1.1069                 0.4793                 0.5294
 IR Inten    --      8.4268                10.6375                 7.2838

                     43                     44                     45
                      A                      A                      A
 Frequencies --    863.1783               876.9411               881.2293
 Red. masses --      2.5138                 1.5862                 2.7714
 Frc consts  --      1.1035                 0.7187                 1.2680
 IR Inten    --      6.8062                 1.4738                 7.6715

                     46                     47                     48
                      A                      A                      A
 Frequencies --    894.5690               948.7799               979.5405
 Red. masses --      4.9511                 1.3260                 1.9125
 Frc consts  --      2.3344                 0.7033                 1.0812
 IR Inten    --      3.6871                 1.0795                 2.0972

                     49                     50                     51
                      A                      A                      A
 Frequencies --    985.1446               995.6864              1016.3453
 Red. masses --      1.2560                 2.6466                 2.3391
 Frc consts  --      0.7182                 1.5459                 1.4236
 IR Inten    --      0.1275                 6.1314                 4.9392

                     52                     53                     54
                      A                      A                      A
 Frequencies --   1049.2135              1060.2593              1070.3601
 Red. masses --      2.9268                 3.3925                 1.5178
 Frc consts  --      1.8983                 2.2469                 1.0245
 IR Inten    --      7.8703                 6.7816                 0.4702

                     55                     56                     57
                      A                      A                      A
 Frequencies --   1080.8119              1095.1850              1101.8356
 Red. masses --      2.2599                 1.7730                 2.1636
 Frc consts  --      1.5554                 1.2529                 1.5476
 IR Inten    --     52.9889                61.6771                37.8023

                     58                     59                     60
                      A                      A                      A
 Frequencies --   1114.9828              1125.2995              1137.9924
 Red. masses --      2.1863                 2.0673                 1.6982
 Frc consts  --      1.6014                 1.5424                 1.2957
 IR Inten    --     20.7890                54.8438                 1.2317

                     61                     62                     63
                      A                      A                      A
 Frequencies --   1158.3897              1183.0266              1211.4262
 Red. masses --      1.6919                 1.3096                 1.7677
 Frc consts  --      1.3377                 1.0799                 1.5284
 IR Inten    --      1.9231                12.7939                23.8586

                     64                     65                     66
                      A                      A                      A
 Frequencies --   1229.6220              1249.4712              1287.7089
 Red. masses --      2.0051                 2.1691                 2.0766
 Frc consts  --      1.7862                 1.9952                 2.0288
 IR Inten    --     27.2520                 4.4865                31.7864

                     67                     68                     69
                      A                      A                      A
 Frequencies --   1306.2084              1321.2128              1330.2144
 Red. masses --      1.3463                 1.3707                 2.8596
 Frc consts  --      1.3533                 1.4097                 2.9813
 IR Inten    --     12.5176                19.0873                 3.2275

                     70                     71                     72
                      A                      A                      A
 Frequencies --   1356.4779              1363.4897              1383.1156
 Red. masses --      1.1439                 1.4872                 2.9494
 Frc consts  --      1.2401                 1.6290                 3.3243
 IR Inten    --      0.2793                10.3103                 0.9315

                     73                     74                     75
                      A                      A                      A
 Frequencies --   1394.5823              1404.4126              1427.1834
 Red. masses --      1.4016                 5.4529                 1.2509
 Frc consts  --      1.6060                 6.3368                 1.5012
 IR Inten    --      7.4543                21.7441                 1.0168

                     76                     77                     78
                      A                      A                      A
 Frequencies --   1434.4553              1437.6880              1443.5012
 Red. masses --      1.2758                 1.2613                 1.9906
 Frc consts  --      1.5467                 1.5360                 2.4438
 IR Inten    --      6.6012                 2.5827                14.0404

                     79                     80                     81
                      A                      A                      A
 Frequencies --   1445.6207              1472.4900              1509.9212
 Red. masses --      1.6270                 4.4485                 1.1058
 Frc consts  --      2.0033                 5.6829                 1.4854
 IR Inten    --     17.9213               225.6582                 1.3270

                     82                     83                     84
                      A                      A                      A
 Frequencies --   1511.5115              1516.5432              1520.5267
 Red. masses --      1.9239                 1.2034                 1.1823
 Frc consts  --      2.5898                 1.6306                 1.6105
 IR Inten    --      3.0437                13.0309                37.9445

                     85                     86                     87
                      A                      A                      A
 Frequencies --   1521.5621              1523.9286              1526.4343
 Red. masses --      1.0556                 1.0928                 1.0533
 Frc consts  --      1.4398                 1.4952                 1.4459
 IR Inten    --      4.7676                 8.1364                 2.3068

                     88                     89                     90
                      A                      A                      A
 Frequencies --   1529.9502              1536.9080              1541.0530
 Red. masses --      1.0535                 1.0732                 1.0829
 Frc consts  --      1.4529                 1.4935                 1.5152
 IR Inten    --      7.1873                 5.5060                 3.2435

                     91                     92                     93
                      A                      A                      A
 Frequencies --   1560.5517              1618.6349              1639.0795
 Red. masses --      3.0630                 6.1232                 2.3934
 Frc consts  --      4.3950                 9.4521                 3.7885
 IR Inten    --     17.8904                22.3273                 0.4616

                     94                     95                     96
                      A                      A                      A
 Frequencies --   1668.3967              1679.2815              1736.8673
 Red. masses --      3.3336                 2.7293                 9.4299
 Frc consts  --      5.4672                 4.5347                16.7606
 IR Inten    --     94.0097                84.4401               156.3702

                     97                     98                     99
                      A                      A                      A
 Frequencies --   3037.3432              3045.4152              3054.1548
 Red. masses --      1.0626                 1.0435                 1.0429
 Frc consts  --      5.7759                 5.7020                 5.7318
 IR Inten    --     32.5332                17.3234                 6.1538

                    100                    101                    102
                      A                      A                      A
 Frequencies --   3057.9684              3060.5034              3072.5085
 Red. masses --      1.0381                 1.0467                 1.0597
 Frc consts  --      5.7194                 5.7762                 5.8942
 IR Inten    --     19.2449                37.1801                 7.4363

                    103                    104                    105
                      A                      A                      A
 Frequencies --   3093.9698              3100.3352              3109.9996
 Red. masses --      1.1018                 1.0957                 1.1091
 Frc consts  --      6.2145                 6.2053                 6.3203
 IR Inten    --     15.6089                17.8608                28.4041

                    106                    107                    108
                      A                      A                      A
 Frequencies --   3113.4427              3124.1979              3129.2332
 Red. masses --      1.1025                 1.1014                 1.1026
 Frc consts  --      6.2968                 6.3341                 6.3612
 IR Inten    --      1.7809                32.2637                27.4071

                    109                    110                    111
                      A                      A                      A
 Frequencies --   3136.5781              3142.7109              3155.2421
 Red. masses --      1.1043                 1.1033                 1.0985
 Frc consts  --      6.4013                 6.4201                 6.4432
 IR Inten    --     37.4001                33.5737                 9.5842

                    112                    113                    114
                      A                      A                      A
 Frequencies --   3184.0008              3196.6825              3209.9626
 Red. masses --      1.0853                 1.0889                 1.0933
 Frc consts  --      6.4826                 6.5558                 6.6370
 IR Inten    --      1.7524                15.8786                31.4079

                    115                    116                    117
                      A                      A                      A
 Frequencies --   3216.6263              3582.8706              3701.8203
 Red. masses --      1.0961                 1.0473                 1.0993
 Frc consts  --      6.6816                 7.9214                 8.8753
 IR Inten    --     23.8434                34.9773                30.5008

 - Thermochemistry -
 -------------------
 Temperature   298.150 Kelvin.  Pressure   1.00000 Atm.
 Atom     1 has atomic number  6 and mass  12.00000

 Molecular mass:   271.16846 amu.
 Principal axes and moments of inertia in atomic units:
                           1         2         3
     Eigenvalues --  2459.624449960.46896**********
           X            0.99995   0.00878   0.00425
           Y           -0.00881   0.99993   0.00826
           Z           -0.00418  -0.00830   0.99996
 This molecule is an asymmetric top.
 Rotational symmetry number  1.
 Warning -- assumption of classical behavior for rotation
           may cause significant error
 Rotational temperatures (Kelvin)      0.03521     0.00870     0.00794
 Rotational constants (GHZ):           0.73375     0.18119     0.16538
 Zero-point vibrational energy     918602.1 (Joules/Mol)
                                  219.55116 (Kcal/Mol)
 Warning -- explicit consideration of  32 degrees of freedom as
           vibrations may cause significant error
 Vibrational temperatures:     28.46    50.36    60.32    82.33    88.51
          (Kelvin)            101.28   156.67   162.87   211.18   217.76
                              244.38   276.23   296.45   345.17   364.20
                              413.91   419.17   447.33   485.93   506.53
                              548.34   562.23   601.34   658.85   662.83
                              683.88   700.76   770.19   780.81   789.39
                              831.55   869.21   907.85   969.72  1012.50
                             1029.60  1088.19  1111.50  1124.11  1138.99
                             1176.41  1185.41  1241.92  1261.72  1267.89
                             1287.09  1365.08  1409.34  1417.40  1432.57
                             1462.29  1509.58  1525.48  1540.01  1555.05
                             1575.73  1585.30  1604.21  1619.06  1637.32
                             1666.66  1702.11  1742.97  1769.15  1797.71
                             1852.73  1879.34  1900.93  1913.88  1951.67
                             1961.76  1989.99  2006.49  2020.64  2053.40
                             2063.86  2068.51  2076.88  2079.93  2118.58
                             2172.44  2174.73  2181.97  2187.70  2189.19
                             2192.59  2196.20  2201.26  2211.27  2217.23
                             2245.29  2328.85  2358.27  2400.45  2416.11
                             2498.96  4370.06  4381.67  4394.25  4399.73
                             4403.38  4420.65  4451.53  4460.69  4474.60
                             4479.55  4495.02  4502.27  4512.84  4521.66
                             4539.69  4581.07  4599.31  4618.42  4628.01
                             5154.95  5326.09

 Zero-point correction=                           0.349877 (Hartree/Particle)
 Thermal correction to Energy=                    0.369935
 Thermal correction to Enthalpy=                  0.370879
 Thermal correction to Gibbs Free Energy=         0.299928
 Sum of electronic and zero-point Energies=           -861.563773
 Sum of electronic and thermal Energies=              -861.543715
 Sum of electronic and thermal Enthalpies=            -861.542771
 Sum of electronic and thermal Free Energies=         -861.613722

                     E (Thermal)             CV                S
                      KCal/Mol        Cal/Mol-Kelvin    Cal/Mol-Kelvin
 Total                  232.138             75.890            149.329
 Electronic               0.000              0.000              0.000
 Translational            0.889              2.981             42.692
 Rotational               0.889              2.981             33.946
 Vibrational            230.360             69.928             72.691
 Vibration     1          0.593              1.986              6.656
 Vibration     2          0.594              1.982              5.523
 Vibration     3          0.595              1.980              5.166
 Vibration     4          0.596              1.975              4.551
 Vibration     5          0.597              1.973              4.408
 Vibration     6          0.598              1.968              4.142
 Vibration     7          0.606              1.942              3.289
 Vibration     8          0.607              1.939              3.213
 Vibration     9          0.617              1.906              2.714
 Vibration    10          0.619              1.901              2.655
 Vibration    11          0.625              1.880              2.437
 Vibration    12          0.634              1.851              2.209
 Vibration    13          0.641              1.831              2.078
 Vibration    14          0.657              1.779              1.804
 Vibration    15          0.664              1.758              1.709
 Vibration    16          0.685              1.697              1.488
 Vibration    17          0.687              1.690              1.466
 Vibration    18          0.700              1.653              1.357
 Vibration    19          0.718              1.600              1.223
 Vibration    20          0.729              1.571              1.157
 Vibration    21          0.751              1.510              1.035
 Vibration    22          0.758              1.490              0.997
 Vibration    23          0.781              1.431              0.899
 Vibration    24          0.816              1.343              0.772
 Vibration    25          0.819              1.337              0.764
 Vibration    26          0.832              1.305              0.723
 Vibration    27          0.843              1.279              0.691
 Vibration    28          0.890              1.172              0.575
 Vibration    29          0.898              1.156              0.560
 Vibration    30          0.904              1.143              0.547
 Vibration    31          0.934              1.079              0.489
 Vibration    32          0.963              1.023              0.443

 Optimization completed.
    -- Stationary point found.
 Normal termination of Gaussian 16 at Mon Dec 14 14:10:11 2020.

 ----------------------------------------------------------------------
 # B3LYP/6-311++G(d,p) empiricaldispersion=gd3bj scf=xqc pop=npa geom=c
 heck
 ----------------------------------------------------------------------

 ----------------------------------------
 CID_147304814_JID_10398_Energie_neutraal
 ----------------------------------------
 Structure from the checkpoint file:  "JID_10398.chk"
 Charge =  0 Multiplicity = 1

 SCF Done:  E(RB3LYP) =  -862.147620493     A.U. after   16 cycles
 Normal termination of Gaussian 16 at Mon Dec 14 14:19:39 2020.

 ----------------------------------------------------------------------
 # B3LYP/6-311++G(d,p) empiricaldispersion=gd3bj scf=xqc pop=npa geom=c
 heck
 ----------------------------------------------------------------------

 --------------------------------------
 CID_147304814_JID_10398_Energie_kation
 --------------------------------------
 Structure from the checkpoint file:  "JID_10398.chk"
 Charge =  1 Multiplicity = 2

 SCF Done:  E(UB3LYP) =  -861.876345295     A.U. after   30 cycles
 Normal termination of Gaussian 16 at Mon Dec 14 14:43:15 2020.
 Gaussian 16:  ES64L-G16RevA.03 25-Dec-2016

 ----------------------------------------------------------------------
 # B3LYP/6-311++G(d,p) empiricaldispersion=gd3bj scf=xqc pop=npa geom=c
 heck
 ----------------------------------------------------------------------

 -------------------------------------
 CID_147304814_JID_10398_Energie_anion
 -------------------------------------
 Structure from the checkpoint file:  "JID_10398.chk"
 Charge = -1 Multiplicity = 2

                         Standard orientation:
 ---------------------------------------------------------------------
 Center     Atomic      Atomic             Coordinates (Angstroms)
 Number     Number       Type             X           Y           Z
 ---------------------------------------------------------------------
      1          6           0       -1.117009    2.495693    1.837457
      2          6           0       -1.575901    1.037170    1.660025
      3          6           0       -1.930615    0.749921    0.216652
      4          7           0       -1.146602    0.278891   -0.679230
      5          6           0        0.188426   -0.069143   -0.362491
      6          6           0        1.250928    0.728303   -0.728315
      7          6           0        2.577377    0.272741   -0.436230
      8          6           0        3.739553    1.025528   -0.734177
      9          6           0        4.995389    0.543401   -0.425220
     10          6           0        5.138805   -0.715582    0.196928
     11          6           0        4.025879   -1.470472    0.501364
     12          6           0        2.725995   -0.998794    0.196490
     13          7           0        1.660450   -1.783838    0.527714
     14          6           0        0.450609   -1.347845    0.253535
     15          7           0       -0.607311   -2.193006    0.536011
     16          6           0        1.020157    2.046533   -1.419146
     17          6           0       -3.367515    1.013383   -0.184061
     18          8           0       -4.217590    0.052885    0.438271
     19          6           0       -4.273392   -1.200870   -0.250607
     20          6           0       -5.275245   -1.179061   -1.398977
     21          1           0       -0.201216    2.683583    1.269326
     22          1           0       -0.914191    2.706478    2.892181
     23          1           0       -1.881545    3.201680    1.494438
     24          1           0       -0.779926    0.365728    1.995051
     25          1           0       -2.461344    0.843255    2.275151
     26          1           0        3.639144    1.997108   -1.207316
     27          1           0        5.876006    1.134461   -0.660048
     28          1           0        6.130785   -1.088848    0.436090
     29          1           0        4.106876   -2.441193    0.980090
     30          1           0       -0.355648   -2.958302    1.147947
     31          1           0       -1.507722   -1.776929    0.719243
     32          1           0        1.265429    2.892753   -0.764307
     33          1           0        1.651491    2.136485   -2.309706
     34          1           0       -0.022247    2.146265   -1.727064
     35          1           0       -3.699707    1.991434    0.181276
     36          1           0       -3.449538    0.992696   -1.276490
     37          1           0       -3.277213   -1.485825   -0.616339
     38          1           0       -4.577418   -1.932042    0.505941
     39          1           0       -4.982135   -0.460723   -2.172024
     40          1           0       -5.336735   -2.167425   -1.868608
     41          1           0       -6.268841   -0.903483   -1.031819
 ---------------------------------------------------------------------

 SCF Done:  E(UB3LYP) =  -862.146701462     A.U. after   33 cycles
 SCF Done:  E(UB3LYP) =  -862.146701462     a.u. after    1 cycles

 The electronic state is 2-A.
 Alpha  occ. eigenvalues --  -19.02586 -14.19979 -14.17933 -14.15562 -10.12121
 Alpha  occ. eigenvalues --  -10.11100 -10.10778 -10.08824 -10.07188 -10.07020
 Alpha  occ. eigenvalues --  -10.06653 -10.06631 -10.06455 -10.04702 -10.04579
 Alpha  occ. eigenvalues --  -10.04267 -10.04247 -10.04106 -10.03707 -10.03142
 Alpha  occ. eigenvalues --   -0.93557  -0.84035  -0.80283  -0.76618  -0.70877
 Alpha  occ. eigenvalues --   -0.68962  -0.66824  -0.66166  -0.61652  -0.60850
 Alpha  occ. eigenvalues --   -0.59437  -0.57682  -0.53931  -0.51722  -0.49793
 Alpha  occ. eigenvalues --   -0.49425  -0.45608  -0.43208  -0.42459  -0.40288
 Alpha  occ. eigenvalues --   -0.39426  -0.39144  -0.37095  -0.36324  -0.36292
 Alpha  occ. eigenvalues --   -0.34124  -0.33241  -0.32741  -0.31825  -0.30954
 Alpha  occ. eigenvalues --   -0.30535  -0.30425  -0.30055  -0.29100  -0.28986
 Alpha  occ. eigenvalues --   -0.27819  -0.27127  -0.26434  -0.26223  -0.25972
 Alpha  occ. eigenvalues --   -0.24390  -0.23396  -0.22969  -0.22170  -0.21878
 Alpha  occ. eigenvalues --   -0.19163  -0.18842  -0.16997  -0.16107  -0.14363
 Alpha  occ. eigenvalues --   -0.12564  -0.09269  -0.08495   0.04557
 Alpha virt. eigenvalues --    0.06219   0.07337   0.08187   0.08330   0.08376
 Alpha virt. eigenvalues --    0.09225   0.09563   0.09800   0.10316   0.10631
 Alpha virt. eigenvalues --    0.11309   0.11727   0.11963   0.12639   0.12716

  Beta  occ. eigenvalues --  -19.02547 -14.19958 -14.17725 -14.15398 -10.12113
  Beta  occ. eigenvalues --  -10.11107 -10.10718 -10.08595 -10.07168 -10.07048
  Beta  occ. eigenvalues --  -10.06663 -10.06605 -10.06353 -10.04720 -10.04628
  Beta  occ. eigenvalues --  -10.04245 -10.04039 -10.04012 -10.03541 -10.03011
  Beta  occ. eigenvalues --   -0.93475  -0.83791  -0.79886  -0.76494  -0.70658
  Beta  occ. eigenvalues --   -0.68671  -0.66651  -0.66076  -0.61439  -0.60617
  Beta  occ. eigenvalues --   -0.59338  -0.57519  -0.53790  -0.51610  -0.49635
  Beta  occ. eigenvalues --   -0.49210  -0.45401  -0.42957  -0.42329  -0.40189
  Beta  occ. eigenvalues --   -0.39318  -0.39015  -0.36957  -0.36192  -0.36147
  Beta  occ. eigenvalues --   -0.34033  -0.33092  -0.32654  -0.31719  -0.30670
  Beta  occ. eigenvalues --   -0.30458  -0.30261  -0.29942  -0.28976  -0.28858
  Beta  occ. eigenvalues --   -0.27570  -0.26936  -0.26341  -0.26095  -0.25915
  Beta  occ. eigenvalues --   -0.24330  -0.22970  -0.22853  -0.22030  -0.21818
  Beta  occ. eigenvalues --   -0.18580  -0.18073  -0.16559  -0.15700  -0.13848
  Beta  occ. eigenvalues --   -0.12260  -0.08332  -0.07840
  Beta virt. eigenvalues --    0.06424   0.07388   0.08118   0.08306   0.08973
  Beta virt. eigenvalues --    0.09023   0.09231   0.09614   0.10304   0.10503
  Beta virt. eigenvalues --    0.10776   0.11234   0.11773   0.12164   0.12621

 Mulliken charges and spin densities:
               1          2
     1  C   -0.547097  -0.103703
     2  C   -0.109073   0.033056
     3  C    0.007563   0.110872
     4  N    0.165845   0.085203
     5  C   -0.446644   0.065997
     6  C    0.546429   0.139846
     7  C    0.535714  -0.033845
     8  C   -0.613368   0.120247
     9  C   -0.499359   0.009961
    10  C   -0.283850   0.069153
    11  C   -0.520259   0.080371
    12  C   -0.273691  -0.014284
    13  N   -0.064333   0.083418
    14  C    0.121722   0.052820
    15  N   -0.308249   0.013231
    16  C   -0.439285   0.002649
    17  C   -0.509581  -0.032753
    18  O   -0.011262  -0.004711
    19  C   -0.472819   0.267162
    20  C    0.273049  -0.720967
    21  H    0.158109  -0.002825
    22  H    0.051415   0.089001
    23  H    0.108591   0.003526
    24  H    0.185701   0.009819
    25  H    0.180957   0.003647
    26  H    0.099677  -0.010588
    27  H    0.114619   0.000224
    28  H    0.109828  -0.004241
    29  H    0.129459  -0.008111
    30  H    0.253467   0.000666
    31  H    0.265096  -0.006696
    32  H    0.153138   0.017828
    33  H    0.115579   0.011565
    34  H    0.162256   0.007835
    35  H    0.082370   0.074943
    36  H    0.164524  -0.020674
    37  H    0.213432  -0.040684
    38  H    0.049141   0.089069
    39  H   -0.032228   0.174362
    40  H   -0.070584   0.195923
    41  H   -0.045997   0.191690
 Sum of Mulliken charges =  -1.00000   1.00000

 Dipole moment (field-independent basis, Debye):
    X=             -2.1511    Y=              2.0391    Z=              1.4433  Tot=              3.2967
 Quadrupole moment (field-independent basis, Debye-Ang):
   XX=           -199.3078   YY=           -138.8082   ZZ=           -139.6358
   XY=              2.9022   XZ=             -4.3986   YZ=             -4.8391

 Summary of Natural Population Analysis:

                                       Natural Population
                Natural  -----------------------------------------------
    Atom  No    Charge         Core      Valence    Rydberg      Total
 -----------------------------------------------------------------------
      C    1   -0.27678      0.99966     2.27310    0.00402     3.27678
      C    2   -0.22991      0.99959     2.22158    0.00874     3.22991
      C    3    0.16630      0.99956     1.81520    0.01893     2.83370
      N    4   -0.22275      0.99964     2.70528    0.01783     3.72275
      C    5    0.11382      0.99936     1.87311    0.01371     2.88618
      C    6   -0.00325      0.99956     1.98514    0.01855     3.00325
      C    7    0.00243      0.99946     1.98803    0.01008     2.99757
      C    8   -0.08834      0.99960     2.07448    0.01425     3.08834
      C    9   -0.11896      0.99958     2.10971    0.00967     3.11896
      C   10   -0.10201      0.99957     2.09245    0.00999     3.10201
      C   11   -0.08216      0.99954     2.07290    0.00973     3.08216
      C   12    0.06379      0.99954     1.92001    0.01666     2.93621
      N   13   -0.25498      0.99964     2.74211    0.01323     3.75498
      C   14    0.18937      0.99958     1.79162    0.01944     2.81063
      N   15   -0.39637      0.99971     2.88772    0.00894     3.89637
      C   16   -0.30071      0.99965     2.29605    0.00502     3.30071
      C   17   -0.03327      0.99952     2.01818    0.01558     3.03327
      O   18   -0.30111      0.99989     3.29189    0.00932     4.30111
      C   19   -0.01836      0.99959     2.00564    0.01314     3.01836
      C   20   -0.29780      0.99967     2.29369    0.00445     3.29780
      H   21    0.10257      0.00000     0.39626    0.00117     0.39743
      H   22    0.09423      0.00000     0.40436    0.00141     0.40577
      H   23    0.09143      0.00000     0.40766    0.00091     0.40857
      H   24    0.10795      0.00000     0.39049    0.00155     0.39205
      H   25    0.10297      0.00000     0.39587    0.00116     0.39703
      H   26    0.09222      0.00000     0.40616    0.00162     0.40778
      H   27    0.09006      0.00000     0.40884    0.00109     0.40994
      H   28    0.08967      0.00000     0.40925    0.00108     0.41033
      H   29    0.09569      0.00000     0.40283    0.00148     0.40431
      H   30    0.18693      0.00000     0.31147    0.00160     0.31307
      H   31    0.18747      0.00000     0.31061    0.00193     0.31253
      H   32    0.09997      0.00000     0.39885    0.00118     0.40003
      H   33    0.10045      0.00000     0.39825    0.00130     0.39955
      H   34    0.10892      0.00000     0.39005    0.00103     0.39108
      H   35    0.08891      0.00000     0.41007    0.00102     0.41109
      H   36    0.08885      0.00000     0.40949    0.00166     0.41115
      H   37    0.08959      0.00000     0.40853    0.00189     0.41041
      H   38    0.08369      0.00000     0.41518    0.00112     0.41631
      H   39    0.09850      0.00000     0.40029    0.00121     0.40150
      H   40    0.09852      0.00000     0.40024    0.00124     0.40148
      H   41    0.09734      0.00000     0.40104    0.00162     0.40266
 =======================================================================
   * Total *    0.00488     19.99190    52.73369    0.26954    72.99512

 Normal termination of Gaussian 16 at Mon Dec 14 15:09:59 2020.
