 Gaussian 16, Revision A.03,

 -----------------------------------------------------------
 # opt freq B3LYP/6-31G(d) empiricaldispersion=gd3bj scf=xqc
 -----------------------------------------------------------

 -------------------------------
 CID_150204006_JID_5466_neutraal
 -------------------------------
 Symbolic Z-matrix:
 Charge =  0 Multiplicity = 1

 SCF Done:  E(RB3LYP) =  -701.081956732     A.U. after   18 cycles
 SCF Done:  E(RB3LYP) =  -701.085611217     A.U. after   14 cycles
 SCF Done:  E(RB3LYP) =  -701.078035379     A.U. after   16 cycles
 SCF Done:  E(RB3LYP) =  -701.088389749     A.U. after   15 cycles
 SCF Done:  E(RB3LYP) =  -701.089204901     A.U. after   16 cycles
 SCF Done:  E(RB3LYP) =  -701.089395207     A.U. after   14 cycles
 SCF Done:  E(RB3LYP) =  -701.089445574     A.U. after   13 cycles
 SCF Done:  E(RB3LYP) =  -701.089476119     A.U. after   12 cycles
 SCF Done:  E(RB3LYP) =  -701.089488364     A.U. after   12 cycles
 SCF Done:  E(RB3LYP) =  -701.089491350     A.U. after   11 cycles
 SCF Done:  E(RB3LYP) =  -701.089491520     A.U. after    9 cycles
 SCF Done:  E(RB3LYP) =  -701.089491575     A.U. after    8 cycles
 Optimization completed.
    -- Stationary point found.
 Normal termination of Gaussian 16 at Thu Dec 10 16:14:15 2020.

 --------------------------------------------------------------------
 #N Geom=AllCheck Guess=TCheck SCRF=Check GenChk RB3LYP/6-31G(d) Freq
 --------------------------------------------------------------------

 Structure from the checkpoint file:  "JID_5466.chk"
 -------------------------------
 CID_150204006_JID_5466_neutraal
 -------------------------------
 Charge =  0 Multiplicity = 1

 SCF Done:  E(RB3LYP) =  -701.089491575     A.U. after    1 cycles

  Exact polarizability: 232.644  -5.622 134.073  -7.064  -3.336  59.837
 Approx polarizability: 364.194  -4.923 223.852 -23.000 -10.017  95.944

                      1                      2                      3
                      A                      A                      A
 Frequencies --     35.4670                54.0753                73.6022
 Red. masses --      6.2187                 7.0649                 3.7346
 Frc consts  --      0.0046                 0.0122                 0.0119
 IR Inten    --      1.5595                 1.0307                 0.5262

                      4                      5                      6
                      A                      A                      A
 Frequencies --     78.2995               116.3978               130.5001
 Red. masses --      4.6932                 3.6444                 7.6984
 Frc consts  --      0.0170                 0.0291                 0.0772
 IR Inten    --      1.2456                 6.9500                 7.2815

                      7                      8                      9
                      A                      A                      A
 Frequencies --    144.8838               179.5790               271.0585
 Red. masses --      5.6331                 3.7043                 3.4579
 Frc consts  --      0.0697                 0.0704                 0.1497
 IR Inten    --      4.1213                 7.8614                10.0956

                     10                     11                     12
                      A                      A                      A
 Frequencies --    281.3002               308.5556               330.8172
 Red. masses --      1.8335                 7.6809                 2.0239
 Frc consts  --      0.0855                 0.4309                 0.1305
 IR Inten    --     27.9779                 1.8935                28.1013

                     13                     14                     15
                      A                      A                      A
 Frequencies --    341.6172               389.1101               424.7776
 Red. masses --      3.2235                 8.8406                 4.0885
 Frc consts  --      0.2216                 0.7886                 0.4346
 IR Inten    --      8.5969                 3.1904                 4.6166

                     16                     17                     18
                      A                      A                      A
 Frequencies --    468.2938               479.3134               506.9754
 Red. masses --      4.3607                 5.8804                 4.9721
 Frc consts  --      0.5634                 0.7960                 0.7530
 IR Inten    --      7.0891                 1.1775                14.7214

                     19                     20                     21
                      A                      A                      A
 Frequencies --    546.2986               595.8717               640.7483
 Red. masses --      7.7288                 4.3655                 5.4216
 Frc consts  --      1.3590                 0.9132                 1.3114
 IR Inten    --      0.7649                13.9811                 0.8133

                     22                     23                     24
                      A                      A                      A
 Frequencies --    695.8172               709.6677               775.2610
 Red. masses --      7.3998                 4.0686                 5.7194
 Frc consts  --      2.1109                 1.2073                 2.0253
 IR Inten    --      3.2298                 0.3979                10.1325

                     25                     26                     27
                      A                      A                      A
 Frequencies --    783.9843               831.2325               843.6901
 Red. masses --      6.6434                 1.5876                 4.8862
 Frc consts  --      2.4058                 0.6463                 2.0492
 IR Inten    --     24.6091                34.4631                 2.8972

                     28                     29                     30
                      A                      A                      A
 Frequencies --    864.2999               887.9887               935.0085
 Red. masses --      1.3647                 1.6370                 2.3194
 Frc consts  --      0.6006                 0.7605                 1.1947
 IR Inten    --     80.5229                66.0583                12.7458

                     31                     32                     33
                      A                      A                      A
 Frequencies --    939.9319               948.1241               988.5966
 Red. masses --      1.5058                 2.9500                 1.3247
 Frc consts  --      0.7838                 1.5625                 0.7628
 IR Inten    --      9.3746                 2.7289                 0.5661

                     34                     35                     36
                      A                      A                      A
 Frequencies --   1007.1416              1056.6910              1101.0952
 Red. masses --      1.1051                 3.5421                 2.7331
 Frc consts  --      0.6604                 2.3303                 1.9523
 IR Inten    --     26.3712                 6.2845                 8.9785

                     37                     38                     39
                      A                      A                      A
 Frequencies --   1147.4282              1174.4125              1184.4772
 Red. masses --      2.2505                 1.2771                 1.4213
 Frc consts  --      1.7457                 1.0378                 1.1749
 IR Inten    --     18.2096                 1.3373                18.5322

                     40                     41                     42
                      A                      A                      A
 Frequencies --   1231.5427              1255.7218              1292.0845
 Red. masses --      1.8929                 3.6086                 1.5101
 Frc consts  --      1.6915                 3.3525                 1.4854
 IR Inten    --      6.8723                 9.3920                 6.1757

                     43                     44                     45
                      A                      A                      A
 Frequencies --   1314.9853              1339.3144              1346.0619
 Red. masses --      1.5287                 1.8056                 1.7845
 Frc consts  --      1.5575                 1.9083                 1.9051
 IR Inten    --      3.0710                27.8684                 1.1342

                     46                     47                     48
                      A                      A                      A
 Frequencies --   1374.9126              1398.4400              1435.3984
 Red. masses --      1.6443                 6.8564                 1.4825
 Frc consts  --      1.8313                 7.9002                 1.7996
 IR Inten    --     16.9298               225.5367                48.5894

                     49                     50                     51
                      A                      A                      A
 Frequencies --   1449.3196              1525.0378              1535.3949
 Red. masses --      3.4932                 1.0906                 2.8813
 Frc consts  --      4.3231                 1.4944                 4.0020
 IR Inten    --     11.3484                 0.8945                23.8713

                     52                     53                     54
                      A                      A                      A
 Frequencies --   1587.5194              1633.8910              1675.2427
 Red. masses --      6.4712                10.3523                 7.1300
 Frc consts  --      9.6088                16.2830                11.7896
 IR Inten    --      5.8322               143.0614               146.3363

                     55                     56                     57
                      A                      A                      A
 Frequencies --   1695.0494              1722.6432              2354.9665
 Red. masses --      1.1383                 4.7690                12.6773
 Frc consts  --      1.9270                 8.3381                41.4234
 IR Inten    --     20.3249                28.1397                32.8329

                     58                     59                     60
                      A                      A                      A
 Frequencies --   2978.4997              3048.4657              3177.9723
 Red. masses --      1.0698                 1.0911                 1.0898
 Frc consts  --      5.5917                 5.9741                 6.4847
 IR Inten    --     59.1644                25.6437                 8.3267

                     61                     62                     63
                      A                      A                      A
 Frequencies --   3218.4001              3219.0624              3233.0028
 Red. masses --      1.0882                 1.0887                 1.0949
 Frc consts  --      6.6411                 6.6470                 6.7429
 IR Inten    --      1.5267                 4.2979                 2.4826

                     64                     65                     66
                      A                      A                      A
 Frequencies --   3261.3153              3472.4089              3560.4810
 Red. masses --      1.0920                 1.0496                 1.0931
 Frc consts  --      6.8431                 7.4567                 8.1642
 IR Inten    --      5.4406                 4.6052                 0.2019

 - Thermochemistry -
 -------------------
 Temperature   298.150 Kelvin.  Pressure   1.00000 Atm.
 Atom     1 has atomic number  6 and mass  12.00000

 Molecular mass:   203.06948 amu.
 Principal axes and moments of inertia in atomic units:
                           1         2         3
     Eigenvalues --  1931.442545386.537557218.92036
           X            0.99988   0.01544   0.00159
           Y           -0.01544   0.99988   0.00061
           Z           -0.00158  -0.00063   1.00000
 This molecule is an asymmetric top.
 Rotational symmetry number  1.
 Warning -- assumption of classical behavior for rotation
           may cause significant error
 Rotational temperatures (Kelvin)      0.04484     0.01608     0.01200
 Rotational constants (GHZ):           0.93440     0.33505     0.25000
 Zero-point vibrational energy     476170.7 (Joules/Mol)
                                  113.80753 (Kcal/Mol)
 Warning -- explicit consideration of  20 degrees of freedom as
           vibrations may cause significant error
 Vibrational temperatures:     51.03    77.80   105.90   112.66   167.47
          (Kelvin)            187.76   208.46   258.37   389.99   404.73
                              443.94   475.97   491.51   559.84   611.16
                              673.77   689.63   729.42   786.00   857.33
                              921.89  1001.13  1021.05  1115.43  1127.98
                             1195.96  1213.88  1243.53  1277.62  1345.27
                             1352.35  1364.14  1422.37  1449.05  1520.34
                             1584.23  1650.89  1689.72  1704.20  1771.92
                             1806.70  1859.02  1891.97  1926.97  1936.68
                             1978.19  2012.04  2065.22  2085.25  2194.19
                             2209.09  2284.09  2350.80  2410.30  2438.80
                             2478.50  3388.27  4285.40  4386.06  4572.39
                             4630.56  4631.51  4651.57  4692.31  4996.02
                             5122.74

 Zero-point correction=                           0.181364 (Hartree/Particle)
 Thermal correction to Energy=                    0.195041
 Thermal correction to Enthalpy=                  0.195985
 Thermal correction to Gibbs Free Energy=         0.139456
 Sum of electronic and zero-point Energies=           -700.908128
 Sum of electronic and thermal Energies=              -700.894451
 Sum of electronic and thermal Enthalpies=            -700.893506
 Sum of electronic and thermal Free Energies=         -700.950035

                     E (Thermal)             CV                S
                      KCal/Mol        Cal/Mol-Kelvin    Cal/Mol-Kelvin
 Total                  122.390             49.984            118.975
 Electronic               0.000              0.000              0.000
 Translational            0.889              2.981             41.830
 Rotational               0.889              2.981             32.685
 Vibrational            120.613             44.022             44.461
 Vibration     1          0.594              1.982              5.497
 Vibration     2          0.596              1.976              4.662
 Vibration     3          0.599              1.966              4.055
 Vibration     4          0.600              1.964              3.933
 Vibration     5          0.608              1.936              3.159
 Vibration     6          0.612              1.923              2.939
 Vibration     7          0.616              1.908              2.738
 Vibration     8          0.629              1.867              2.333
 Vibration     9          0.675              1.727              1.589
 Vibration    10          0.681              1.708              1.526
 Vibration    11          0.698              1.657              1.370
 Vibration    12          0.713              1.614              1.256
 Vibration    13          0.721              1.592              1.205
 Vibration    14          0.757              1.493              1.004
 Vibration    15          0.787              1.416              0.876
 Vibration    16          0.825              1.320              0.742
 Vibration    17          0.836              1.296              0.712
 Vibration    18          0.862              1.235              0.641
 Vibration    19          0.901              1.148              0.552
 Vibration    20          0.954              1.041              0.457

                           ! Non-Optimized Parameters !
 Normal termination of Gaussian 16 at Thu Dec 10 16:20:49 2020.

 ----------------------------------------------------------------------
 # B3LYP/6-311++G(d,p) empiricaldispersion=gd3bj scf=xqc pop=npa geom=c
 heck
 ----------------------------------------------------------------------

 ---------------------------------------
 CID_150204006_JID_5466_Energie_neutraal
 ---------------------------------------
 Structure from the checkpoint file:  "JID_5466.chk"
 Charge =  0 Multiplicity = 1

 SCF Done:  E(RB3LYP) =  -701.291203224     A.U. after   18 cycles
 Normal termination of Gaussian 16 at Thu Dec 10 16:25:19 2020.

 ----------------------------------------------------------------------
 # B3LYP/6-311++G(d,p) empiricaldispersion=gd3bj scf=xqc pop=npa geom=c
 heck
 ----------------------------------------------------------------------

 -------------------------------------
 CID_150204006_JID_5466_Energie_kation
 -------------------------------------
 Structure from the checkpoint file:  "JID_5466.chk"
 Charge =  1 Multiplicity = 2

 SCF Done:  E(UB3LYP) =  -700.965550625     A.U. after   29 cycles
 Normal termination of Gaussian 16 at Thu Dec 10 16:33:38 2020.
 Gaussian 16:  ES64L-G16RevA.03 25-Dec-2016

 ----------------------------------------------------------------------
 # B3LYP/6-311++G(d,p) empiricaldispersion=gd3bj scf=xqc pop=npa geom=c
 heck
 ----------------------------------------------------------------------

 ------------------------------------
 CID_150204006_JID_5466_Energie_anion
 ------------------------------------
 Structure from the checkpoint file:  "JID_5466.chk"
 Charge = -1 Multiplicity = 2

                         Standard orientation:
 ---------------------------------------------------------------------
 Center     Atomic      Atomic             Coordinates (Angstroms)
 Number     Number       Type             X           Y           Z
 ---------------------------------------------------------------------
      1          6           0        1.442295   -1.894545   -0.011745
      2          6           0        0.110068   -1.521659   -0.062520
      3          6           0       -0.299135   -0.171948   -0.060730
      4          6           0        0.738498    0.784938   -0.038012
      5          6           0        2.085340    0.436115   -0.016012
      6          6           0        2.448031   -0.911736    0.009866
      7          6           0        3.828566   -1.287214    0.049717
      8          7           0        4.947303   -1.602671    0.083013
      9          7           0        0.457506    2.231717   -0.006248
     10          8           0       -0.636845    2.602510    0.417204
     11          8           0        1.348784    2.987877   -0.389432
     12          6           0       -1.728539    0.153987   -0.146780
     13          6           0       -2.702348   -0.619756    0.353325
     14          6           0       -4.164660   -0.304635    0.241073
     15          7           0       -4.874623   -1.466691   -0.307606
     16          1           0        1.718261   -2.943516   -0.007903
     17          1           0       -0.652380   -2.288934   -0.132876
     18          1           0        2.833965    1.217185   -0.009952
     19          1           0       -1.995875    1.089163   -0.625650
     20          1           0       -2.471319   -1.537789    0.890715
     21          1           0       -4.565730   -0.126227    1.248550
     22          1           0       -4.299021    0.633332   -0.324467
     23          1           0       -5.879920   -1.313003   -0.259646
     24          1           0       -4.643491   -1.571073   -1.294141
 ---------------------------------------------------------------------

 SCF Done:  E(UB3LYP) =  -701.349393570     A.U. after   27 cycles

 The electronic state is 2-A.
 Alpha  occ. eigenvalues --  -18.97842 -18.97709 -14.36119 -14.21127 -14.19603
 Alpha  occ. eigenvalues --  -10.10223 -10.09760 -10.08975 -10.08936 -10.07423
 Alpha  occ. eigenvalues --  -10.06715 -10.06514 -10.06265 -10.05857 -10.05310
 Alpha  occ. eigenvalues --   -1.05868  -0.88690  -0.79893  -0.79637  -0.75986
 Alpha  occ. eigenvalues --   -0.69246  -0.66800  -0.64313  -0.57978  -0.55364
 Alpha  occ. eigenvalues --   -0.51861  -0.48200  -0.44998  -0.42067  -0.40790
 Alpha  occ. eigenvalues --   -0.38587  -0.38331  -0.36874  -0.36489  -0.34956
 Alpha  occ. eigenvalues --   -0.33554  -0.32492  -0.31458  -0.29363  -0.28430
 Alpha  occ. eigenvalues --   -0.27721  -0.25947  -0.24919  -0.23934  -0.23752
 Alpha  occ. eigenvalues --   -0.22291  -0.18327  -0.16434  -0.16386  -0.15763
 Alpha  occ. eigenvalues --   -0.14889  -0.12817  -0.12309   0.00243
 Alpha virt. eigenvalues --    0.05408   0.06382   0.08811   0.09227   0.10098
 Alpha virt. eigenvalues --    0.10811   0.10966   0.11659   0.12472   0.13072
 Alpha virt. eigenvalues --    0.13299   0.13945   0.14089   0.14956   0.15778

  Beta  occ. eigenvalues --  -18.97453 -18.97319 -14.35678 -14.21103 -14.19550
  Beta  occ. eigenvalues --  -10.10237 -10.09759 -10.08940 -10.08836 -10.07435
  Beta  occ. eigenvalues --  -10.06635 -10.06361 -10.05972 -10.05925 -10.05111
  Beta  occ. eigenvalues --   -1.05076  -0.87963  -0.79834  -0.79544  -0.75671
  Beta  occ. eigenvalues --   -0.68918  -0.66292  -0.64082  -0.57641  -0.54853
  Beta  occ. eigenvalues --   -0.51564  -0.47967  -0.44820  -0.41582  -0.40703
  Beta  occ. eigenvalues --   -0.38347  -0.37410  -0.36421  -0.35341  -0.34511
  Beta  occ. eigenvalues --   -0.33174  -0.32411  -0.31321  -0.29139  -0.27902
  Beta  occ. eigenvalues --   -0.27571  -0.25828  -0.24794  -0.23753  -0.23141
  Beta  occ. eigenvalues --   -0.22234  -0.17655  -0.16336  -0.15010  -0.14467
  Beta  occ. eigenvalues --   -0.13673  -0.12276  -0.11360
  Beta virt. eigenvalues --    0.05376   0.06651   0.07275   0.08788   0.09212
  Beta virt. eigenvalues --    0.10091   0.10835   0.11657   0.12140   0.13067
  Beta virt. eigenvalues --    0.13181   0.13484   0.14021   0.14230   0.15003

 Mulliken charges and spin densities:
               1          2
     1  C   -1.173883   0.250392
     2  C   -0.794211  -0.101719
     3  C    2.274773   0.250499
     4  C   -1.056570   0.044292
     5  C   -0.612550   0.000805
     6  C    1.910872   0.030749
     7  C   -1.450778  -0.009890
     8  N   -0.254547   0.027859
     9  N   -0.187382   0.149957
    10  O   -0.148893   0.141273
    11  O   -0.136038   0.142033
    12  C    0.124659  -0.067733
    13  C    0.031784   0.146428
    14  C   -0.643075  -0.028522
    15  N   -0.330232  -0.006350
    16  H    0.150152  -0.017872
    17  H    0.095124   0.009744
    18  H    0.233981   0.002473
    19  H    0.182354   0.003292
    20  H    0.128604  -0.010265
    21  H    0.127378   0.014519
    22  H    0.140180   0.003102
    23  H    0.195458   0.016294
    24  H    0.192842   0.008641
 Sum of Mulliken charges =  -1.00000   1.00000

 Dipole moment (field-independent basis, Debye):
    X=             -6.9821    Y=             -3.5375    Z=             -0.8917  Tot=              7.8777
 Quadrupole moment (field-independent basis, Debye-Ang):
   XX=           -138.9105   YY=           -125.4080   ZZ=            -92.4609
   XY=              4.9129   XZ=              4.6926   YZ=              0.9770

 Summary of Natural Population Analysis:

                                       Natural Population
                Natural  -----------------------------------------------
    Atom  No    Charge         Core      Valence    Rydberg      Total
 -----------------------------------------------------------------------
      C    1   -0.01971      0.99955     2.01218    0.00798     3.01971
      C    2   -0.12049      0.99955     2.11297    0.00798     3.12049
      C    3    0.04304      0.99947     1.94811    0.00938     2.95696
      C    4    0.06311      0.99937     1.92665    0.01087     2.93689
      C    5   -0.07100      0.99950     2.06298    0.00852     3.07100
      C    6   -0.10465      0.99942     2.09572    0.00951     3.10465
      C    7    0.15956      0.99963     1.82298    0.01782     2.84044
      N    8   -0.19378      0.99979     2.68287    0.01112     3.69378
      N    9    0.28375      0.99972     2.18672    0.02981     3.21625
      O   10   -0.18639      0.99990     3.17862    0.00787     4.18639
      O   11   -0.19253      0.99990     3.18504    0.00760     4.19253
      C   12   -0.10690      0.99950     2.09749    0.00991     3.10690
      C   13   -0.05196      0.99953     2.04316    0.00927     3.05196
      C   14   -0.10410      0.99963     2.09462    0.00985     3.10410
      N   15   -0.41938      0.99977     2.90962    0.00999     3.91938
      H   16    0.09588      0.00000     0.40320    0.00091     0.40412
      H   17    0.09971      0.00000     0.39882    0.00146     0.40029
      H   18    0.11958      0.00000     0.37919    0.00123     0.38042
      H   19    0.10846      0.00000     0.38997    0.00157     0.39154
      H   20    0.08863      0.00000     0.41002    0.00135     0.41137
      H   21    0.09041      0.00000     0.40819    0.00140     0.40959
      H   22    0.07971      0.00000     0.41864    0.00165     0.42029
      H   23    0.16822      0.00000     0.33001    0.00178     0.33178
      H   24    0.17082      0.00000     0.32738    0.00179     0.32918
 =======================================================================
   * Total *   -0.00000     14.99422    37.82516    0.18062    53.00000

 Normal termination of Gaussian 16 at Thu Dec 10 16:41:03 2020.
