 Gaussian 16, Revision A.03,

 -----------------------------------------------------------
 # opt freq B3LYP/6-31G(d) empiricaldispersion=gd3bj scf=xqc
 -----------------------------------------------------------

 -------------------------------
 CID_106581806_JID_6728_neutraal
 -------------------------------
 Symbolic Z-matrix:
 Charge =  0 Multiplicity = 1

 SCF Done:  E(RB3LYP) =  -1068.26729128     A.U. after   15 cycles
 SCF Done:  E(RB3LYP) =  -1068.27419300     A.U. after   13 cycles
 SCF Done:  E(RB3LYP) =  -1068.27638003     A.U. after   13 cycles
 SCF Done:  E(RB3LYP) =  -1068.27788502     A.U. after   12 cycles
 SCF Done:  E(RB3LYP) =  -1068.27849315     A.U. after   13 cycles
 SCF Done:  E(RB3LYP) =  -1068.27866799     A.U. after   12 cycles
 SCF Done:  E(RB3LYP) =  -1068.27872645     A.U. after   11 cycles
 SCF Done:  E(RB3LYP) =  -1068.27879757     A.U. after   11 cycles
 SCF Done:  E(RB3LYP) =  -1068.27884135     A.U. after   10 cycles
 SCF Done:  E(RB3LYP) =  -1068.27888717     A.U. after   10 cycles
 SCF Done:  E(RB3LYP) =  -1068.27889840     A.U. after    9 cycles
 SCF Done:  E(RB3LYP) =  -1068.27890996     A.U. after    9 cycles
 SCF Done:  E(RB3LYP) =  -1068.27891214     A.U. after    9 cycles
 SCF Done:  E(RB3LYP) =  -1068.27891381     A.U. after    8 cycles
 SCF Done:  E(RB3LYP) =  -1068.27891456     A.U. after    8 cycles
 Optimization completed.
    -- Stationary point found.
 Normal termination of Gaussian 16 at Thu Dec 10 23:23:00 2020.

 --------------------------------------------------------------------
 #N Geom=AllCheck Guess=TCheck SCRF=Check GenChk RB3LYP/6-31G(d) Freq
 --------------------------------------------------------------------

 Structure from the checkpoint file:  "JID_6728.chk"
 -------------------------------
 CID_106581806_JID_6728_neutraal
 -------------------------------
 Charge =  0 Multiplicity = 1

 SCF Done:  E(RB3LYP) =  -1068.27891456     A.U. after    1 cycles

  Exact polarizability: 158.794 -16.762 167.567  11.139   0.355 129.137
 Approx polarizability: 224.806 -34.461 253.315  25.978   6.113 198.417

                      1                      2                      3
                      A                      A                      A
 Frequencies --     24.3565                30.4173                41.2082
 Red. masses --      4.0200                 5.2141                 4.2740
 Frc consts  --      0.0014                 0.0028                 0.0043
 IR Inten    --      1.4098                 1.7107                 1.5347

                      4                      5                      6
                      A                      A                      A
 Frequencies --     57.8888                90.2792               103.9693
 Red. masses --      3.4138                 3.5455                 2.9557
 Frc consts  --      0.0067                 0.0170                 0.0188
 IR Inten    --      2.5989                 1.7387                 0.4287

                      7                      8                      9
                      A                      A                      A
 Frequencies --    122.0478               127.6496               139.6488
 Red. masses --      1.6388                 1.5528                 2.4402
 Frc consts  --      0.0144                 0.0149                 0.0280
 IR Inten    --      0.6930                 0.1373                 2.8255

                     10                     11                     12
                      A                      A                      A
 Frequencies --    169.4885               190.6533               207.9520
 Red. masses --      2.3783                 3.1079                 2.2840
 Frc consts  --      0.0403                 0.0666                 0.0582
 IR Inten    --      5.1695                 2.6260                 4.3250

                     13                     14                     15
                      A                      A                      A
 Frequencies --    230.0114               240.8523               252.5339
 Red. masses --      3.0305                 2.7396                 2.3540
 Frc consts  --      0.0945                 0.0936                 0.0884
 IR Inten    --     11.1003                 1.4640                 1.4230

                     16                     17                     18
                      A                      A                      A
 Frequencies --    291.4880               310.1361               335.8356
 Red. masses --      2.3211                 2.7249                 3.2441
 Frc consts  --      0.1162                 0.1544                 0.2156
 IR Inten    --      7.8312                 3.9427                14.1355

                     19                     20                     21
                      A                      A                      A
 Frequencies --    354.4178               363.8277               398.5203
 Red. masses --      3.5119                 3.2431                 2.2446
 Frc consts  --      0.2599                 0.2529                 0.2100
 IR Inten    --      1.2307                 3.2186                 2.1100

                     22                     23                     24
                      A                      A                      A
 Frequencies --    402.3966               519.7064               530.0460
 Red. masses --      2.8880                 2.8339                 1.7877
 Frc consts  --      0.2755                 0.4510                 0.2959
 IR Inten    --      0.4123                 1.1227                48.0057

                     25                     26                     27
                      A                      A                      A
 Frequencies --    575.2810               584.9815               598.2515
 Red. masses --      3.4407                 2.6892                 2.4303
 Frc consts  --      0.6709                 0.5422                 0.5125
 IR Inten    --     25.1158                 4.5610                 3.5440

                     28                     29                     30
                      A                      A                      A
 Frequencies --    638.3178               665.6225               671.3252
 Red. masses --      3.2369                 4.0957                 1.6326
 Frc consts  --      0.7771                 1.0691                 0.4335
 IR Inten    --      3.5506                12.3470                17.7232

                     31                     32                     33
                      A                      A                      A
 Frequencies --    675.8888               735.0897               747.0039
 Red. masses --      2.0157                 6.1379                 2.6403
 Frc consts  --      0.5425                 1.9541                 0.8681
 IR Inten    --     21.0418                12.4355                10.6258

                     34                     35                     36
                      A                      A                      A
 Frequencies --    791.9025               869.8886               883.0675
 Red. masses --      1.2094                 2.3568                 2.2075
 Frc consts  --      0.4469                 1.0508                 1.0143
 IR Inten    --     17.4359                 9.7562                 4.5550

                     37                     38                     39
                      A                      A                      A
 Frequencies --    930.7572               955.6774               961.4868
 Red. masses --      1.5032                 1.7922                 1.3964
 Frc consts  --      0.7673                 0.9644                 0.7606
 IR Inten    --      9.6815                 4.2286                38.5667

                     40                     41                     42
                      A                      A                      A
 Frequencies --    969.5659               996.0665              1010.7970
 Red. masses --      2.1536                 1.8509                 2.1288
 Frc consts  --      1.1928                 1.0819                 1.2815
 IR Inten    --      3.3841                 2.3493                 5.4962

                     43                     44                     45
                      A                      A                      A
 Frequencies --   1023.3555              1035.8374              1037.3952
 Red. masses --      2.3404                 1.4128                 1.5407
 Frc consts  --      1.4441                 0.8931                 0.9769
 IR Inten    --     12.8388                28.2022                 8.5637

                     46                     47                     48
                      A                      A                      A
 Frequencies --   1057.6889              1077.3576              1080.5234
 Red. masses --      6.4439                 1.4708                 1.4771
 Frc consts  --      4.2473                 1.0058                 1.0161
 IR Inten    --     94.0634                 6.4171                 2.1025

                     49                     50                     51
                      A                      A                      A
 Frequencies --   1083.2648              1125.4850              1145.1904
 Red. masses --      2.0620                 2.8252                 2.1264
 Frc consts  --      1.4256                 2.1085                 1.6431
 IR Inten    --     15.9240                12.4033                 7.5842

                     52                     53                     54
                      A                      A                      A
 Frequencies --   1189.2258              1205.8404              1217.1477
 Red. masses --      1.4990                 1.3979                 2.3417
 Frc consts  --      1.2491                 1.1976                 2.0439
 IR Inten    --     12.6601                 2.2666                10.2799

                     55                     56                     57
                      A                      A                      A
 Frequencies --   1274.3642              1279.8211              1288.1659
 Red. masses --      1.2498                 1.8486                 1.3187
 Frc consts  --      1.1958                 1.7840                 1.2893
 IR Inten    --      1.0336                 1.6654                17.3553

                     58                     59                     60
                      A                      A                      A
 Frequencies --   1312.4611              1326.5559              1337.2073
 Red. masses --      1.2947                 1.3506                 4.1076
 Frc consts  --      1.3140                 1.4003                 4.3275
 IR Inten    --      4.0183                13.2022                48.1892

                     61                     62                     63
                      A                      A                      A
 Frequencies --   1354.5030              1372.9911              1392.9239
 Red. masses --      1.1772                 1.3828                 2.8064
 Frc consts  --      1.2725                 1.5359                 3.2082
 IR Inten    --     12.1021                 8.7563                49.3576

                     64                     65                     66
                      A                      A                      A
 Frequencies --   1409.8682              1442.9973              1447.2966
 Red. masses --      1.4030                 1.2102                 1.3509
 Frc consts  --      1.6431                 1.4847                 1.6672
 IR Inten    --     39.3359                 3.8030                 5.3461

                     67                     68                     69
                      A                      A                      A
 Frequencies --   1449.7150              1477.1974              1488.6348
 Red. masses --      1.7599                 1.2086                 1.0884
 Frc consts  --      2.1793                 1.5539                 1.4210
 IR Inten    --     32.9272                 8.1919                20.6618

                     70                     71                     72
                      A                      A                      A
 Frequencies --   1493.9729              1500.7136              1505.5499
 Red. masses --      1.0948                 1.1530                 1.0444
 Frc consts  --      1.4397                 1.5299                 1.3948
 IR Inten    --      6.9216                34.0219                 5.3057

                     73                     74                     75
                      A                      A                      A
 Frequencies --   1507.1295              1522.0142              1529.9454
 Red. masses --      1.0998                 1.1077                 1.0433
 Frc consts  --      1.4718                 1.5118                 1.4389
 IR Inten    --      5.3104                 8.5320                 5.8633

                     76                     77                     78
                      A                      A                      A
 Frequencies --   1541.6183              1563.1466              1615.7324
 Red. masses --      1.0476                 2.0568                 5.3964
 Frc consts  --      1.4668                 2.9610                 8.3003
 IR Inten    --      1.7908               104.8619               169.4246

                     79                     80                     81
                      A                      A                      A
 Frequencies --   1640.0930              1727.2323              3025.4855
 Red. masses --      5.8347                 4.3784                 1.0695
 Frc consts  --      9.2471                 7.6961                 5.7679
 IR Inten    --     22.5222                 3.7817                44.5795

                     82                     83                     84
                      A                      A                      A
 Frequencies --   3044.4980              3052.5308              3053.6514
 Red. masses --      1.0366                 1.0604                 1.0383
 Frc consts  --      5.6610                 5.8215                 5.7045
 IR Inten    --     45.0031                20.0064                26.6321

                     85                     86                     87
                      A                      A                      A
 Frequencies --   3077.7235              3089.2005              3095.9593
 Red. masses --      1.0646                 1.0662                 1.1012
 Frc consts  --      5.9413                 5.9949                 6.2186
 IR Inten    --     15.0076                15.5906                21.5732

                     88                     89                     90
                      A                      A                      A
 Frequencies --   3101.6048              3111.3515              3122.7362
 Red. masses --      1.1033                 1.1013                 1.0944
 Frc consts  --      6.2535                 6.2816                 6.2879
 IR Inten    --      8.9953                16.7918                 2.3114

                     91                     92                     93
                      A                      A                      A
 Frequencies --   3126.0283              3142.5195              3157.9750
 Red. masses --      1.1013                 1.0994                 1.0593
 Frc consts  --      6.3408                 6.3968                 6.2241
 IR Inten    --     21.9275                 8.0177                 6.1418

                     94                     95                     96
                      A                      A                      A
 Frequencies --   3160.8877              3171.6442              3171.6830
 Red. masses --      1.1018                 1.0948                 1.0960
 Frc consts  --      6.4860                 6.4889                 6.4961
 IR Inten    --      5.1173                 3.4393                 3.8833

                     97                     98                     99
                      A                      A                      A
 Frequencies --   3244.3733              3280.1627              3558.7025
 Red. masses --      1.1154                 1.0978                 1.0757
 Frc consts  --      6.9172                 6.9590                 8.0266
 IR Inten    --     11.8732                 2.2046                44.9320

 - Thermochemistry -
 -------------------
 Temperature   298.150 Kelvin.  Pressure   1.00000 Atm.
 Atom     1 has atomic number  6 and mass  12.00000

 Molecular mass:   241.12488 amu.
 Principal axes and moments of inertia in atomic units:
                           1         2         3
     Eigenvalues --  3141.765575151.361836695.04047
           X            1.00000   0.00181  -0.00021
           Y           -0.00182   0.99998  -0.00660
           Z            0.00020   0.00661   0.99998
 This molecule is an asymmetric top.
 Rotational symmetry number  1.
 Warning -- assumption of classical behavior for rotation
           may cause significant error
 Rotational temperatures (Kelvin)      0.02757     0.01681     0.01294
 Rotational constants (GHZ):           0.57444     0.35034     0.26956
 Zero-point vibrational energy     781551.4 (Joules/Mol)
                                  186.79526 (Kcal/Mol)
 Warning -- explicit consideration of  27 degrees of freedom as
           vibrations may cause significant error
 Vibrational temperatures:     35.04    43.76    59.29    83.29   129.89
          (Kelvin)            149.59   175.60   183.66   200.92   243.86
                              274.31   299.20   330.94   346.53   363.34
                              419.39   446.22   483.19   509.93   523.47
                              573.38   578.96   747.74   762.62   827.70
                              841.66   860.75   918.40   957.68   965.89
                              972.45  1057.63  1074.77  1139.37  1251.58
                             1270.54  1339.15  1375.01  1383.37  1394.99
                             1433.12  1454.31  1472.38  1490.34  1492.58
                             1521.78  1550.08  1554.63  1558.58  1619.32
                             1647.67  1711.03  1734.94  1751.20  1833.53
                             1841.38  1853.38  1888.34  1908.62  1923.94
                             1948.83  1975.43  2004.11  2028.49  2076.15
                             2082.34  2085.82  2125.36  2141.81  2149.49
                             2159.19  2166.15  2168.42  2189.84  2201.25
                             2218.04  2249.02  2324.68  2359.73  2485.10
                             4353.00  4380.35  4391.91  4393.52  4428.16
                             4444.67  4454.39  4462.52  4476.54  4492.92
                             4497.66  4521.38  4543.62  4547.81  4563.29
                             4563.34  4667.93  4719.42  5120.18

 Zero-point correction=                           0.297677 (Hartree/Particle)
 Thermal correction to Energy=                    0.315779
 Thermal correction to Enthalpy=                  0.316723
 Thermal correction to Gibbs Free Energy=         0.250071
 Sum of electronic and zero-point Energies=          -1067.981237
 Sum of electronic and thermal Energies=             -1067.963135
 Sum of electronic and thermal Enthalpies=           -1067.962191
 Sum of electronic and thermal Free Energies=        -1068.028843

                     E (Thermal)             CV                S
                      KCal/Mol        Cal/Mol-Kelvin    Cal/Mol-Kelvin
 Total                  198.154             66.137            140.281
 Electronic               0.000              0.000              0.000
 Translational            0.889              2.981             42.342
 Rotational               0.889              2.981             33.049
 Vibrational            196.377             60.175             64.891
 Vibration     1          0.593              1.985              6.243
 Vibration     2          0.594              1.984              5.802
 Vibration     3          0.594              1.981              5.200
 Vibration     4          0.596              1.974              4.528
 Vibration     5          0.602              1.956              3.654
 Vibration     6          0.605              1.946              3.379
 Vibration     7          0.610              1.931              3.068
 Vibration     8          0.611              1.926              2.981
 Vibration     9          0.615              1.914              2.809
 Vibration    10          0.625              1.880              2.441
 Vibration    11          0.634              1.853              2.221
 Vibration    12          0.641              1.829              2.062
 Vibration    13          0.652              1.795              1.879
 Vibration    14          0.658              1.778              1.797
 Vibration    15          0.664              1.759              1.713
 Vibration    16          0.687              1.690              1.465
 Vibration    17          0.699              1.654              1.362
 Vibration    18          0.717              1.604              1.232
 Vibration    19          0.730              1.566              1.146
 Vibration    20          0.737              1.547              1.106
 Vibration    21          0.765              1.473              0.968
 Vibration    22          0.768              1.465              0.954
 Vibration    23          0.875              1.206              0.611
 Vibration    24          0.885              1.184              0.587
 Vibration    25          0.932              1.085              0.494
 Vibration    26          0.942              1.064              0.476
 Vibration    27          0.956              1.036              0.453

                           ! Non-Optimized Parameters !
 Normal termination of Gaussian 16 at Thu Dec 10 23:35:31 2020.

 ----------------------------------------------------------------------
 # B3LYP/6-311++G(d,p) empiricaldispersion=gd3bj scf=xqc pop=npa geom=c
 heck
 ----------------------------------------------------------------------

 ---------------------------------------
 CID_106581806_JID_6728_Energie_neutraal
 ---------------------------------------
 Structure from the checkpoint file:  "JID_6728.chk"
 Charge =  0 Multiplicity = 1

 SCF Done:  E(RB3LYP) =  -1068.49935703     A.U. after   15 cycles
 Normal termination of Gaussian 16 at Thu Dec 10 23:41:05 2020.

 ----------------------------------------------------------------------
 # B3LYP/6-311++G(d,p) empiricaldispersion=gd3bj scf=xqc pop=npa geom=c
 heck
 ----------------------------------------------------------------------

 -------------------------------------
 CID_106581806_JID_6728_Energie_kation
 -------------------------------------
 Structure from the checkpoint file:  "JID_6728.chk"
 Charge =  1 Multiplicity = 2

 SCF Done:  E(UB3LYP) =  -1068.23461403     A.U. after   23 cycles
 Normal termination of Gaussian 16 at Thu Dec 10 23:52:52 2020.
 Gaussian 16:  ES64L-G16RevA.03 25-Dec-2016

 ----------------------------------------------------------------------
 # B3LYP/6-311++G(d,p) empiricaldispersion=gd3bj scf=xqc pop=npa geom=c
 heck
 ----------------------------------------------------------------------

 ------------------------------------
 CID_106581806_JID_6728_Energie_anion
 ------------------------------------
 Structure from the checkpoint file:  "JID_6728.chk"
 Charge = -1 Multiplicity = 2

                         Standard orientation:
 ---------------------------------------------------------------------
 Center     Atomic      Atomic             Coordinates (Angstroms)
 Number     Number       Type             X           Y           Z
 ---------------------------------------------------------------------
      1          6           0       -1.331231   -1.382204    1.997042
      2          6           0       -2.024228   -0.094708    1.561465
      3         16           0       -3.155749   -0.304860    0.115520
      4          8           0       -3.578059    1.093502   -0.308618
      5          6           0       -1.954248   -0.895662   -1.160979
      6          6           0       -1.103174    0.225350   -1.743902
      7          7           0       -0.093961    0.722046   -0.811882
      8          6           0        0.969164   -0.105454   -0.495532
      9          7           0        1.121136   -1.364346   -0.863526
     10          6           0        2.270436   -1.806294   -0.214590
     11          6           0        2.801939   -0.796981    0.539515
     12          7           0        1.955941    0.302576    0.367136
     13          6           0        2.043208    1.602220    1.014892
     14          6           0        2.332088    2.708284    0.033059
     15          6           0        1.544742    3.770748   -0.140837
     16          6           0        2.767895   -3.203249   -0.394935
     17          1           0       -2.045204   -2.207818    2.102116
     18          1           0       -0.855053   -1.234922    2.972638
     19          1           0       -0.552792   -1.684415    1.291646
     20          1           0       -2.694465    0.284258    2.340638
     21          1           0       -1.321836    0.693122    1.284834
     22          1           0       -1.344978   -1.704378   -0.755434
     23          1           0       -2.587481   -1.307196   -1.953858
     24          1           0       -0.645783   -0.142244   -2.673629
     25          1           0       -1.760905    1.066980   -1.976741
     26          1           0        0.174676    1.685574   -0.977781
     27          1           0        3.683912   -0.733951    1.158971
     28          1           0        1.106152    1.806285    1.547629
     29          1           0        2.840379    1.533229    1.762776
     30          1           0        3.235266    2.584395   -0.563185
     31          1           0        1.785438    4.551551   -0.856313
     32          1           0        0.633982    3.904156    0.440206
     33          1           0        2.012265   -3.933924   -0.081902
     34          1           0        2.996389   -3.408634   -1.447676
     35          1           0        3.675143   -3.376563    0.192403
 ---------------------------------------------------------------------

 SCF Done:  E(UB3LYP) =  -1068.48888944     A.U. after   33 cycles
 SCF Done:  E(UB3LYP) =  -1068.48888944     a.u. after    1 cycles

 The electronic state is 2-A.
 Alpha  occ. eigenvalues --  -88.85047 -18.98879 -14.26542 -14.23892 -14.18808
 Alpha  occ. eigenvalues --  -10.15972 -10.12469 -10.12403 -10.10976 -10.10449
 Alpha  occ. eigenvalues --  -10.08987 -10.08956 -10.08834 -10.08046 -10.07922
 Alpha  occ. eigenvalues --  -10.07078  -7.92796  -5.89067  -5.88932  -5.88380
 Alpha  occ. eigenvalues --   -0.92836  -0.91578  -0.83722  -0.79264  -0.71432
 Alpha  occ. eigenvalues --   -0.70039  -0.68302  -0.65837  -0.61997  -0.60485
 Alpha  occ. eigenvalues --   -0.57729  -0.54358  -0.50164  -0.49258  -0.48527
 Alpha  occ. eigenvalues --   -0.46062  -0.43254  -0.41675  -0.39559  -0.38182
 Alpha  occ. eigenvalues --   -0.37566  -0.36984  -0.36612  -0.35504  -0.34112
 Alpha  occ. eigenvalues --   -0.33410  -0.33138  -0.31375  -0.31191  -0.30512
 Alpha  occ. eigenvalues --   -0.30156  -0.29020  -0.28876  -0.28276  -0.28080
 Alpha  occ. eigenvalues --   -0.26919  -0.26697  -0.26124  -0.20168  -0.19331
 Alpha  occ. eigenvalues --   -0.18137  -0.17536  -0.16692  -0.13989  -0.10234
 Alpha  occ. eigenvalues --    0.04244
 Alpha virt. eigenvalues --    0.06469   0.06717   0.06939   0.07342   0.08055
 Alpha virt. eigenvalues --    0.08502   0.08930   0.09546   0.09802   0.10359
 Alpha virt. eigenvalues --    0.10678   0.11237   0.11553   0.11760   0.12466

  Beta  occ. eigenvalues --  -88.85046 -18.98875 -14.26542 -14.23889 -14.18805
  Beta  occ. eigenvalues --  -10.15968 -10.12442 -10.12402 -10.10974 -10.10440
  Beta  occ. eigenvalues --  -10.08982 -10.08871 -10.08809 -10.07991 -10.07891
  Beta  occ. eigenvalues --  -10.07063  -7.92795  -5.89066  -5.88930  -5.88378
  Beta  occ. eigenvalues --   -0.92827  -0.91568  -0.83717  -0.79241  -0.71416
  Beta  occ. eigenvalues --   -0.69898  -0.68283  -0.65814  -0.61930  -0.60455
  Beta  occ. eigenvalues --   -0.57686  -0.54320  -0.50131  -0.49177  -0.48419
  Beta  occ. eigenvalues --   -0.46021  -0.43215  -0.41653  -0.39537  -0.38094
  Beta  occ. eigenvalues --   -0.37516  -0.36937  -0.36585  -0.35477  -0.34079
  Beta  occ. eigenvalues --   -0.33361  -0.33099  -0.31327  -0.31171  -0.30483
  Beta  occ. eigenvalues --   -0.30128  -0.28994  -0.28846  -0.28248  -0.28057
  Beta  occ. eigenvalues --   -0.26897  -0.26636  -0.26109  -0.20152  -0.19030
  Beta  occ. eigenvalues --   -0.18076  -0.17521  -0.16635  -0.13978  -0.10208
  Beta virt. eigenvalues --    0.06416   0.06871   0.07303   0.07406   0.07793
  Beta virt. eigenvalues --    0.08607   0.08898   0.09201   0.09753   0.09969
  Beta virt. eigenvalues --    0.10755   0.10972   0.11628   0.11712   0.11916

 Mulliken charges and spin densities:
               1          2
     1  C    0.078908  -0.779182
     2  C   -0.913707   0.464569
     3  S    0.780674  -0.140766
     4  O   -0.481862   0.002701
     5  C   -0.528558  -0.079150
     6  C   -0.345451   0.004522
     7  N   -0.215811   0.034055
     8  C   -0.316030  -0.360164
     9  N   -0.134712   0.044105
    10  C    0.925519  -0.557844
    11  C   -0.672322   0.346011
    12  N    0.170000   0.094036
    13  C    1.051728  -1.436607
    14  C   -0.801879   1.090069
    15  C    0.611113  -1.131408
    16  C    1.051550  -1.420721
    17  H   -0.034277   0.188418
    18  H   -0.370823   0.544588
    19  H    0.321835  -0.188254
    20  H   -0.079925   0.347592
    21  H    0.653596  -0.378167
    22  H    0.196656  -0.003856
    23  H    0.218440   0.017622
    24  H    0.113982   0.059816
    25  H    0.247767  -0.026383
    26  H    0.276185   0.053909
    27  H   -1.158343   1.329354
    28  H   -0.520028   0.675945
    29  H   -0.595820   0.804051
    30  H   -0.359429   0.535896
    31  H   -0.061781   0.191518
    32  H   -0.053173   0.179397
    33  H   -0.064477   0.212763
    34  H    0.058018   0.086052
    35  H   -0.047563   0.195512
 Sum of Mulliken charges =  -1.00000   1.00000

 Dipole moment (field-independent basis, Debye):
    X=             -5.0513    Y=             -2.0658    Z=             -5.8488  Tot=              7.9995
 Quadrupole moment (field-independent basis, Debye-Ang):
   XX=           -184.5435   YY=           -155.3483   ZZ=           -148.5109
   XY=              3.4057   XZ=            -10.6071   YZ=             -1.6339

 Summary of Natural Population Analysis:

                                       Natural Population
                Natural  -----------------------------------------------
    Atom  No    Charge         Core      Valence    Rydberg      Total
 -----------------------------------------------------------------------
      C    1   -0.30039      0.99964     2.29375    0.00699     3.30039
      C    2   -0.27875      0.99961     2.26551    0.01364     3.27875
      S    3    0.57312      4.99945     2.37165    0.05579     7.42688
      O    4   -0.49051      0.99993     3.48459    0.00598     4.49051
      C    5   -0.28296      0.99957     2.27405    0.00934     3.28296
      C    6   -0.09679      0.99961     2.08619    0.01100     3.09679
      N    7   -0.33553      0.99967     2.82660    0.00925     3.83553
      C    8    0.28940      0.99959     1.69417    0.01685     2.71060
      N    9   -0.29862      0.99967     2.78969    0.00925     3.79862
      C   10    0.05235      0.99955     1.93394    0.01417     2.94765
      C   11   -0.03635      0.99946     2.02446    0.01243     3.03635
      N   12   -0.21783      0.99962     2.70572    0.01249     3.71783
      C   13   -0.10380      0.99958     2.09025    0.01397     3.10380
      C   14   -0.08051      0.99955     2.07069    0.01026     3.08051
      C   15   -0.18951      0.99956     2.18220    0.00776     3.18951
      C   16   -0.29282      0.99963     2.28834    0.00486     3.29282
      H   17    0.09712      0.00000     0.40123    0.00165     0.40288
      H   18    0.11145      0.00000     0.38704    0.00151     0.38855
      H   19    0.10792      0.00000     0.39018    0.00191     0.39208
      H   20    0.10416      0.00000     0.39415    0.00168     0.39584
      H   21    0.11670      0.00000     0.38135    0.00195     0.38330
      H   22    0.12400      0.00000     0.37385    0.00215     0.37600
      H   23    0.10585      0.00000     0.39321    0.00093     0.39415
      H   24    0.09573      0.00000     0.40297    0.00129     0.40427
      H   25    0.11099      0.00000     0.38785    0.00115     0.38901
      H   26    0.19975      0.00000     0.29775    0.00251     0.30025
      H   27    0.10785      0.00000     0.38932    0.00283     0.39215
      H   28    0.10022      0.00000     0.39720    0.00258     0.39978
      H   29    0.11635      0.00000     0.37713    0.00652     0.38365
      H   30    0.09633      0.00000     0.40239    0.00127     0.40367
      H   31    0.09613      0.00000     0.40304    0.00083     0.40387
      H   32    0.09318      0.00000     0.40568    0.00114     0.40682
      H   33    0.10195      0.00000     0.39669    0.00136     0.39805
      H   34    0.10069      0.00000     0.39804    0.00126     0.39931
      H   35    0.10311      0.00000     0.39602    0.00087     0.39689
 =======================================================================
   * Total *   -0.00000     19.99368    44.75688    0.24944    65.00000

 Normal termination of Gaussian 16 at Fri Dec 11 00:09:46 2020.
