 Gaussian 16, Revision A.03,

 -----------------------------------------------------------
 # opt freq B3LYP/6-31G(d) empiricaldispersion=gd3bj scf=xqc
 -----------------------------------------------------------

 --------------------------------
 CID_115394583_JID_10468_neutraal
 --------------------------------
 Symbolic Z-matrix:
 Charge =  0 Multiplicity = 1

 SCF Done:  E(RB3LYP) =  -839.626844829     A.U. after   15 cycles
 SCF Done:  E(RB3LYP) =  -839.634910669     A.U. after   12 cycles
 SCF Done:  E(RB3LYP) =  -839.635145753     A.U. after   12 cycles
 SCF Done:  E(RB3LYP) =  -839.635882084     A.U. after   12 cycles
 SCF Done:  E(RB3LYP) =  -839.635979819     A.U. after   12 cycles
 SCF Done:  E(RB3LYP) =  -839.636046186     A.U. after   11 cycles
 SCF Done:  E(RB3LYP) =  -839.636067480     A.U. after   10 cycles
 SCF Done:  E(RB3LYP) =  -839.636075084     A.U. after    9 cycles
 SCF Done:  E(RB3LYP) =  -839.636078242     A.U. after    9 cycles
 SCF Done:  E(RB3LYP) =  -839.636078849     A.U. after    8 cycles
 SCF Done:  E(RB3LYP) =  -839.636079191     A.U. after    7 cycles
 SCF Done:  E(RB3LYP) =  -839.636079305     A.U. after    7 cycles
 SCF Done:  E(RB3LYP) =  -839.636079406     A.U. after    7 cycles
 SCF Done:  E(RB3LYP) =  -839.636079508     A.U. after    7 cycles
 SCF Done:  E(RB3LYP) =  -839.636079566     A.U. after    7 cycles
 SCF Done:  E(RB3LYP) =  -839.636079601     A.U. after    7 cycles
 Optimization completed.
    -- Stationary point found.
 Normal termination of Gaussian 16 at Mon Dec 14 13:57:42 2020.

 --------------------------------------------------------------------
 #N Geom=AllCheck Guess=TCheck SCRF=Check GenChk RB3LYP/6-31G(d) Freq
 --------------------------------------------------------------------

 Structure from the checkpoint file:  "JID_10468.chk"
 --------------------------------
 CID_115394583_JID_10468_neutraal
 --------------------------------
 Charge =  0 Multiplicity = 1

 SCF Done:  E(RB3LYP) =  -839.636079601     A.U. after    1 cycles

  Exact polarizability: 217.514   5.378 212.423  18.512   5.992 132.956
 Approx polarizability: 326.600   4.936 359.771  42.190   9.626 217.694

                      1                      2                      3
                      A                      A                      A
 Frequencies --     25.4602                33.7330                58.5633
 Red. masses --      3.7069                 3.5095                 4.2588
 Frc consts  --      0.0014                 0.0024                 0.0086
 IR Inten    --      1.0294                 1.4191                 1.5991

                      4                      5                      6
                      A                      A                      A
 Frequencies --     74.5560                78.5719               114.9647
 Red. masses --      5.3413                 1.1073                 2.9278
 Frc consts  --      0.0175                 0.0040                 0.0228
 IR Inten    --      0.3132                 0.6543                 0.9032

                      7                      8                      9
                      A                      A                      A
 Frequencies --    123.6022               169.5048               208.4300
 Red. masses --      3.7640                 4.0074                 3.3125
 Frc consts  --      0.0339                 0.0678                 0.0848
 IR Inten    --      2.5074                 2.1276                 0.7950

                     10                     11                     12
                      A                      A                      A
 Frequencies --    234.4108               241.8241               268.2334
 Red. masses --      1.8109                 1.8844                 1.3527
 Frc consts  --      0.0586                 0.0649                 0.0573
 IR Inten    --      0.8972                 2.0317                 0.6048

                     13                     14                     15
                      A                      A                      A
 Frequencies --    281.6400               296.1234               303.6893
 Red. masses --      2.1352                 2.8792                 3.8289
 Frc consts  --      0.0998                 0.1488                 0.2081
 IR Inten    --      1.8178                 0.6193                 0.8697

                     16                     17                     18
                      A                      A                      A
 Frequencies --    332.5097               343.2419               362.3225
 Red. masses --      2.5970                 1.3451                 3.0985
 Frc consts  --      0.1692                 0.0934                 0.2397
 IR Inten    --      0.9594                 0.3414                 1.5072

                     19                     20                     21
                      A                      A                      A
 Frequencies --    370.1316               386.0987               448.2096
 Red. masses --      2.6471                 2.6512                 3.4076
 Frc consts  --      0.2137                 0.2329                 0.4033
 IR Inten    --      0.6245                 2.3580                 1.1686

                     22                     23                     24
                      A                      A                      A
 Frequencies --    458.0933               473.5985               500.8251
 Red. masses --      3.2529                 4.9337                 3.9521
 Frc consts  --      0.4022                 0.6520                 0.5841
 IR Inten    --      1.2939                 2.6936                 1.9418

                     25                     26                     27
                      A                      A                      A
 Frequencies --    511.5122               530.0433               561.3983
 Red. masses --      4.8027                 3.1754                 6.1799
 Frc consts  --      0.7404                 0.5256                 1.1475
 IR Inten    --      2.4764                 0.0661                 4.4445

                     28                     29                     30
                      A                      A                      A
 Frequencies --    588.0644               646.4580               652.4102
 Red. masses --      3.0224                 4.2483                 6.1592
 Frc consts  --      0.6158                 1.0460                 1.5446
 IR Inten    --      3.0910                 3.5353                 8.8675

                     31                     32                     33
                      A                      A                      A
 Frequencies --    676.6225               680.5472               736.7267
 Red. masses --      4.7706                 3.7159                 6.6720
 Frc consts  --      1.2868                 1.0140                 2.1336
 IR Inten    --      5.7669                 3.9980                 0.4613

                     34                     35                     36
                      A                      A                      A
 Frequencies --    769.8465               784.2630               806.5335
 Red. masses --      5.0080                 1.4028                 3.0651
 Frc consts  --      1.7487                 0.5083                 1.1747
 IR Inten    --      4.8053                41.7098                 0.2400

                     37                     38                     39
                      A                      A                      A
 Frequencies --    816.8887               831.6153               848.5111
 Red. masses --      1.4621                 3.1075                 5.0476
 Frc consts  --      0.5749                 1.2662                 2.1412
 IR Inten    --      6.3093                 1.7154                 9.1840

                     40                     41                     42
                      A                      A                      A
 Frequencies --    890.7838               912.5244               923.8835
 Red. masses --      1.7458                 1.3256                 5.3650
 Frc consts  --      0.8162                 0.6504                 2.6981
 IR Inten    --      1.7136                16.9638                 7.0338

                     43                     44                     45
                      A                      A                      A
 Frequencies --    941.7802               947.5284               967.5209
 Red. masses --      1.7059                 1.6759                 1.3414
 Frc consts  --      0.8914                 0.8865                 0.7398
 IR Inten    --      0.1234                 1.5045                 0.7628

                     46                     47                     48
                      A                      A                      A
 Frequencies --    980.4735               981.5088               999.3438
 Red. masses --      6.3598                 1.2041                 1.2890
 Frc consts  --      3.6022                 0.6835                 0.7585
 IR Inten    --      4.0510                 0.1823                 0.0850

                     49                     50                     51
                      A                      A                      A
 Frequencies --   1004.0556              1038.4510              1056.5739
 Red. masses --      2.7319                 2.2598                 2.0847
 Frc consts  --      1.6227                 1.4358                 1.3712
 IR Inten    --      1.6154                 8.7036                 2.3070

                     52                     53                     54
                      A                      A                      A
 Frequencies --   1063.6035              1069.4145              1070.0953
 Red. masses --      1.7515                 1.5627                 1.5751
 Frc consts  --      1.1674                 1.0529                 1.0627
 IR Inten    --      0.1683                 2.3991                 1.8797

                     55                     56                     57
                      A                      A                      A
 Frequencies --   1072.3959              1141.4147              1160.9092
 Red. masses --      2.8721                 3.1442                 1.6813
 Frc consts  --      1.9461                 2.4135                 1.3350
 IR Inten    --      5.4271                 3.7734                 2.8095

                     58                     59                     60
                      A                      A                      A
 Frequencies --   1189.4322              1216.7904              1223.5020
 Red. masses --      1.2860                 1.5258                 1.8028
 Frc consts  --      1.0720                 1.3310                 1.5901
 IR Inten    --      2.9346                 5.5788                18.7129

                     61                     62                     63
                      A                      A                      A
 Frequencies --   1248.4012              1260.5524              1270.4896
 Red. masses --      2.7565                 2.4817                 2.7993
 Frc consts  --      2.5311                 2.3234                 2.6622
 IR Inten    --     26.5804                49.3965                 6.7610

                     64                     65                     66
                      A                      A                      A
 Frequencies --   1283.7990              1300.7735              1339.0964
 Red. masses --      2.2828                 2.2292                 5.7791
 Frc consts  --      2.2167                 2.2223                 6.1057
 IR Inten    --      8.2397                 1.6912                24.6102

                     67                     68                     69
                      A                      A                      A
 Frequencies --   1352.1935              1382.5492              1399.4838
 Red. masses --      5.8136                 2.9931                 5.1044
 Frc consts  --      6.2629                 3.3708                 5.8903
 IR Inten    --     18.4418                 1.4530                32.9370

                     70                     71                     72
                      A                      A                      A
 Frequencies --   1413.7475              1430.5667              1432.6099
 Red. masses --      6.7740                 1.2463                 1.3610
 Frc consts  --      7.9770                 1.5028                 1.6457
 IR Inten    --     14.1914                12.0813                 4.7839

                     73                     74                     75
                      A                      A                      A
 Frequencies --   1432.9980              1456.0240              1463.1087
 Red. masses --      1.2728                 2.4896                 1.2244
 Frc consts  --      1.5399                 3.1096                 1.5443
 IR Inten    --      4.6413                29.1165                 8.9203

                     76                     77                     78
                      A                      A                      A
 Frequencies --   1501.4596              1507.2514              1513.0397
 Red. masses --      1.3581                 1.0488                 1.0474
 Frc consts  --      1.8038                 1.4038                 1.4128
 IR Inten    --      5.0989                 0.8105                 7.5669

                     79                     80                     81
                      A                      A                      A
 Frequencies --   1518.3055              1519.4591              1520.7017
 Red. masses --      1.7590                 1.1293                 1.2697
 Frc consts  --      2.3891                 1.5362                 1.7300
 IR Inten    --      4.6400                 9.5536                 2.7091

                     82                     83                     84
                      A                      A                      A
 Frequencies --   1525.0229              1530.5803              1537.9034
 Red. masses --      3.2420                 1.3754                 1.9053
 Frc consts  --      4.4423                 1.8984                 2.6551
 IR Inten    --     44.0035                15.8452                15.5945

                     85                     86                     87
                      A                      A                      A
 Frequencies --   1541.1966              1554.3349              1572.1231
 Red. masses --      1.0823                 1.0716                 4.6974
 Frc consts  --      1.5147                 1.5254                 6.8404
 IR Inten    --      3.0727                17.7702                 4.1863

                     88                     89                     90
                      A                      A                      A
 Frequencies --   1618.6630              1660.8117              1676.4804
 Red. masses --      6.9803                 7.2948                 5.6649
 Frc consts  --     10.7754                11.8551                 9.3808
 IR Inten    --     27.4322                59.1291                 3.5095

                     91                     92                     93
                      A                      A                      A
 Frequencies --   3047.4728              3061.5472              3065.1982
 Red. masses --      1.0394                 1.0356                 1.0371
 Frc consts  --      5.6871                 5.7192                 5.7412
 IR Inten    --     19.2184                10.9473                19.0136

                     94                     95                     96
                      A                      A                      A
 Frequencies --   3072.9418              3098.7086              3129.9736
 Red. masses --      1.0389                 1.1004                 1.1032
 Frc consts  --      5.7799                 6.2252                 6.3679
 IR Inten    --     12.7390                15.2629                 4.9431

                     97                     98                     99
                      A                      A                      A
 Frequencies --   3134.1921              3136.0271              3143.0431
 Red. masses --      1.1030                 1.1034                 1.1018
 Frc consts  --      6.3836                 6.3937                 6.4130
 IR Inten    --      3.5461                23.5696                43.2206

                    100                    101                    102
                      A                      A                      A
 Frequencies --   3162.6816              3163.0478              3174.8922
 Red. masses --      1.1000                 1.0996                 1.0988
 Frc consts  --      6.4826                 6.4817                 6.5258
 IR Inten    --      8.3332                 8.8952                12.6140

                    103                    104                    105
                      A                      A                      A
 Frequencies --   3190.9339              3203.4049              3203.8248
 Red. masses --      1.0862                 1.0913                 1.0897
 Frc consts  --      6.5164                 6.5979                 6.5903
 IR Inten    --      3.1462                 2.2107                18.6331

                    106                    107                    108
                      A                      A                      A
 Frequencies --   3217.2363              3222.7603              3311.3123
 Red. masses --      1.0938                 1.0960                 1.0970
 Frc consts  --      6.6706                 6.7065                 7.0871
 IR Inten    --     14.1142                14.3634                 0.5297

 - Thermochemistry -
 -------------------
 Temperature   298.150 Kelvin.  Pressure   1.00000 Atm.
 Atom     1 has atomic number  6 and mass  12.00000

 Molecular mass:   266.15315 amu.
 Principal axes and moments of inertia in atomic units:
                           1         2         3
     Eigenvalues --  3601.988166521.592307600.47994
           X            0.99968   0.00165  -0.02519
           Y           -0.00118   0.99982   0.01870
           Z            0.02521  -0.01867   0.99951
 This molecule is an asymmetric top.
 Rotational symmetry number  1.
 Warning -- assumption of classical behavior for rotation
           may cause significant error
 Rotational temperatures (Kelvin)      0.02405     0.01328     0.01140
 Rotational constants (GHZ):           0.50104     0.27673     0.23745
 Zero-point vibrational energy     831313.1 (Joules/Mol)
                                  198.68859 (Kcal/Mol)
 Warning -- explicit consideration of  28 degrees of freedom as
           vibrations may cause significant error
 Vibrational temperatures:     36.63    48.53    84.26   107.27   113.05
          (Kelvin)            165.41   177.84   243.88   299.88   337.26
                              347.93   385.93   405.22   426.06   436.94
                              478.41   493.85   521.30   532.54   555.51
                              644.87   659.09   681.40   720.58   735.95
                              762.61   807.73   846.09   930.11   938.67
                              973.51   979.16  1059.99  1107.64  1128.38
                             1160.42  1175.32  1196.51  1220.82  1281.64
                             1312.92  1329.26  1355.01  1363.28  1392.05
                             1410.68  1412.17  1437.83  1444.61  1494.10
                             1520.17  1530.29  1538.65  1539.63  1542.94
                             1642.24  1670.29  1711.33  1750.69  1760.35
                             1796.17  1813.65  1827.95  1847.10  1871.52
                             1926.66  1945.50  1989.18  2013.55  2034.07
                             2058.27  2061.21  2061.76  2094.89  2105.09
                             2160.27  2168.60  2176.93  2184.50  2186.16
                             2187.95  2194.17  2202.16  2212.70  2217.44
                             2236.34  2261.93  2328.90  2389.54  2412.08
                             4384.63  4404.88  4410.14  4421.28  4458.35
                             4503.33  4509.40  4512.04  4522.14  4550.39
                             4550.92  4567.96  4591.04  4608.99  4609.59
                             4628.89  4636.83  4764.24

 Zero-point correction=                           0.316630 (Hartree/Particle)
 Thermal correction to Energy=                    0.334391
 Thermal correction to Enthalpy=                  0.335335
 Thermal correction to Gibbs Free Energy=         0.270395
 Sum of electronic and zero-point Energies=           -839.319449
 Sum of electronic and thermal Energies=              -839.301689
 Sum of electronic and thermal Enthalpies=            -839.300744
 Sum of electronic and thermal Free Energies=         -839.365684

                     E (Thermal)             CV                S
                      KCal/Mol        Cal/Mol-Kelvin    Cal/Mol-Kelvin
 Total                  209.834             69.623            136.677
 Electronic               0.000              0.000              0.000
 Translational            0.889              2.981             42.636
 Rotational               0.889              2.981             33.545
 Vibrational            208.056             63.662             60.496
 Vibration     1          0.593              1.985              6.155
 Vibration     2          0.594              1.983              5.597
 Vibration     3          0.596              1.974              4.505
 Vibration     4          0.599              1.966              4.029
 Vibration     5          0.600              1.964              3.926
 Vibration     6          0.608              1.937              3.183
 Vibration     7          0.610              1.929              3.043
 Vibration     8          0.625              1.880              2.441
 Vibration     9          0.642              1.828              2.057
 Vibration    10          0.654              1.788              1.845
 Vibration    11          0.658              1.776              1.789
 Vibration    12          0.673              1.732              1.608
 Vibration    13          0.681              1.708              1.524
 Vibration    14          0.690              1.681              1.439
 Vibration    15          0.695              1.667              1.396
 Vibration    16          0.714              1.611              1.248
 Vibration    17          0.722              1.589              1.197
 Vibration    18          0.736              1.550              1.112
 Vibration    19          0.742              1.534              1.079
 Vibration    20          0.755              1.500              1.015
 Vibration    21          0.807              1.365              0.801
 Vibration    22          0.816              1.343              0.772
 Vibration    23          0.830              1.309              0.728
 Vibration    24          0.856              1.248              0.656
 Vibration    25          0.867              1.224              0.630
 Vibration    26          0.885              1.184              0.587
 Vibration    27          0.917              1.115              0.521
 Vibration    28          0.945              1.057              0.471

                           ! Non-Optimized Parameters !
 Normal termination of Gaussian 16 at Mon Dec 14 14:19:57 2020.

 ----------------------------------------------------------------------
 # B3LYP/6-311++G(d,p) empiricaldispersion=gd3bj scf=xqc pop=npa geom=c
 heck
 ----------------------------------------------------------------------

 ----------------------------------------
 CID_115394583_JID_10468_Energie_neutraal
 ----------------------------------------
 Structure from the checkpoint file:  "JID_10468.chk"
 Charge =  0 Multiplicity = 1

 SCF Done:  E(RB3LYP) =  -839.847750112     A.U. after   15 cycles
 Normal termination of Gaussian 16 at Mon Dec 14 14:29:30 2020.

 ----------------------------------------------------------------------
 # B3LYP/6-311++G(d,p) empiricaldispersion=gd3bj scf=xqc pop=npa geom=c
 heck
 ----------------------------------------------------------------------

 --------------------------------------
 CID_115394583_JID_10468_Energie_kation
 --------------------------------------
 Structure from the checkpoint file:  "JID_10468.chk"
 Charge =  1 Multiplicity = 2

 SCF Done:  E(UB3LYP) =  -839.545465263     A.U. after   32 cycles
 Normal termination of Gaussian 16 at Mon Dec 14 14:57:28 2020.
 Gaussian 16:  ES64L-G16RevA.03 25-Dec-2016

 ----------------------------------------------------------------------
 # B3LYP/6-311++G(d,p) empiricaldispersion=gd3bj scf=xqc pop=npa geom=c
 heck
 ----------------------------------------------------------------------

 -------------------------------------
 CID_115394583_JID_10468_Energie_anion
 -------------------------------------
 Structure from the checkpoint file:  "JID_10468.chk"
 Charge = -1 Multiplicity = 2

                         Standard orientation:
 ---------------------------------------------------------------------
 Center     Atomic      Atomic             Coordinates (Angstroms)
 Number     Number       Type             X           Y           Z
 ---------------------------------------------------------------------
      1          6           0       -2.330217    3.540088    0.341017
      2          6           0       -1.963070    2.079808    0.290554
      3          7           0       -2.879566    1.229853   -0.130262
      4          6           0       -2.571714   -0.101077   -0.159576
      5          6           0       -3.569130   -1.006874   -0.601713
      6          6           0       -3.314386   -2.359058   -0.645836
      7          6           0       -2.054500   -2.864995   -0.245422
      8          6           0       -1.064413   -2.010800    0.186050
      9          6           0       -1.296876   -0.613514    0.233568
     10          6           0       -0.311771    0.335683    0.642722
     11          6           0       -0.659718    1.665296    0.688033
     12          6           0        1.034754   -0.119203    1.058762
     13          7           0        1.290594   -0.581795    2.266003
     14          7           0        2.624888   -0.928674    2.310522
     15          6           0        3.126977   -0.670222    1.128757
     16          7           0        2.177406   -0.159070    0.276943
     17          6           0        2.380721    0.257314   -1.142402
     18          6           0        1.337865   -0.429837   -2.036641
     19          6           0        2.267240    1.786275   -1.242642
     20          6           0        3.783590   -0.176361   -1.590870
     21          1           0       -1.649597    4.141791   -0.274089
     22          1           0       -3.350602    3.675418   -0.022103
     23          1           0       -2.264195    3.925138    1.366128
     24          1           0       -4.527865   -0.592112   -0.895093
     25          1           0       -4.084715   -3.046430   -0.983542
     26          1           0       -1.871940   -3.935221   -0.273174
     27          1           0       -0.104723   -2.395464    0.515022
     28          1           0        0.056134    2.404883    1.033129
     29          1           0        4.153476   -0.837360    0.846457
     30          1           0        0.325124   -0.088507   -1.819790
     31          1           0        1.554422   -0.199763   -3.084736
     32          1           0        1.369789   -1.515848   -1.906562
     33          1           0        2.975930    2.270267   -0.562873
     34          1           0        2.493922    2.106881   -2.264835
     35          1           0        1.259107    2.125094   -0.996898
     36          1           0        4.569766    0.328155   -1.020709
     37          1           0        3.918420   -1.258981   -1.502482
     38          1           0        3.912186    0.094726   -2.642452
 ---------------------------------------------------------------------

 SCF Done:  E(UB3LYP) =  -839.863481041     A.U. after   30 cycles

 The electronic state is 2-A.
 Alpha  occ. eigenvalues --  -14.26818 -14.20824 -14.19911 -14.13780 -10.14857
 Alpha  occ. eigenvalues --  -10.11872 -10.11490 -10.09376 -10.07685 -10.06916
 Alpha  occ. eigenvalues --  -10.06052 -10.05790 -10.04234 -10.04015 -10.03111
 Alpha  occ. eigenvalues --  -10.03055 -10.02896 -10.02289 -10.02251 -10.01785
 Alpha  occ. eigenvalues --   -0.94535  -0.82062  -0.79206  -0.71681  -0.71149
 Alpha  occ. eigenvalues --   -0.69908  -0.65188  -0.62893  -0.61930  -0.60737
 Alpha  occ. eigenvalues --   -0.59498  -0.56876  -0.53540  -0.51191  -0.49856
 Alpha  occ. eigenvalues --   -0.47759  -0.46639  -0.43296  -0.41534  -0.38624
 Alpha  occ. eigenvalues --   -0.37878  -0.37299  -0.36356  -0.35458  -0.34311
 Alpha  occ. eigenvalues --   -0.33641  -0.32049  -0.31605  -0.30739  -0.30384
 Alpha  occ. eigenvalues --   -0.30218  -0.29487  -0.28911  -0.28670  -0.26847
 Alpha  occ. eigenvalues --   -0.26524  -0.26488  -0.26261  -0.25155  -0.24806
 Alpha  occ. eigenvalues --   -0.21570  -0.20688  -0.19856  -0.19504  -0.17943
 Alpha  occ. eigenvalues --   -0.16319  -0.14421  -0.14299  -0.10826  -0.10753
 Alpha  occ. eigenvalues --   -0.09571   0.03890
 Alpha virt. eigenvalues --    0.05810   0.07858   0.08383   0.08881   0.09419
 Alpha virt. eigenvalues --    0.09945   0.10319   0.10701   0.11283   0.11443
 Alpha virt. eigenvalues --    0.12004   0.12409   0.12739   0.13202   0.13338

  Beta  occ. eigenvalues --  -14.26785 -14.20815 -14.19883 -14.13337 -10.14855
  Beta  occ. eigenvalues --  -10.11869 -10.11517 -10.09372 -10.07680 -10.06913
  Beta  occ. eigenvalues --  -10.05982 -10.05838 -10.04239 -10.04107 -10.03023
  Beta  occ. eigenvalues --  -10.02803 -10.02637 -10.02150 -10.02024 -10.01597
  Beta  occ. eigenvalues --   -0.94488  -0.82019  -0.78643  -0.71586  -0.70879
  Beta  occ. eigenvalues --   -0.69642  -0.64673  -0.62680  -0.61917  -0.60720
  Beta  occ. eigenvalues --   -0.59051  -0.56700  -0.53472  -0.50921  -0.49546
  Beta  occ. eigenvalues --   -0.47608  -0.46328  -0.43123  -0.41449  -0.38462
  Beta  occ. eigenvalues --   -0.37731  -0.37061  -0.36316  -0.35331  -0.34212
  Beta  occ. eigenvalues --   -0.33607  -0.32016  -0.31503  -0.30665  -0.30251
  Beta  occ. eigenvalues --   -0.29994  -0.29352  -0.28849  -0.28574  -0.26693
  Beta  occ. eigenvalues --   -0.26392  -0.26312  -0.26176  -0.24905  -0.24350
  Beta  occ. eigenvalues --   -0.21442  -0.20505  -0.19645  -0.18360  -0.17863
  Beta  occ. eigenvalues --   -0.14855  -0.14367  -0.14051  -0.10298  -0.09911
  Beta  occ. eigenvalues --   -0.07807
  Beta virt. eigenvalues --    0.05749   0.07803   0.08285   0.08824   0.09368
  Beta virt. eigenvalues --    0.09791   0.09938   0.10253   0.10636   0.11284
  Beta virt. eigenvalues --    0.11441   0.11972   0.12436   0.12726   0.13231

 Mulliken charges and spin densities:
               1          2
     1  C   -0.599472  -0.005227
     2  C   -0.263217   0.004263
     3  N    0.043264   0.210068
     4  C   -0.342280  -0.028564
     5  C   -0.190343   0.114198
     6  C   -0.379948   0.093681
     7  C   -0.577093   0.061307
     8  C   -0.421308   0.140154
     9  C    0.339344  -0.038297
    10  C    0.963510   0.222765
    11  C   -0.229150   0.237321
    12  C   -0.732127  -0.012509
    13  N   -0.053072   0.006124
    14  N   -0.061752   0.003802
    15  C    0.173746  -0.016729
    16  N    0.292496  -0.006366
    17  C   -0.070493   0.120836
    18  C   -0.532753  -0.060393
    19  C   -0.484304  -0.092069
    20  C   -0.418524  -0.079703
    21  H    0.119047   0.001610
    22  H    0.146409  -0.002248
    23  H    0.135957   0.002985
    24  H    0.129959  -0.012895
    25  H    0.108175  -0.006264
    26  H    0.117794  -0.002680
    27  H    0.132614  -0.011143
    28  H    0.165299  -0.012700
    29  H    0.128109   0.032742
    30  H    0.246479   0.022290
    31  H    0.150007  -0.016823
    32  H    0.146565   0.013291
    33  H    0.137290   0.025007
    34  H    0.110656   0.010354
    35  H    0.197805   0.005088
    36  H    0.111854   0.034130
    37  H    0.141099   0.021624
    38  H    0.118359   0.020969
 Sum of Mulliken charges =  -1.00000   1.00000

 Dipole moment (field-independent basis, Debye):
    X=              6.7890    Y=              1.7456    Z=             -5.7047  Tot=              9.0378
 Quadrupole moment (field-independent basis, Debye-Ang):
   XX=           -157.9482   YY=           -139.8674   ZZ=           -147.1462
   XY=              3.6610   XZ=            -13.4741   YZ=              5.0685

 Summary of Natural Population Analysis:

                                       Natural Population
                Natural  -----------------------------------------------
    Atom  No    Charge         Core      Valence    Rydberg      Total
 -----------------------------------------------------------------------
      C    1   -0.29525      0.99964     2.29129    0.00432     3.29525
      C    2    0.11869      0.99957     1.86893    0.01281     2.88131
      N    3   -0.19241      0.99965     2.67963    0.01312     3.69241
      C    4    0.05679      0.99953     1.92620    0.01747     2.94321
      C    5   -0.06830      0.99953     2.05910    0.00966     3.06830
      C    6   -0.09487      0.99957     2.08528    0.01002     3.09487
      C    7   -0.10738      0.99957     2.09845    0.00935     3.10738
      C    8   -0.07739      0.99959     2.06259    0.01521     3.07739
      C    9    0.00964      0.99946     1.98043    0.01046     2.99036
      C   10    0.02487      0.99949     1.95787    0.01777     2.97513
      C   11   -0.09552      0.99947     2.08737    0.00868     3.09552
      C   12    0.19309      0.99957     1.78542    0.02191     2.80691
      N   13   -0.15522      0.99969     2.64360    0.01193     3.65522
      N   14   -0.16418      0.99972     2.65063    0.01382     3.66418
      C   15    0.08315      0.99965     1.90224    0.01497     2.91685
      N   16   -0.22005      0.99959     2.70719    0.01327     3.72005
      C   17    0.06956      0.99959     1.92004    0.01081     2.93044
      C   18   -0.29072      0.99962     2.28444    0.00667     3.29072
      C   19   -0.29058      0.99962     2.28500    0.00596     3.29058
      C   20   -0.29034      0.99963     2.28517    0.00554     3.29034
      H   21    0.09435      0.00000     0.40466    0.00099     0.40565
      H   22    0.10425      0.00000     0.39469    0.00106     0.39575
      H   23    0.09701      0.00000     0.40202    0.00097     0.40299
      H   24    0.09462      0.00000     0.40390    0.00148     0.40538
      H   25    0.08810      0.00000     0.41081    0.00109     0.41190
      H   26    0.08934      0.00000     0.40967    0.00098     0.41066
      H   27    0.09433      0.00000     0.40399    0.00168     0.40567
      H   28    0.09212      0.00000     0.40693    0.00095     0.40788
      H   29    0.09276      0.00000     0.40505    0.00219     0.40724
      H   30    0.12136      0.00000     0.37768    0.00096     0.37864
      H   31    0.09517      0.00000     0.40405    0.00077     0.40483
      H   32    0.10515      0.00000     0.39395    0.00090     0.39485
      H   33    0.09905      0.00000     0.39999    0.00096     0.40095
      H   34    0.09616      0.00000     0.40298    0.00086     0.40384
      H   35    0.11824      0.00000     0.38051    0.00125     0.38176
      H   36    0.10018      0.00000     0.39878    0.00104     0.39982
      H   37    0.10348      0.00000     0.39546    0.00106     0.39652
      H   38    0.10281      0.00000     0.39641    0.00079     0.39719
 =======================================================================
   * Total *    0.00207     19.99176    50.75243    0.25373    70.99793

 Normal termination of Gaussian 16 at Mon Dec 14 15:22:41 2020.
