 Gaussian 16, Revision A.03,

 -----------------------------------------------------------
 # opt freq B3LYP/6-31G(d) empiricaldispersion=gd3bj scf=xqc
 -----------------------------------------------------------

 ------------------------------
 CID_130948853_JID_104_neutraal
 ------------------------------
 Symbolic Z-matrix:
 Charge =  0 Multiplicity = 1

 SCF Done:  E(RB3LYP) =  -456.041781396     A.U. after   14 cycles
 SCF Done:  E(RB3LYP) =  -456.047924027     A.U. after   12 cycles
 SCF Done:  E(RB3LYP) =  -456.049760035     A.U. after   12 cycles
 SCF Done:  E(RB3LYP) =  -456.050481443     A.U. after   12 cycles
 SCF Done:  E(RB3LYP) =  -456.050641037     A.U. after   12 cycles
 SCF Done:  E(RB3LYP) =  -456.050930261     A.U. after   11 cycles
 SCF Done:  E(RB3LYP) =  -456.050984758     A.U. after   10 cycles
 SCF Done:  E(RB3LYP) =  -456.050991560     A.U. after   10 cycles
 SCF Done:  E(RB3LYP) =  -456.050992845     A.U. after    8 cycles
 SCF Done:  E(RB3LYP) =  -456.050993215     A.U. after    7 cycles
 SCF Done:  E(RB3LYP) =  -456.050993307     A.U. after    7 cycles
 Optimization completed.
    -- Stationary point found.

 1\1\GINC-NODE321\FOpt\RB3LYP\6-31G(d)\C6H14N4\VSC10255\08-Dec-2020\0\\
 # opt freq B3LYP/6-31G(d) empiricaldispersion=gd3bj scf=xqc\\CID_13094
 8853_JID_104_neutraal\\0,1\C,1.0750689575,0.0164142854,-0.0780936238\C
 ,0.4529882505,0.4522684978,-1.4143036278\C,0.8598877632,-0.4433771009,
 -2.5511320193\C,0.0289450163,-1.1948791036,-3.2805697417\C,0.448745020
 8,-2.1130574244,-4.4032328566\N,-0.0913419477,-3.464054088,-4.28186109
 38\C,0.3185848494,-4.1993093674,-3.3131630646\N,1.2945821775,-3.895713
 1276,-2.3645869998\N,-0.2033450649,-5.491487157,-3.1578943323\N,-0.989

 Normal termination of Gaussian 16 at Tue Dec  8 10:16:53 2020.

 --------------------------------------------------------------------
 #N Geom=AllCheck Guess=TCheck SCRF=Check GenChk RB3LYP/6-31G(d) Freq
 --------------------------------------------------------------------

 Structure from the checkpoint file:  "JID_104.chk"
 ------------------------------
 CID_130948853_JID_104_neutraal
 ------------------------------
 Charge =  0 Multiplicity = 1

 SCF Done:  E(RB3LYP) =  -456.050993307     A.U. after    1 cycles

  Exact polarizability: 119.953   2.928  87.921   7.739   3.588  71.189
 Approx polarizability: 147.062   5.687 134.198  16.898  10.100 107.184

                      1                      2                      3
                      A                      A                      A
 Frequencies --     35.4475                58.2347                82.1600
 Red. masses --      3.3091                 3.7031                 2.5032
 Frc consts  --      0.0024                 0.0074                 0.0100
 IR Inten    --      0.3251                 1.1222                 0.7274

                      4                      5                      6
                      A                      A                      A
 Frequencies --    133.7017               177.5279               186.7485
 Red. masses --      2.7373                 2.4981                 2.6929
 Frc consts  --      0.0288                 0.0464                 0.0553
 IR Inten    --      0.1517                13.1229                 1.3988

                      7                      8                      9
                      A                      A                      A
 Frequencies --    204.3958               233.6317               249.4638
 Red. masses --      1.3724                 2.6209                 1.3801
 Frc consts  --      0.0338                 0.0843                 0.0506
 IR Inten    --      4.5815                 4.6019                13.0411

                     10                     11                     12
                      A                      A                      A
 Frequencies --    287.3129               300.6620               401.8911
 Red. masses --      2.0197                 2.2876                 3.1092
 Frc consts  --      0.0982                 0.1218                 0.2959
 IR Inten    --     18.4232                 3.2177                 6.1729

                     13                     14                     15
                      A                      A                      A
 Frequencies --    408.1411               432.0820               500.0545
 Red. masses --      1.1974                 2.3472                 2.7817
 Frc consts  --      0.1175                 0.2582                 0.4098
 IR Inten    --     29.0417                 4.5218                10.9697

                     16                     17                     18
                      A                      A                      A
 Frequencies --    543.6719               597.1776               686.4256
 Red. masses --      3.1463                 2.0908                 2.1921
 Frc consts  --      0.5479                 0.4393                 0.6085
 IR Inten    --     13.4125               130.1307               103.4116

                     19                     20                     21
                      A                      A                      A
 Frequencies --    729.5014               786.1566               798.4522
 Red. masses --      2.0309                 2.5231                 1.2158
 Frc consts  --      0.6368                 0.9188                 0.4567
 IR Inten    --    118.5039               135.1153                 4.7748

                     22                     23                     24
                      A                      A                      A
 Frequencies --    819.1982               891.9182               912.3088
 Red. masses --      1.7315                 2.7384                 1.9050
 Frc consts  --      0.6846                 1.2835                 0.9342
 IR Inten    --      2.7519                32.5136                 0.2715

                     25                     26                     27
                      A                      A                      A
 Frequencies --    986.3126              1016.8608              1029.2370
 Red. masses --      1.8996                 2.3022                 1.2539
 Frc consts  --      1.0888                 1.4025                 0.7826
 IR Inten    --      0.8581                52.0676                29.1340

                     28                     29                     30
                      A                      A                      A
 Frequencies --   1033.4971              1080.4881              1101.5344
 Red. masses --      1.6569                 3.0605                 1.7789
 Frc consts  --      1.0427                 2.1052                 1.2718
 IR Inten    --     10.0651                13.5728                 3.5309

                     31                     32                     33
                      A                      A                      A
 Frequencies --   1112.9301              1167.8262              1180.0638
 Red. masses --      1.8222                 2.0845                 2.4188
 Frc consts  --      1.3298                 1.6750                 1.9845
 IR Inten    --     11.1585                 1.7536                 1.9034

                     34                     35                     36
                      A                      A                      A
 Frequencies --   1257.2884              1264.7904              1296.1956
 Red. masses --      1.4579                 1.7133                 1.1909
 Frc consts  --      1.3578                 1.6149                 1.1788
 IR Inten    --     12.4694               104.2338                 8.6710

                     37                     38                     39
                      A                      A                      A
 Frequencies --   1331.0853              1339.4580              1363.9412
 Red. masses --      1.2304                 1.2835                 1.4674
 Frc consts  --      1.2844                 1.3568                 1.6084
 IR Inten    --      5.0798                 1.4232                28.2312

                     40                     41                     42
                      A                      A                      A
 Frequencies --   1377.4262              1395.1240              1406.4022
 Red. masses --      1.2416                 1.4203                 1.6579
 Frc consts  --      1.3879                 1.6287                 1.9321
 IR Inten    --     14.2223                 8.0641                93.0393

                     43                     44                     45
                      A                      A                      A
 Frequencies --   1435.6196              1506.9834              1511.8568
 Red. masses --      1.2263                 1.4685                 1.0729
 Frc consts  --      1.4891                 1.9649                 1.4449
 IR Inten    --      1.9992               106.6424                 2.0814

                     46                     47                     48
                      A                      A                      A
 Frequencies --   1525.3106              1528.6047              1536.2361
 Red. masses --      1.0924                 1.0410                 1.0672
 Frc consts  --      1.4974                 1.4331                 1.4839
 IR Inten    --      8.4365                 6.1574                 2.6373

                     49                     50                     51
                      A                      A                      A
 Frequencies --   1692.8544              1743.2505              1744.3103
 Red. masses --      1.2276                 2.2202                 3.8156
 Frc consts  --      2.0728                 3.9753                 6.8401
 IR Inten    --     73.0339               212.8038                44.7649

                     52                     53                     54
                      A                      A                      A
 Frequencies --   1755.6275              2988.8559              3026.7395
 Red. masses --      1.6185                 1.0690                 1.0650
 Frc consts  --      2.9391                 5.6263                 5.7485
 IR Inten    --     63.5798                53.3139                35.0698

                     55                     56                     57
                      A                      A                      A
 Frequencies --   3044.9376              3049.3639              3072.7056
 Red. masses --      1.0350                 1.0928                 1.0967
 Frc consts  --      5.6538                 5.9869                 6.1007
 IR Inten    --     30.5650                33.3552                 6.1242

                     58                     59                     60
                      A                      A                      A
 Frequencies --   3110.5103              3116.9920              3118.3592
 Red. masses --      1.0973                 1.0939                 1.1027
 Frc consts  --      6.2551                 6.2620                 6.3178
 IR Inten    --      7.9469                59.2563                44.9501

                     61                     62                     63
                      A                      A                      A
 Frequencies --   3149.8463              3403.8718              3500.4479
 Red. masses --      1.0883                 1.0530                 1.0872
 Frc consts  --      6.3621                 7.1881                 7.8489
 IR Inten    --     23.0080                16.3711                 1.7807

                     64                     65                     66
                      A                      A                      A
 Frequencies --   3528.0299              3537.6538              3621.7115
 Red. masses --      1.0487                 1.0751                 1.0972
 Frc consts  --      7.6906                 7.9273                 8.4795
 IR Inten    --     44.0994                 6.6593                52.9967

 - Thermochemistry -
 -------------------
 Temperature   298.150 Kelvin.  Pressure   1.00000 Atm.
 Atom     1 has atomic number  6 and mass  12.00000

 Molecular mass:   142.12185 amu.
 Principal axes and moments of inertia in atomic units:
                           1         2         3
     Eigenvalues --   665.023493213.524323585.21116
           X            0.99992   0.01290  -0.00118
           Y           -0.01290   0.99992   0.00014
           Z            0.00118  -0.00012   1.00000
 This molecule is an asymmetric top.
 Rotational symmetry number  1.
 Warning -- assumption of classical behavior for rotation
           may cause significant error
 Rotational temperatures (Kelvin)      0.13024     0.02695     0.02416
 Rotational constants (GHZ):           2.71380     0.56161     0.50338
 Zero-point vibrational energy     558939.6 (Joules/Mol)
                                  133.58977 (Kcal/Mol)
 Warning -- explicit consideration of  17 degrees of freedom as
           vibrations may cause significant error
 Vibrational temperatures:     51.00    83.79   118.21   192.37   255.42
          (Kelvin)            268.69   294.08   336.14   358.92   413.38
                              432.59   578.23   587.22   621.67   719.47
                              782.22   859.21   987.61  1049.59  1131.10
                             1148.79  1178.64  1283.27  1312.61  1419.08
                             1463.04  1480.84  1486.97  1554.58  1584.86
                             1601.26  1680.24  1697.85  1808.96  1819.75
                             1864.94  1915.13  1927.18  1962.41  1981.81
                             2007.27  2023.50  2065.54  2168.21  2175.22
                             2194.58  2199.32  2210.30  2435.64  2508.15
                             2509.67  2525.96  4300.30  4354.80  4380.99
                             4387.35  4420.94  4475.33  4484.66  4486.62
                             4531.93  4897.41  5036.36  5076.05  5089.89
                             5210.84

 Zero-point correction=                           0.212889 (Hartree/Particle)
 Thermal correction to Energy=                    0.224837
 Thermal correction to Enthalpy=                  0.225781
 Thermal correction to Gibbs Free Energy=         0.174485
 Sum of electronic and zero-point Energies=           -455.838104
 Sum of electronic and thermal Energies=              -455.826157
 Sum of electronic and thermal Enthalpies=            -455.825213
 Sum of electronic and thermal Free Energies=         -455.876508

                     E (Thermal)             CV                S
                      KCal/Mol        Cal/Mol-Kelvin    Cal/Mol-Kelvin
 Total                  141.087             43.111            107.961
 Electronic               0.000              0.000              0.000
 Translational            0.889              2.981             40.766
 Rotational               0.889              2.981             30.417
 Vibrational            139.310             37.150             36.778
 Vibration     1          0.594              1.982              5.499
 Vibration     2          0.596              1.974              4.516
 Vibration     3          0.600              1.961              3.839
 Vibration     4          0.613              1.920              2.892
 Vibration     5          0.628              1.870              2.354
 Vibration     6          0.632              1.858              2.260
 Vibration     7          0.640              1.834              2.093
 Vibration     8          0.654              1.789              1.851
 Vibration     9          0.662              1.764              1.734
 Vibration    10          0.684              1.697              1.490
 Vibration    11          0.693              1.672              1.413
 Vibration    12          0.768              1.466              0.956
 Vibration    13          0.773              1.453              0.933
 Vibration    14          0.793              1.400              0.852
 Vibration    15          0.855              1.250              0.658
 Vibration    16          0.899              1.154              0.557
 Vibration    17          0.955              1.038              0.455

                           ! Non-Optimized Parameters !

 1\1\GINC-NODE321\Freq\RB3LYP\6-31G(d)\C6H14N4\VSC10255\08-Dec-2020\0\\
 #N Geom=AllCheck Guess=TCheck SCRF=Check GenChk RB3LYP/6-31G(d) Freq\\
 CID_130948853_JID_104_neutraal\\0,1\C,1.0750689575,0.0164142854,-0.078
 0936238\C,0.4529882505,0.4522684978,-1.4143036278\C,0.8598877632,-0.44
 33771009,-2.5511320193\C,0.0289450163,-1.1948791036,-3.2805697417\C,0.
 4487450208,-2.1130574244,-4.4032328566\N,-0.0913419477,-3.464054088,-4
 .2818610938\C,0.3185848494,-4.1993093674,-3.3131630646\N,1.2945821775,
 -3.8957131276,-2.3645869998\N,-0.2033450649,-5.491487157,-3.1578943323

 Normal termination of Gaussian 16 at Tue Dec  8 10:20:26 2020.

 ----------------------------------------------------------------------
 # B3LYP/6-311++G(d,p) empiricaldispersion=gd3bj scf=xqc pop=npa geom=c
 heck
 ----------------------------------------------------------------------

 --------------------------------------
 CID_130948853_JID_104_Energie_neutraal
 --------------------------------------
 Structure from the checkpoint file:  "JID_104.chk"
 Charge =  0 Multiplicity = 1

 SCF Done:  E(RB3LYP) =  -456.199723965     A.U. after   13 cycles
 Normal termination of Gaussian 16 at Tue Dec  8 10:21:40 2020.

 ----------------------------------------------------------------------
 # B3LYP/6-311++G(d,p) empiricaldispersion=gd3bj scf=xqc pop=npa geom=c
 heck
 ----------------------------------------------------------------------

 ------------------------------------
 CID_130948853_JID_104_Energie_kation
 ------------------------------------
 Structure from the checkpoint file:  "JID_104.chk"
 Charge =  1 Multiplicity = 2

 SCF Done:  E(UB3LYP) =  -455.894287973     A.U. after   24 cycles
 Normal termination of Gaussian 16 at Tue Dec  8 10:24:32 2020.
 Gaussian 16:  ES64L-G16RevA.03 25-Dec-2016

 -----------------------------------
 CID_130948853_JID_104_Energie_anion
 -----------------------------------
 Structure from the checkpoint file:  "JID_104.chk"
 Charge = -1 Multiplicity = 2

                         Standard orientation:
 ---------------------------------------------------------------------
 Center     Atomic      Atomic             Coordinates (Angstroms)
 Number     Number       Type             X           Y           Z
 ---------------------------------------------------------------------
      1          6           0        3.670763    1.302607   -0.244001
      2          6           0        3.362629   -0.182602   -0.492231
      3          6           0        2.158777   -0.650899    0.276902
      4          6           0        1.024921   -1.109159   -0.263163
      5          6           0       -0.190287   -1.551988    0.515828
      6          7           0       -1.431898   -0.937838    0.054481
      7          6           0       -1.586277    0.325008    0.223012
      8          7           0       -0.726017    1.211512    0.870005
      9          7           0       -2.757954    0.944832   -0.234409
     10          7           0       -3.820280    0.095733   -0.651798
     11          1           0        2.836456    1.932007   -0.574508
     12          1           0        4.569669    1.617759   -0.785181
     13          1           0        3.835536    1.498622    0.822320
     14          1           0        3.205027   -0.356045   -1.563849
     15          1           0        4.239077   -0.780379   -0.202902
     16          1           0        2.236279   -0.592845    1.366270
     17          1           0        0.929033   -1.165225   -1.348386
     18          1           0       -0.310724   -2.637063    0.400402
     19          1           0       -0.019083   -1.370654    1.590003
     20          1           0       -0.827384    2.171460    0.557594
     21          1           0        0.244962    0.920641    0.832360
     22          1           0       -3.109540    1.638970    0.417990
     23          1           0       -3.682026   -0.055297   -1.650914
     24          1           0       -3.637397   -0.819425   -0.227236
 ---------------------------------------------------------------------

 SCF Done:  E(UB3LYP) =  -456.184987604     A.U. after   32 cycles

 The electronic state is 2-A.
 Alpha  occ. eigenvalues --  -14.24675 -14.22979 -14.21712 -14.17636 -10.16395
 Alpha  occ. eigenvalues --  -10.09677 -10.07066 -10.06842 -10.06727 -10.04943
 Alpha  occ. eigenvalues --   -0.90597  -0.82955  -0.76831  -0.70437  -0.68187
 Alpha  occ. eigenvalues --   -0.64340  -0.57957  -0.51275  -0.47939  -0.45302
 Alpha  occ. eigenvalues --   -0.43298  -0.41733  -0.40114  -0.36368  -0.36077
 Alpha  occ. eigenvalues --   -0.35749  -0.32786  -0.32284  -0.30731  -0.28067
 Alpha  occ. eigenvalues --   -0.27246  -0.26190  -0.23808  -0.23523  -0.19400
 Alpha  occ. eigenvalues --   -0.16224  -0.15607  -0.15331  -0.13339   0.04829
 Alpha virt. eigenvalues --    0.06998   0.07851   0.08359   0.09236   0.09463
 Alpha virt. eigenvalues --    0.10102   0.10354   0.11039   0.11666   0.12144
 Alpha virt. eigenvalues --    0.13330   0.13701   0.13721   0.14593   0.15567

  Beta  occ. eigenvalues --  -14.24649 -14.22973 -14.21648 -14.17631 -10.16391
  Beta  occ. eigenvalues --  -10.09672 -10.07061 -10.06814 -10.06706 -10.04882
  Beta  occ. eigenvalues --   -0.90569  -0.82915  -0.76773  -0.70397  -0.68143
  Beta  occ. eigenvalues --   -0.64285  -0.57906  -0.51171  -0.47886  -0.45235
  Beta  occ. eigenvalues --   -0.43205  -0.41684  -0.40101  -0.36322  -0.36036
  Beta  occ. eigenvalues --   -0.35698  -0.32745  -0.32240  -0.30692  -0.28019
  Beta  occ. eigenvalues --   -0.27183  -0.26122  -0.23762  -0.23473  -0.19375
  Beta  occ. eigenvalues --   -0.16176  -0.15591  -0.15260  -0.13316
  Beta virt. eigenvalues --    0.07319   0.07824   0.08503   0.08653   0.09660
  Beta virt. eigenvalues --    0.10139   0.10479   0.10529   0.11445   0.12222
  Beta virt. eigenvalues --    0.12550   0.13525   0.13795   0.14354   0.14921

 Mulliken charges and spin densities:
               1          2
     1  C    1.745108  -2.314731
     2  C   -1.074179   0.792802
     3  C   -0.610837   0.619826
     4  C    0.710888  -0.643361
     5  C    0.810451  -1.443775
     6  N   -0.193691   0.005598
     7  C    0.138438  -0.293735
     8  N   -0.177977  -0.150672
     9  N   -0.285042   0.125768
    10  N   -0.332938  -0.023056
    11  H   -0.212595   0.356614
    12  H   -0.618897   0.760639
    13  H   -0.502215   0.645703
    14  H   -0.276733   0.415757
    15  H   -0.122837   0.245620
    16  H   -0.407435   0.573873
    17  H   -0.014537   0.167964
    18  H    0.160138  -0.004609
    19  H   -0.022415   0.189279
    20  H   -0.595155   0.861908
    21  H    0.539416  -0.274909
    22  H   -0.072220   0.337539
    23  H    0.191672   0.048722
    24  H    0.223592   0.001234
 Sum of Mulliken charges =  -1.00000   1.00000

 Dipole moment (field-independent basis, Debye):
    X=             -5.1474    Y=             -6.3991    Z=             -0.7207  Tot=              8.2440
 Quadrupole moment (field-independent basis, Debye-Ang):
   XX=           -143.2793   YY=           -104.5891   ZZ=            -88.3711
   XY=             -5.6232   XZ=              2.3067   YZ=             -0.6132

 Summary of Natural Population Analysis:

                                       Natural Population
                Natural  -----------------------------------------------
    Atom  No    Charge         Core      Valence    Rydberg      Total
 -----------------------------------------------------------------------
      C    1   -0.28146      0.99966     2.27688    0.00492     3.28146
      C    2   -0.20542      0.99963     2.19540    0.01039     3.20542
      C    3   -0.09411      0.99951     2.08406    0.01055     3.09411
      C    4   -0.09682      0.99950     2.08863    0.00870     3.09682
      C    5   -0.11272      0.99959     2.10136    0.01177     3.11272
      N    6   -0.31748      0.99964     2.80721    0.01063     3.81748
      C    7    0.30446      0.99960     1.67847    0.01747     2.69554
      N    8   -0.41487      0.99971     2.90433    0.01083     3.91487
      N    9   -0.24274      0.99968     2.72863    0.01443     3.74274
      N   10   -0.32326      0.99978     2.81259    0.01089     3.82326
      H   11    0.09958      0.00000     0.39792    0.00250     0.40042
      H   12    0.10055      0.00000     0.39698    0.00247     0.39945
      H   13    0.09751      0.00000     0.40019    0.00229     0.40249
      H   14    0.09600      0.00000     0.40271    0.00129     0.40400
      H   15    0.09909      0.00000     0.39953    0.00137     0.40091
      H   16    0.09093      0.00000     0.40761    0.00147     0.40907
      H   17    0.09348      0.00000     0.40515    0.00137     0.40652
      H   18    0.09526      0.00000     0.40335    0.00139     0.40474
      H   19    0.08789      0.00000     0.41016    0.00195     0.41211
      H   20    0.19556      0.00000     0.29599    0.00845     0.30444
      H   21    0.19958      0.00000     0.29742    0.00301     0.30042
      H   22    0.18155      0.00000     0.31400    0.00445     0.31845
      H   23    0.16915      0.00000     0.32854    0.00231     0.33085
      H   24    0.17829      0.00000     0.31900    0.00272     0.32171
 =======================================================================
   * Total *   -0.00000      9.99630    28.85611    0.14759    39.00000

 Normal termination of Gaussian 16 at Tue Dec  8 10:28:21 2020.
