 Gaussian 16, Revision A.03,

 -----------------------------------------------------------
 # opt freq B3LYP/6-31G(d) empiricaldispersion=gd3bj scf=xqc
 -----------------------------------------------------------

 -------------------------------
 CID_110718982_JID_4491_neutraal
 -------------------------------
 Symbolic Z-matrix:
 Charge =  0 Multiplicity = 1

 SCF Done:  E(RB3LYP) =  -1046.59846465     A.U. after   15 cycles
 SCF Done:  E(RB3LYP) =  -1046.60410665     A.U. after   12 cycles
 SCF Done:  E(RB3LYP) =  -1046.60197401     A.U. after   13 cycles
 SCF Done:  E(RB3LYP) =  -1046.60525487     A.U. after   12 cycles
 SCF Done:  E(RB3LYP) =  -1046.60619061     A.U. after   12 cycles
 SCF Done:  E(RB3LYP) =  -1046.60689442     A.U. after   12 cycles
 SCF Done:  E(RB3LYP) =  -1046.60739443     A.U. after   13 cycles
 SCF Done:  E(RB3LYP) =  -1046.60789032     A.U. after   12 cycles
 SCF Done:  E(RB3LYP) =  -1046.60854587     A.U. after   13 cycles
 SCF Done:  E(RB3LYP) =  -1046.60846067     A.U. after   13 cycles
 SCF Done:  E(RB3LYP) =  -1046.60969808     A.U. after    9 cycles
 SCF Done:  E(RB3LYP) =  -1046.60969863     A.U. after    8 cycles
 SCF Done:  E(RB3LYP) =  -1046.60969896     A.U. after    7 cycles
 SCF Done:  E(RB3LYP) =  -1046.60969903     A.U. after    7 cycles
 SCF Done:  E(RB3LYP) =  -1046.60969909     A.U. after    7 cycles
 Optimization completed.
    -- Stationary point found.
 Normal termination of Gaussian 16 at Thu Dec 10 10:00:14 2020.

 --------------------------------------------------------------------
 #N Geom=AllCheck Guess=TCheck SCRF=Check GenChk RB3LYP/6-31G(d) Freq
 --------------------------------------------------------------------

 Structure from the checkpoint file:  "JID_4491.chk"
 -------------------------------
 CID_110718982_JID_4491_neutraal
 -------------------------------
 Charge =  0 Multiplicity = 1

 SCF Done:  E(RB3LYP) =  -1046.60969909     A.U. after    1 cycles

  Exact polarizability: 128.862  -7.699 112.281   4.686   2.521 100.403
 Approx polarizability: 180.028 -15.101 164.896  15.143  13.550 173.765

                      1                      2                      3
                      A                      A                      A
 Frequencies --     31.4446                43.1455                57.3342
 Red. masses --      4.5762                 5.1580                 3.4583
 Frc consts  --      0.0027                 0.0057                 0.0067
 IR Inten    --      0.9960                 1.3203                 2.8166

                      4                      5                      6
                      A                      A                      A
 Frequencies --     91.0596               107.7894               150.1636
 Red. masses --      3.6817                 5.2477                 3.5415
 Frc consts  --      0.0180                 0.0359                 0.0471
 IR Inten    --      0.3478                 5.3223                 0.7342

                      7                      8                      9
                      A                      A                      A
 Frequencies --    171.4039               183.6553               217.4396
 Red. masses --      2.2495                 3.5044                 1.5278
 Frc consts  --      0.0389                 0.0696                 0.0426
 IR Inten    --      0.2638                 1.7408                 0.4644

                     10                     11                     12
                      A                      A                      A
 Frequencies --    228.0107               268.2793               279.6926
 Red. masses --      3.2982                 3.3932                 3.0207
 Frc consts  --      0.1010                 0.1439                 0.1392
 IR Inten    --      4.1443                 5.9040                 0.7828

                     13                     14                     15
                      A                      A                      A
 Frequencies --    318.9444               325.1199               392.0934
 Red. masses --      3.6177                 4.3948                 2.1232
 Frc consts  --      0.2168                 0.2737                 0.1923
 IR Inten    --      1.2891                 4.6228                 1.8142

                     16                     17                     18
                      A                      A                      A
 Frequencies --    432.2048               461.4239               493.1639
 Red. masses --      2.5181                 5.2552                 2.4400
 Frc consts  --      0.2771                 0.6592                 0.3496
 IR Inten    --      4.0553                27.5644                16.9282

                     19                     20                     21
                      A                      A                      A
 Frequencies --    532.4489               587.8938               628.1364
 Red. masses --      2.5399                 3.8641                 3.2693
 Frc consts  --      0.4243                 0.7869                 0.7600
 IR Inten    --     87.8109                13.0019                26.1897

                     22                     23                     24
                      A                      A                      A
 Frequencies --    661.6733               673.5499               713.2502
 Red. masses --      3.9002                 3.5541                 3.9717
 Frc consts  --      1.0061                 0.9500                 1.1904
 IR Inten    --     33.1319                16.3385                83.1922

                     25                     26                     27
                      A                      A                      A
 Frequencies --    769.3996               775.2277               807.9042
 Red. masses --      1.4143                 1.4555                 2.0261
 Frc consts  --      0.4933                 0.5154                 0.7792
 IR Inten    --      5.9898                23.7474                 0.5381

                     28                     29                     30
                      A                      A                      A
 Frequencies --    811.9767               828.2979               890.7967
 Red. masses --      2.8254                 1.4639                 1.4081
 Frc consts  --      1.0975                 0.5918                 0.6583
 IR Inten    --     37.3198                32.5501                 2.5915

                     31                     32                     33
                      A                      A                      A
 Frequencies --    923.6382               939.3048               993.1067
 Red. masses --      1.9917                 5.7462                 1.7687
 Frc consts  --      1.0011                 2.9871                 1.0278
 IR Inten    --     17.0832                24.6178                 2.0489

                     34                     35                     36
                      A                      A                      A
 Frequencies --   1005.6084              1025.6053              1069.2802
 Red. masses --      4.7536                 1.9984                 1.9714
 Frc consts  --      2.8323                 1.2385                 1.3281
 IR Inten    --      9.8212                 9.2378                 6.7303

                     37                     38                     39
                      A                      A                      A
 Frequencies --   1094.8639              1104.0506              1113.1836
 Red. masses --      2.6454                 1.4450                 4.7640
 Frc consts  --      1.8684                 1.0378                 3.4782
 IR Inten    --     38.4341                 7.8584                62.6188

                     40                     41                     42
                      A                      A                      A
 Frequencies --   1128.4522              1135.9831              1140.7845
 Red. masses --      4.9545                 2.2025                 8.3194
 Frc consts  --      3.7172                 1.6746                 6.3789
 IR Inten    --    116.8432                23.4933                 2.6359

                     43                     44                     45
                      A                      A                      A
 Frequencies --   1200.4370              1246.2494              1258.3654
 Red. masses --      1.3097                 1.4447                 1.7063
 Frc consts  --      1.1120                 1.3221                 1.5919
 IR Inten    --      4.7437                 9.0155                 6.1459

                     46                     47                     48
                      A                      A                      A
 Frequencies --   1260.2022              1282.5360              1312.2316
 Red. masses --      1.7424                 1.1705                 1.7538
 Frc consts  --      1.6304                 1.1344                 1.7793
 IR Inten    --     12.4118                 8.5524                56.0380

                     49                     50                     51
                      A                      A                      A
 Frequencies --   1328.0017              1345.1694              1348.8081
 Red. masses --      1.7843                 1.2614                 2.1147
 Frc consts  --      1.8540                 1.3448                 2.2667
 IR Inten    --     57.2144                 2.4373                37.4360

                     52                     53                     54
                      A                      A                      A
 Frequencies --   1399.9788              1408.5309              1410.0222
 Red. masses --      1.3341                 1.5314                 1.6156
 Frc consts  --      1.5405                 1.7901                 1.8925
 IR Inten    --      2.0892                15.1305                62.5700

                     55                     56                     57
                      A                      A                      A
 Frequencies --   1446.3256              1461.3270              1488.6646
 Red. masses --      1.2581                 1.4230                 1.0960
 Frc consts  --      1.5507                 1.7904                 1.4310
 IR Inten    --      8.3364                 6.1758                 8.6406

                     58                     59                     60
                      A                      A                      A
 Frequencies --   1505.5293              1515.4361              1529.1381
 Red. masses --      1.0852                 1.0749                 1.0483
 Frc consts  --      1.4492                 1.4545                 1.4442
 IR Inten    --      7.5131                 4.4388                10.3715

                     61                     62                     63
                      A                      A                      A
 Frequencies --   1530.9266              1542.4321              1566.2339
 Red. masses --      1.0511                 1.0871                 5.4175
 Frc consts  --      1.4514                 1.5238                 7.8300
 IR Inten    --      3.2561                 2.1105                43.4464

                     64                     65                     66
                      A                      A                      A
 Frequencies --   1654.5478              3038.6446              3041.1606
 Red. masses --      6.5747                 1.0607                 1.0676
 Frc consts  --     10.6043                 5.7701                 5.8174
 IR Inten    --      4.9107                16.7369                20.9173

                     67                     68                     69
                      A                      A                      A
 Frequencies --   3045.6171              3059.9893              3077.8741
 Red. masses --      1.0429                 1.0704                 1.0980
 Frc consts  --      5.6995                 5.9052                 6.1284
 IR Inten    --     34.6975                19.3269                16.8363

                     70                     71                     72
                      A                      A                      A
 Frequencies --   3089.4011              3095.5584              3113.2824
 Red. masses --      1.0645                 1.0919                 1.0925
 Frc consts  --      5.9864                 6.1650                 6.2388
 IR Inten    --      5.0591                27.4533                14.4870

                     73                     74                     75
                      A                      A                      A
 Frequencies --   3119.9478              3129.9445              3145.8184
 Red. masses --      1.0981                 1.0993                 1.1052
 Frc consts  --      6.2976                 6.3450                 6.4438
 IR Inten    --     31.5967                27.1707                 4.8943

                     76                     77                     78
                      A                      A                      A
 Frequencies --   3299.3252              3348.5935              3567.2042
 Red. masses --      1.0987                 1.1012                 1.0762
 Frc consts  --      7.0469                 7.2749                 8.0683
 IR Inten    --      0.4874                 5.2329                34.1898

 - Thermochemistry -
 -------------------
 Temperature   298.150 Kelvin.  Pressure   1.00000 Atm.
 Atom     1 has atomic number  6 and mass  12.00000

 Molecular mass:   218.07251 amu.
 Principal axes and moments of inertia in atomic units:
                           1         2         3
     Eigenvalues --  2132.165613689.659204735.93124
           X            0.99965   0.02646   0.00190
           Y           -0.02644   0.99963  -0.00702
           Z           -0.00209   0.00696   0.99997
 This molecule is an asymmetric top.
 Rotational symmetry number  1.
 Warning -- assumption of classical behavior for rotation
           may cause significant error
 Rotational temperatures (Kelvin)      0.04062     0.02347     0.01829
 Rotational constants (GHZ):           0.84644     0.48913     0.38107
 Zero-point vibrational energy     603039.0 (Joules/Mol)
                                  144.12977 (Kcal/Mol)
 Warning -- explicit consideration of  20 degrees of freedom as
           vibrations may cause significant error
 Vibrational temperatures:     45.24    62.08    82.49   131.01   155.08
          (Kelvin)            216.05   246.61   264.24   312.85   328.06
                              385.99   402.42   458.89   467.78   564.13
                              621.85   663.89   709.55   766.08   845.85
                              903.75   952.00   969.09  1026.21  1106.99
                             1115.38  1162.39  1168.25  1191.74  1281.66
                             1328.91  1351.45  1428.86  1446.85  1475.62
                             1538.46  1575.26  1588.48  1601.62  1623.59
                             1634.43  1641.33  1727.16  1793.07  1810.51
                             1813.15  1845.28  1888.01  1910.70  1935.40
                             1940.63  2014.26  2026.56  2028.71  2080.94
                             2102.52  2141.86  2166.12  2180.37  2200.09
                             2202.66  2219.22  2253.46  2380.53  4371.93
                             4375.55  4381.96  4402.64  4428.37  4444.96
                             4453.82  4479.32  4488.91  4503.29  4526.13
                             4746.99  4817.88  5132.41

 Zero-point correction=                           0.229685 (Hartree/Particle)
 Thermal correction to Energy=                    0.244066
 Thermal correction to Enthalpy=                  0.245010
 Thermal correction to Gibbs Free Energy=         0.187214
 Sum of electronic and zero-point Energies=          -1046.380014
 Sum of electronic and thermal Energies=             -1046.365633
 Sum of electronic and thermal Enthalpies=           -1046.364689
 Sum of electronic and thermal Free Energies=        -1046.422485

                     E (Thermal)             CV                S
                      KCal/Mol        Cal/Mol-Kelvin    Cal/Mol-Kelvin
 Total                  153.154             53.160            121.641
 Electronic               0.000              0.000              0.000
 Translational            0.889              2.981             42.042
 Rotational               0.889              2.981             31.988
 Vibrational            151.376             47.198             47.611
 Vibration     1          0.594              1.983              5.736
 Vibration     2          0.595              1.980              5.109
 Vibration     3          0.596              1.975              4.547
 Vibration     4          0.602              1.956              3.637
 Vibration     5          0.606              1.943              3.308
 Vibration     6          0.618              1.902              2.670
 Vibration     7          0.626              1.878              2.420
 Vibration     8          0.631              1.862              2.291
 Vibration     9          0.646              1.814              1.980
 Vibration    10          0.651              1.798              1.895
 Vibration    11          0.673              1.731              1.607
 Vibration    12          0.680              1.711              1.536
 Vibration    13          0.705              1.637              1.316
 Vibration    14          0.709              1.625              1.284
 Vibration    15          0.760              1.487              0.992
 Vibration    16          0.793              1.400              0.851
 Vibration    17          0.819              1.336              0.762
 Vibration    18          0.849              1.265              0.675
 Vibration    19          0.887              1.178              0.582
 Vibration    20          0.945              1.058              0.471

 Optimization completed.
    -- Stationary point found.
 Normal termination of Gaussian 16 at Thu Dec 10 10:08:07 2020.

 ----------------------------------------------------------------------
 # B3LYP/6-311++G(d,p) empiricaldispersion=gd3bj scf=xqc pop=npa geom=c
 heck
 ----------------------------------------------------------------------

 ---------------------------------------
 CID_110718982_JID_4491_Energie_neutraal
 ---------------------------------------
 Structure from the checkpoint file:  "JID_4491.chk"
 Charge =  0 Multiplicity = 1

 SCF Done:  E(RB3LYP) =  -1046.82662174     A.U. after   16 cycles
 Normal termination of Gaussian 16 at Thu Dec 10 10:11:36 2020.

 ----------------------------------------------------------------------
 # B3LYP/6-311++G(d,p) empiricaldispersion=gd3bj scf=xqc pop=npa geom=c
 heck
 ----------------------------------------------------------------------

 -------------------------------------
 CID_110718982_JID_4491_Energie_kation
 -------------------------------------
 Structure from the checkpoint file:  "JID_4491.chk"
 Charge =  1 Multiplicity = 2

 SCF Done:  E(UB3LYP) =  -1046.49455668     A.U. after   23 cycles
 Normal termination of Gaussian 16 at Thu Dec 10 10:18:41 2020.
 Gaussian 16:  ES64L-G16RevA.03 25-Dec-2016

 ----------------------------------------------------------------------
 # B3LYP/6-311++G(d,p) empiricaldispersion=gd3bj scf=xqc pop=npa geom=c
 heck
 ----------------------------------------------------------------------

 ------------------------------------
 CID_110718982_JID_4491_Energie_anion
 ------------------------------------
 Structure from the checkpoint file:  "JID_4491.chk"
 Charge = -1 Multiplicity = 2

                         Standard orientation:
 ---------------------------------------------------------------------
 Center     Atomic      Atomic             Coordinates (Angstroms)
 Number     Number       Type             X           Y           Z
 ---------------------------------------------------------------------
      1          6           0       -0.008357    3.074533    0.609713
      2          6           0        0.304119    2.250614   -0.642393
      3          6           0        1.775125    1.832218   -0.767338
      4          6           0        2.250857    0.781639    0.238672
      5         16           0        1.675446   -0.929220   -0.133329
      6          8           0        0.955981   -0.899024   -1.408244
      7          8           0        2.814988   -1.828333    0.074790
      8          7           0        0.583585   -1.395152    1.073398
      9          6           0       -0.524904   -0.541433    1.507963
     10          6           0       -1.675439   -0.522084    0.552573
     11          6           0       -1.929146   -1.263712   -0.554692
     12          8           0       -3.137424   -0.852808   -1.062931
     13          6           0       -3.547356    0.125634   -0.218556
     14          7           0       -2.729411    0.371683    0.755191
     15          1           0        0.303212    2.567675    1.531295
     16          1           0       -1.083650    3.259127    0.696321
     17          1           0        0.507150    4.042225    0.584043
     18          1           0       -0.332050    1.361444   -0.684731
     19          1           0        0.043834    2.842694   -1.528280
     20          1           0        1.964708    1.450280   -1.774805
     21          1           0        2.417844    2.713454   -0.635048
     22          1           0        3.338132    0.671833    0.216473
     23          1           0        1.958479    1.010871    1.267774
     24          1           0        1.118757   -1.796708    1.837028
     25          1           0       -0.860427   -0.948355    2.468979
     26          1           0       -0.215997    0.493412    1.710778
     27          1           0       -1.388806   -2.014001   -1.104308
     28          1           0       -4.495270    0.594716   -0.436954
 ---------------------------------------------------------------------

 SCF Done:  E(UB3LYP) =  -1046.81745869     A.U. after   33 cycles
 SCF Done:  E(UB3LYP) =  -1046.81745869     a.u. after    1 cycles

 The electronic state is 2-A.
 Alpha  occ. eigenvalues --  -88.96227 -19.11766 -19.01984 -19.01628 -14.24638
 Alpha  occ. eigenvalues --  -14.22967 -10.17418 -10.13645 -10.12740 -10.11765
 Alpha  occ. eigenvalues --  -10.11152 -10.08375 -10.07150 -10.06087  -8.02439
 Alpha  occ. eigenvalues --   -5.98722  -5.98683  -5.98507  -1.05086  -1.02053
 Alpha  occ. eigenvalues --   -0.91202  -0.84524  -0.82707  -0.71976  -0.69419
 Alpha  occ. eigenvalues --   -0.65607  -0.62532  -0.57903  -0.53473  -0.52454
 Alpha  occ. eigenvalues --   -0.50596  -0.48103  -0.44903  -0.43389  -0.40556
 Alpha  occ. eigenvalues --   -0.39847  -0.38841  -0.37780  -0.37057  -0.36163
 Alpha  occ. eigenvalues --   -0.34970  -0.34807  -0.32317  -0.31728  -0.30923
 Alpha  occ. eigenvalues --   -0.30316  -0.29724  -0.25824  -0.24578  -0.24254
 Alpha  occ. eigenvalues --   -0.23752  -0.23353  -0.22390  -0.21411  -0.21347
 Alpha  occ. eigenvalues --   -0.20679  -0.18257  -0.15740   0.04234
 Alpha virt. eigenvalues --    0.06294   0.06480   0.07265   0.08443   0.08521
 Alpha virt. eigenvalues --    0.09868   0.10054   0.10635   0.11139   0.11623
 Alpha virt. eigenvalues --    0.12532   0.12734   0.13521   0.13757   0.14222

  Beta  occ. eigenvalues --  -88.96226 -19.11759 -19.01972 -19.01624 -14.24598
  Beta  occ. eigenvalues --  -14.22965 -10.17409 -10.13632 -10.12697 -10.11763
  Beta  occ. eigenvalues --  -10.11108 -10.08358 -10.07143 -10.06052  -8.02438
  Beta  occ. eigenvalues --   -5.98721  -5.98681  -5.98506  -1.05073  -1.02031
  Beta  occ. eigenvalues --   -0.91180  -0.84501  -0.82652  -0.71935  -0.69383
  Beta  occ. eigenvalues --   -0.65557  -0.62465  -0.57836  -0.53428  -0.52420
  Beta  occ. eigenvalues --   -0.50548  -0.48033  -0.44866  -0.43328  -0.40477
  Beta  occ. eigenvalues --   -0.39806  -0.38814  -0.37743  -0.37035  -0.36132
  Beta  occ. eigenvalues --   -0.34938  -0.34771  -0.32272  -0.31690  -0.30882
  Beta  occ. eigenvalues --   -0.30268  -0.29672  -0.25793  -0.24543  -0.24221
  Beta  occ. eigenvalues --   -0.23723  -0.23331  -0.22376  -0.21396  -0.21329
  Beta  occ. eigenvalues --   -0.20651  -0.18215  -0.15698
  Beta virt. eigenvalues --    0.06474   0.07009   0.07264   0.08149   0.08819
  Beta virt. eigenvalues --    0.09070   0.10070   0.10621   0.11074   0.11556
  Beta virt. eigenvalues --    0.11924   0.12738   0.12928   0.13797   0.13911

 Mulliken charges and spin densities:
               1          2
     1  C    0.631959  -1.241604
     2  C   -0.039526   0.154307
     3  C   -0.845697   0.443255
     4  C   -0.006004  -0.690503
     5  S    1.328625  -0.973448
     6  O   -0.202801   0.012215
     7  O   -0.262062   0.024707
     8  N   -0.740164   0.473667
     9  C    2.105121  -2.573872
    10  C   -1.165106   1.071289
    11  C   -0.064374  -0.401615
    12  O    0.017757  -0.001957
    13  C   -0.032743   0.200552
    14  N   -0.092150   0.083596
    15  H   -0.372198   0.501239
    16  H    0.152498  -0.009873
    17  H   -0.332062   0.470132
    18  H    0.271180  -0.063992
    19  H   -0.042209   0.226765
    20  H    0.113930   0.073013
    21  H   -0.280307   0.424930
    22  H   -0.179835   0.438360
    23  H   -0.374780   0.614286
    24  H   -0.150424   0.495987
    25  H   -0.925949   1.174985
    26  H    0.643466  -0.479185
    27  H    0.154421   0.049297
    28  H   -0.310566   0.503467
 Sum of Mulliken charges =  -1.00000   1.00000

 Dipole moment (field-independent basis, Debye):
    X=             -3.3643    Y=             -0.4781    Z=             -5.3347  Tot=              6.3250
 Quadrupole moment (field-independent basis, Debye-Ang):
   XX=           -141.0978   YY=           -140.8084   ZZ=           -137.6403
   XY=              1.7497   XZ=             -1.1613   YZ=              0.4677

 Summary of Natural Population Analysis:

                                       Natural Population
                Natural  -----------------------------------------------
    Atom  No    Charge         Core      Valence    Rydberg      Total
 -----------------------------------------------------------------------
      C    1   -0.28722      0.99966     2.28207    0.00549     3.28722
      C    2   -0.19596      0.99963     2.18827    0.00806     3.19596
      C    3   -0.20007      0.99961     2.19009    0.01037     3.20007
      C    4   -0.28706      0.99956     2.27597    0.01152     3.28706
      S    5    1.08946      4.99931     1.81157    0.09966     6.91054
      O    6   -0.46564      0.99990     3.45990    0.00583     4.46564
      O    7   -0.46689      0.99991     3.46139    0.00559     4.46689
      N    8   -0.43483      0.99974     2.92089    0.01420     3.93483
      C    9   -0.10964      0.99956     2.09441    0.01567     3.10964
      C   10    0.03046      0.99952     1.95391    0.01611     2.96954
      C   11    0.05523      0.99942     1.93319    0.01216     2.94477
      O   12   -0.23257      0.99987     3.22579    0.00691     4.23257
      C   13    0.17981      0.99965     1.80219    0.01834     2.82019
      N   14   -0.24750      0.99970     2.73769    0.01010     3.74750
      H   15    0.09529      0.00000     0.40321    0.00150     0.40471
      H   16    0.10323      0.00000     0.39578    0.00099     0.39677
      H   17    0.09642      0.00000     0.40236    0.00122     0.40358
      H   18    0.10116      0.00000     0.39602    0.00282     0.39884
      H   19    0.09604      0.00000     0.40292    0.00104     0.40396
      H   20    0.10754      0.00000     0.39123    0.00123     0.39246
      H   21    0.10288      0.00000     0.39576    0.00136     0.39712
      H   22    0.12167      0.00000     0.37702    0.00132     0.37833
      H   23    0.11743      0.00000     0.37967    0.00290     0.38257
      H   24    0.20791      0.00000     0.28596    0.00612     0.29209
      H   25    0.11858      0.00000     0.37710    0.00432     0.38142
      H   26    0.10236      0.00000     0.39495    0.00269     0.39764
      H   27    0.11185      0.00000     0.38680    0.00135     0.38815
      H   28    0.09004      0.00000     0.40885    0.00111     0.40996
 =======================================================================
   * Total *    0.00000     17.99505    39.73496    0.27000    58.00000

 Normal termination of Gaussian 16 at Thu Dec 10 10:27:58 2020.
