 Gaussian 16, Revision A.03,

 -----------------------------------------------------------
 # opt freq B3LYP/6-31G(d) empiricaldispersion=gd3bj scf=xqc
 -----------------------------------------------------------

 ------------------------------
 CID_87873088_JID_1986_neutraal
 ------------------------------
 Symbolic Z-matrix:
 Charge =  0 Multiplicity = 1

 SCF Done:  E(RB3LYP) =  -574.824511387     A.U. after   14 cycles
 SCF Done:  E(RB3LYP) =  -574.828078408     A.U. after   12 cycles
 SCF Done:  E(RB3LYP) =  -574.829734151     A.U. after   12 cycles
 SCF Done:  E(RB3LYP) =  -574.827951248     A.U. after   14 cycles
 SCF Done:  E(RB3LYP) =  -574.830220261     A.U. after   12 cycles
 SCF Done:  E(RB3LYP) =  -574.831155659     A.U. after   12 cycles
 SCF Done:  E(RB3LYP) =  -574.831383247     A.U. after   11 cycles
 SCF Done:  E(RB3LYP) =  -574.831606406     A.U. after   12 cycles
 SCF Done:  E(RB3LYP) =  -574.831707257     A.U. after   11 cycles
 SCF Done:  E(RB3LYP) =  -574.831820812     A.U. after   11 cycles
 SCF Done:  E(RB3LYP) =  -574.832389686     A.U. after    8 cycles
 SCF Done:  E(RB3LYP) =  -574.832390363     A.U. after    8 cycles
 SCF Done:  E(RB3LYP) =  -574.832390750     A.U. after    8 cycles
 SCF Done:  E(RB3LYP) =  -574.832390838     A.U. after    7 cycles
 SCF Done:  E(RB3LYP) =  -574.832390868     A.U. after    7 cycles
 SCF Done:  E(RB3LYP) =  -574.832390904     A.U. after    7 cycles
 Optimization completed.
    -- Stationary point found.

 1\1\GINC-NODE114\FOpt\RB3LYP\6-31G(d)\C7H12O4\VSC10255\08-Dec-2020\0\\
 # opt freq B3LYP/6-31G(d) empiricaldispersion=gd3bj scf=xqc\\CID_87873
 088_JID_1986_neutraal\\0,1\C,1.2104544949,0.133642124,-0.0177638653\C,
 -0.0709382104,0.2676212997,-0.3501105622\O,-1.0703146467,-0.287761118,
 0.401974599\C,-2.3573332782,-0.2244703627,-0.0693011718\C,-3.353558019
 ,-0.8615670375,0.5398633282\C,-0.4720404663,-3.3114503546,0.731578205\
 C,-0.4294315723,-4.839490696,0.8708679469\O,0.6284937096,-5.2831869101
 ,1.7062776187\C,-0.554894311,-2.674648921,2.0971170621\O,-1.5431015788

 Normal termination of Gaussian 16 at Tue Dec  8 22:04:54 2020.

 --------------------------------------------------------------------
 #N Geom=AllCheck Guess=TCheck SCRF=Check GenChk RB3LYP/6-31G(d) Freq
 --------------------------------------------------------------------

 Structure from the checkpoint file:  "JID_1986.chk"
 ------------------------------
 CID_87873088_JID_1986_neutraal
 ------------------------------
 Charge =  0 Multiplicity = 1

 SCF Done:  E(RB3LYP) =  -574.832390904     A.U. after    1 cycles

  Exact polarizability:  77.300   1.327 117.019   7.996   0.296  66.324
 Approx polarizability:  98.827   2.534 181.119  15.012  -3.337  92.794

                      1                      2                      3
                      A                      A                      A
 Frequencies --     24.4249                51.0073                54.4048
 Red. masses --      4.6300                 4.2520                 3.9687
 Frc consts  --      0.0016                 0.0065                 0.0069
 IR Inten    --      0.4152                 0.6604                 0.4238

                      4                      5                      6
                      A                      A                      A
 Frequencies --     67.1296                81.0098                94.6336
 Red. masses --      5.6438                 6.7617                 3.6128
 Frc consts  --      0.0150                 0.0261                 0.0191
 IR Inten    --      1.9856                 0.5010                 0.3756

                      7                      8                      9
                      A                      A                      A
 Frequencies --    102.6319               113.4575               119.2965
 Red. masses --      3.6437                 3.2994                 3.9946
 Frc consts  --      0.0226                 0.0250                 0.0335
 IR Inten    --      0.0310                 3.3852                 6.3929

                     10                     11                     12
                      A                      A                      A
 Frequencies --    148.3437               213.5520               252.2088
 Red. masses --      1.8007                 2.7492                 2.7099
 Frc consts  --      0.0233                 0.0739                 0.1016
 IR Inten    --      0.0251                 5.0587                 1.1315

                     13                     14                     15
                      A                      A                      A
 Frequencies --    324.0697               426.5346               443.3100
 Red. masses --      1.1789                 3.9334                 2.2393
 Frc consts  --      0.0729                 0.4216                 0.2593
 IR Inten    --    141.4741                23.5583                 4.2650

                     16                     17                     18
                      A                      A                      A
 Frequencies --    499.9405               527.2794               568.6522
 Red. masses --      2.2118                 3.7454                 3.0535
 Frc consts  --      0.3257                 0.6135                 0.5817
 IR Inten    --      5.3604                 0.0588                36.2033

                     19                     20                     21
                      A                      A                      A
 Frequencies --    640.4416               696.7444               725.0339
 Red. masses --      1.4263                 1.4795                 1.4396
 Frc consts  --      0.3447                 0.4232                 0.4459
 IR Inten    --     89.2902                 6.5096                 0.1170

                     22                     23                     24
                      A                      A                      A
 Frequencies --    752.0891               825.9133               865.3809
 Red. masses --      2.5395                 2.6861                 1.4232
 Frc consts  --      0.8463                 1.0795                 0.6280
 IR Inten    --     46.8281                 5.2459                35.1638

                     25                     26                     27
                      A                      A                      A
 Frequencies --    874.9987               881.0742               899.2631
 Red. masses --      1.7692                 1.4374                 2.4782
 Frc consts  --      0.7981                 0.6574                 1.1807
 IR Inten    --      4.1015                50.6508                 9.3119

                     28                     29                     30
                      A                      A                      A
 Frequencies --    980.1773               989.0522               993.2013
 Red. masses --      1.0739                 1.0930                 2.5687
 Frc consts  --      0.6079                 0.6300                 1.4929
 IR Inten    --      1.6820                59.6988                 4.0897

                     31                     32                     33
                      A                      A                      A
 Frequencies --   1046.3346              1053.1089              1098.5816
 Red. masses --      1.6760                 1.5862                 3.8838
 Frc consts  --      1.0811                 1.0365                 2.7617
 IR Inten    --      7.5174                20.4327                40.8198

                     34                     35                     36
                      A                      A                      A
 Frequencies --   1146.0550              1218.1559              1228.3303
 Red. masses --      1.4459                 2.8476                 1.8338
 Frc consts  --      1.1190                 2.4897                 1.6302
 IR Inten    --    184.2510                39.7909                62.0788

                     37                     38                     39
                      A                      A                      A
 Frequencies --   1235.9170              1272.3692              1336.0325
 Red. masses --      3.2803                 1.2477                 1.5039
 Frc consts  --      2.9522                 1.1901                 1.5816
 IR Inten    --    417.3797                20.9486                 0.6729

                     40                     41                     42
                      A                      A                      A
 Frequencies --   1350.0318              1379.7151              1391.7603
 Red. masses --      1.1587                 1.1988                 1.3223
 Frc consts  --      1.2443                 1.3445                 1.5091
 IR Inten    --      3.4309                 2.4329                10.6860

                     43                     44                     45
                      A                      A                      A
 Frequencies --   1414.9219              1439.5747              1448.2795
 Red. masses --      1.5469                 1.2989                 1.3258
 Frc consts  --      1.8246                 1.5860                 1.6384
 IR Inten    --     38.4848                37.1347                73.6122

                     46                     47                     48
                      A                      A                      A
 Frequencies --   1457.1170              1510.6278              1539.4842
 Red. masses --      1.1644                 1.1245                 1.0874
 Frc consts  --      1.4566                 1.5119                 1.5184
 IR Inten    --      0.3052                 4.1041                 1.6375

                     49                     50                     51
                      A                      A                      A
 Frequencies --   1712.1147              1757.5300              1845.7738
 Red. masses --      4.4343                 4.6277                 9.2429
 Frc consts  --      7.6585                 8.4222                18.5531
 IR Inten    --    338.9204                 1.7578               240.9809

                     52                     53                     54
                      A                      A                      A
 Frequencies --   3008.9124              3081.4851              3118.5781
 Red. masses --      1.0719                 1.0613                 1.0941
 Frc consts  --      5.7175                 5.9375                 6.2696
 IR Inten    --     72.7391                 5.8645                11.6258

                     55                     56                     57
                      A                      A                      A
 Frequencies --   3138.1381              3159.4261              3166.6500
 Red. masses --      1.1035                 1.0868                 1.0841
 Frc consts  --      6.4029                 6.3918                 6.4050
 IR Inten    --     13.9069                 4.2788                30.5093

                     58                     59                     60
                      A                      A                      A
 Frequencies --   3194.1486              3199.1391              3285.3290
 Red. masses --      1.0673                 1.0658                 1.1188
 Frc consts  --      6.4158                 6.4265                 7.1149
 IR Inten    --     12.6124                 6.8283                 2.3412

                     61                     62                     63
                      A                      A                      A
 Frequencies --   3289.1159              3680.6390              3735.9214
 Red. masses --      1.1185                 1.0638                 1.0660
 Frc consts  --      7.1290                 8.4908                 8.7663
 IR Inten    --      2.5201                47.1656                10.5183

 - Thermochemistry -
 -------------------
 Temperature   298.150 Kelvin.  Pressure   1.00000 Atm.
 Atom     1 has atomic number  6 and mass  12.00000

 Molecular mass:   160.07356 amu.
 Principal axes and moments of inertia in atomic units:
                           1         2         3
     Eigenvalues --  1324.806322821.502733311.66005
           X            1.00000   0.00080  -0.00283
           Y           -0.00075   0.99981   0.01933
           Z            0.00284  -0.01933   0.99981
 This molecule is an asymmetric top.
 Rotational symmetry number  1.
 Warning -- assumption of classical behavior for rotation
           may cause significant error
 Rotational temperatures (Kelvin)      0.06538     0.03070     0.02615
 Rotational constants (GHZ):           1.36227     0.63964     0.54497
 Zero-point vibrational energy     491513.0 (Joules/Mol)
                                  117.47442 (Kcal/Mol)
 Warning -- explicit consideration of  18 degrees of freedom as
           vibrations may cause significant error
 Vibrational temperatures:     35.14    73.39    78.28    96.58   116.56
          (Kelvin)            136.16   147.66   163.24   171.64   213.43
                              307.25   362.87   466.26   613.69   637.82
                              719.30   758.64   818.16   921.45  1002.46
                             1043.16  1082.09  1188.31  1245.09  1258.93
                             1267.67  1293.84  1410.26  1423.03  1429.00
                             1505.44  1515.19  1580.61  1648.92  1752.65
                             1767.29  1778.21  1830.66  1922.25  1942.39
                             1985.10  2002.43  2035.76  2071.23  2083.75
                             2096.47  2173.46  2214.97  2463.35  2528.69
                             2655.66  4329.15  4433.57  4486.94  4515.08
                             4545.71  4556.10  4595.67  4602.85  4726.86
                             4732.30  5295.62  5375.16

 Zero-point correction=                           0.187207 (Hartree/Particle)
 Thermal correction to Energy=                    0.201370
 Thermal correction to Enthalpy=                  0.202314
 Thermal correction to Gibbs Free Energy=         0.143816
 Sum of electronic and zero-point Energies=           -574.645183
 Sum of electronic and thermal Energies=              -574.631021
 Sum of electronic and thermal Enthalpies=            -574.630077
 Sum of electronic and thermal Free Energies=         -574.688575

                     E (Thermal)             CV                S
                      KCal/Mol        Cal/Mol-Kelvin    Cal/Mol-Kelvin
 Total                  126.361             47.207            123.120
 Electronic               0.000              0.000              0.000
 Translational            0.889              2.981             41.120
 Rotational               0.889              2.981             30.893
 Vibrational            124.584             41.245             51.106
 Vibration     1          0.593              1.985              6.237
 Vibration     2          0.595              1.977              4.778
 Vibration     3          0.596              1.976              4.650
 Vibration     4          0.598              1.970              4.236
 Vibration     5          0.600              1.962              3.866
 Vibration     6          0.603              1.953              3.562
 Vibration     7          0.605              1.947              3.404
 Vibration     8          0.607              1.938              3.209
 Vibration     9          0.609              1.933              3.112
 Vibration    10          0.618              1.904              2.693
 Vibration    11          0.644              1.820              2.013
 Vibration    12          0.664              1.759              1.715
 Vibration    13          0.709              1.627              1.289
 Vibration    14          0.788              1.412              0.870
 Vibration    15          0.803              1.376              0.816
 Vibration    16          0.855              1.250              0.658
 Vibration    17          0.882              1.190              0.593
 Vibration    18          0.925              1.099              0.507

                           ! Non-Optimized Parameters !

 1\1\GINC-NODE114\Freq\RB3LYP\6-31G(d)\C7H12O4\VSC10255\08-Dec-2020\0\\
 #N Geom=AllCheck Guess=TCheck SCRF=Check GenChk RB3LYP/6-31G(d) Freq\\
 CID_87873088_JID_1986_neutraal\\0,1\C,1.2104544949,0.133642124,-0.0177
 638653\C,-0.0709382104,0.2676212997,-0.3501105622\O,-1.0703146467,-0.2
 87761118,0.401974599\C,-2.3573332782,-0.2244703627,-0.0693011718\C,-3.
 353558019,-0.8615670375,0.5398633282\C,-0.4720404663,-3.3114503546,0.7
 31578205\C,-0.4294315723,-4.839490696,0.8708679469\O,0.6284937096,-5.2
 831869101,1.7062776187\C,-0.554894311,-2.674648921,2.0971170621\O,-1.5

 Normal termination of Gaussian 16 at Tue Dec  8 22:09:08 2020.

 ----------------------------------------------------------------------
 # B3LYP/6-311++G(d,p) empiricaldispersion=gd3bj scf=xqc pop=npa geom=c
 heck
 ----------------------------------------------------------------------

 --------------------------------------
 CID_87873088_JID_1986_Energie_neutraal
 --------------------------------------
 Structure from the checkpoint file:  "JID_1986.chk"
 Charge =  0 Multiplicity = 1

 SCF Done:  E(RB3LYP) =  -575.028634383     A.U. after   13 cycles
 Normal termination of Gaussian 16 at Tue Dec  8 22:10:59 2020.

 ----------------------------------------------------------------------
 # B3LYP/6-311++G(d,p) empiricaldispersion=gd3bj scf=xqc pop=npa geom=c
 heck
 ----------------------------------------------------------------------

 ------------------------------------
 CID_87873088_JID_1986_Energie_kation
 ------------------------------------
 Structure from the checkpoint file:  "JID_1986.chk"
 Charge =  1 Multiplicity = 2

 SCF Done:  E(UB3LYP) =  -574.718908877     A.U. after   26 cycles
 Normal termination of Gaussian 16 at Tue Dec  8 22:15:47 2020.
 Gaussian 16:  ES64L-G16RevA.03 25-Dec-2016

 -----------------------------------
 CID_87873088_JID_1986_Energie_anion
 -----------------------------------
 Structure from the checkpoint file:  "JID_1986.chk"
 Charge = -1 Multiplicity = 2

                         Standard orientation:
 ---------------------------------------------------------------------
 Center     Atomic      Atomic             Coordinates (Angstroms)
 Number     Number       Type             X           Y           Z
 ---------------------------------------------------------------------
      1          6           0       -1.861952    2.402781   -0.120422
      2          6           0       -2.424908    1.233189   -0.412840
      3          8           0       -1.915772    0.053049    0.057143
      4          6           0       -2.464914   -1.121914   -0.390550
      5          6           0       -1.931182   -2.300987   -0.083378
      6          6           0        1.078480   -0.095548   -0.731298
      7          6           0        2.516024   -0.418564   -1.161709
      8          8           0        3.477071    0.405918   -0.520927
      9          6           0        0.959860   -0.189521    0.770094
     10          8           0        0.927266   -1.219890    1.406736
     11          8           0        0.948928    1.029461    1.364792
     12          1           0       -0.971702    2.461452    0.495483
     13          1           0       -2.302821    3.317454   -0.498041
     14          1           0       -3.317155    1.133722   -1.030061
     15          1           0       -3.358623   -1.003491   -1.002088
     16          1           0       -2.402552   -3.207043   -0.445324
     17          1           0       -1.038377   -2.378643    0.527912
     18          1           0        0.391209   -0.823766   -1.171636
     19          1           0        0.784225    0.903133   -1.069628
     20          1           0        2.763132   -1.442314   -0.867532
     21          1           0        2.588017   -0.353057   -2.258680
     22          1           0        3.233181    1.330285   -0.686205
     23          1           0        0.903072    0.857357    2.324472
 ---------------------------------------------------------------------

 SCF Done:  E(UB3LYP) =  -575.015214379     A.U. after   30 cycles

 The electronic state is 2-A.
 Alpha  occ. eigenvalues --  -19.07568 -19.06997 -19.02210 -19.01125 -10.20223
 Alpha  occ. eigenvalues --  -10.13613 -10.13408 -10.12074 -10.07699 -10.06109
 Alpha  occ. eigenvalues --  -10.05917  -1.00882  -0.99359  -0.92457  -0.91862
 Alpha  occ. eigenvalues --   -0.69784  -0.67674  -0.63835  -0.56531  -0.51717
 Alpha  occ. eigenvalues --   -0.49818  -0.49250  -0.42390  -0.41747  -0.39251
 Alpha  occ. eigenvalues --   -0.38040  -0.37424  -0.36732  -0.34420  -0.33850
 Alpha  occ. eigenvalues --   -0.32516  -0.31949  -0.31075  -0.29681  -0.28510
 Alpha  occ. eigenvalues --   -0.27700  -0.25368  -0.23552  -0.22532  -0.18817
 Alpha  occ. eigenvalues --   -0.18500  -0.17695  -0.12740   0.04587
 Alpha virt. eigenvalues --    0.06691   0.07578   0.07886   0.08919   0.09431
 Alpha virt. eigenvalues --    0.09566   0.10111   0.10701   0.11151   0.12078
 Alpha virt. eigenvalues --    0.12554   0.13146   0.13415   0.14363   0.15409

  Beta  occ. eigenvalues --  -19.07564 -19.06968 -19.02176 -19.01093 -10.20187
  Beta  occ. eigenvalues --  -10.13594 -10.13388 -10.12043 -10.07682 -10.06096
  Beta  occ. eigenvalues --  -10.05894  -1.00821  -0.99349  -0.92387  -0.91802
  Beta  occ. eigenvalues --   -0.69753  -0.67596  -0.63800  -0.56427  -0.51681
  Beta  occ. eigenvalues --   -0.49742  -0.49180  -0.42321  -0.41662  -0.39195
  Beta  occ. eigenvalues --   -0.37954  -0.37338  -0.36666  -0.34375  -0.33832
  Beta  occ. eigenvalues --   -0.32468  -0.31912  -0.30998  -0.29639  -0.28460
  Beta  occ. eigenvalues --   -0.27649  -0.25313  -0.23499  -0.22395  -0.18795
  Beta  occ. eigenvalues --   -0.18466  -0.17645  -0.12722
  Beta virt. eigenvalues --    0.07104   0.07827   0.08320   0.08590   0.09331
  Beta virt. eigenvalues --    0.09707   0.10153   0.10429   0.10851   0.11633
  Beta virt. eigenvalues --    0.12589   0.13037   0.13199   0.13710   0.14924

 Mulliken charges and spin densities:
               1          2
     1  C    0.750531  -1.255526
     2  C   -0.258973   0.356914
     3  O   -0.021026   0.046047
     4  C    0.224791  -0.150927
     5  C   -0.059532  -0.427415
     6  C   -0.669782   0.559927
     7  C    1.216936  -1.660185
     8  O   -0.303966   0.065822
     9  C    0.346441  -0.599503
    10  O   -0.267206   0.043640
    11  O   -0.192100   0.079117
    12  H    0.185610  -0.025684
    13  H   -0.453781   0.591748
    14  H   -0.418595   0.549777
    15  H   -0.468343   0.601414
    16  H   -0.222228   0.352155
    17  H    0.223623  -0.044215
    18  H   -0.002248   0.179338
    19  H   -0.231987   0.486122
    20  H    0.171697   0.003288
    21  H   -0.567964   0.745318
    22  H   -0.056336   0.313127
    23  H    0.074440   0.189703
 Sum of Mulliken charges =  -1.00000   1.00000

 Dipole moment (field-independent basis, Debye):
    X=              0.9644    Y=             -1.6348    Z=              4.1313  Tot=              4.5464
 Quadrupole moment (field-independent basis, Debye-Ang):
   XX=           -131.6434   YY=           -103.9493   ZZ=           -100.7700
   XY=             -0.3824   XZ=             -2.4132   YZ=              6.0166

 Summary of Natural Population Analysis:

                                       Natural Population
                Natural  -----------------------------------------------
    Atom  No    Charge         Core      Valence    Rydberg      Total
 -----------------------------------------------------------------------
      C    1   -0.23191      0.99959     2.22388    0.00845     3.23191
      C    2    0.07828      0.99945     1.90792    0.01434     2.92172
      O    3   -0.27151      0.99984     3.25705    0.01461     4.27151
      C    4    0.07776      0.99945     1.90862    0.01416     2.92224
      C    5   -0.23629      0.99959     2.22814    0.00856     3.23629
      C    6   -0.25727      0.99957     2.24728    0.01042     3.25727
      C    7   -0.00413      0.99961     1.99135    0.01317     3.00413
      O    8   -0.36905      0.99990     3.36221    0.00693     4.36905
      C    9    0.41898      0.99972     1.55298    0.02833     2.58102
      O   10   -0.31392      0.99986     3.30807    0.00599     4.31392
      O   11   -0.34508      0.99988     3.33791    0.00729     4.34508
      H   12    0.10582      0.00000     0.39235    0.00183     0.39418
      H   13    0.10078      0.00000     0.39796    0.00126     0.39922
      H   14    0.08419      0.00000     0.41296    0.00286     0.41581
      H   15    0.08461      0.00000     0.41275    0.00264     0.41539
      H   16    0.09901      0.00000     0.40011    0.00087     0.40099
      H   17    0.11130      0.00000     0.38734    0.00136     0.38870
      H   18    0.12063      0.00000     0.37744    0.00192     0.37937
      H   19    0.11121      0.00000     0.38596    0.00283     0.38879
      H   20    0.08715      0.00000     0.41149    0.00136     0.41285
      H   21    0.08150      0.00000     0.41619    0.00231     0.41850
      H   22    0.23023      0.00000     0.26508    0.00469     0.26977
      H   23    0.23770      0.00000     0.25890    0.00339     0.26230
 =======================================================================
   * Total *    0.00000     10.99646    31.84396    0.15958    43.00000

 Normal termination of Gaussian 16 at Tue Dec  8 22:21:33 2020.
