 Gaussian 16, Revision A.03,

 -----------------------------------------------------------
 # opt freq B3LYP/6-31G(d) empiricaldispersion=gd3bj scf=xqc
 -----------------------------------------------------------

 ------------------------------
 CID_73411669_JID_6713_neutraal
 ------------------------------
 Symbolic Z-matrix:
 Charge =  0 Multiplicity = 1

 SCF Done:  E(RB3LYP) =  -1121.64204182     A.U. after   15 cycles
 SCF Done:  E(RB3LYP) =  -1121.64509969     A.U. after   13 cycles
 SCF Done:  E(RB3LYP) =  -1121.64559800     A.U. after   13 cycles
 SCF Done:  E(RB3LYP) =  -1121.64622017     A.U. after   12 cycles
 SCF Done:  E(RB3LYP) =  -1121.64646602     A.U. after   12 cycles
 SCF Done:  E(RB3LYP) =  -1121.64658309     A.U. after   12 cycles
 SCF Done:  E(RB3LYP) =  -1121.64664846     A.U. after   10 cycles
 SCF Done:  E(RB3LYP) =  -1121.64668444     A.U. after   10 cycles
 SCF Done:  E(RB3LYP) =  -1121.64669634     A.U. after   10 cycles
 SCF Done:  E(RB3LYP) =  -1121.64670124     A.U. after    9 cycles
 SCF Done:  E(RB3LYP) =  -1121.64670494     A.U. after   10 cycles
 SCF Done:  E(RB3LYP) =  -1121.64670523     A.U. after    8 cycles
 SCF Done:  E(RB3LYP) =  -1121.64670534     A.U. after    8 cycles
 SCF Done:  E(RB3LYP) =  -1121.64670536     A.U. after    7 cycles
 Optimization completed.
    -- Stationary point found.
 Normal termination of Gaussian 16 at Sun Dec 13 16:02:45 2020.

 --------------------------------------------------------------------
 #N Geom=AllCheck Guess=TCheck SCRF=Check GenChk RB3LYP/6-31G(d) Freq
 --------------------------------------------------------------------

 Structure from the checkpoint file:  "JID_6713.chk"
 ------------------------------
 CID_73411669_JID_6713_neutraal
 ------------------------------
 Charge =  0 Multiplicity = 1

 SCF Done:  E(RB3LYP) =  -1121.64670536     A.U. after    1 cycles

  Exact polarizability: 208.337  -7.977 139.040  -3.390  -1.984  87.575
 Approx polarizability: 293.348  -9.931 237.539 -15.569 -12.009 140.881

 ******    1 imaginary frequencies (negative Signs) ******

                      1                      2                      3
                      A                      A                      A
 Frequencies --    -10.0022                29.2002                53.1743
 Red. masses --      5.2174                 6.3733                 7.2612
 Frc consts  --      0.0003                 0.0032                 0.0121
 IR Inten    --      0.0143                 4.3555                10.1175

                      4                      5                      6
                      A                      A                      A
 Frequencies --     80.6705                92.0066               103.4675
 Red. masses --      2.5990                 2.2951                 2.4596
 Frc consts  --      0.0100                 0.0114                 0.0155
 IR Inten    --     12.1889                16.2045                 9.8879

                      7                      8                      9
                      A                      A                      A
 Frequencies --    121.2342               163.9847               190.0626
 Red. masses --      4.5908                 4.0564                 1.1571
 Frc consts  --      0.0398                 0.0643                 0.0246
 IR Inten    --      3.3428                 1.5355                 0.0922

                     10                     11                     12
                      A                      A                      A
 Frequencies --    220.7307               242.9940               281.3236
 Red. masses --      3.6692                 4.5111                 3.4637
 Frc consts  --      0.1053                 0.1569                 0.1615
 IR Inten    --      4.7912                 0.6685                 3.9179

                     13                     14                     15
                      A                      A                      A
 Frequencies --    282.5655               299.8444               328.4198
 Red. masses --      4.8411                 5.7840                 3.3311
 Frc consts  --      0.2277                 0.3064                 0.2117
 IR Inten    --      2.5444                 1.8372                11.1013

                     16                     17                     18
                      A                      A                      A
 Frequencies --    344.0262               365.8291               391.7856
 Red. masses --      4.3138                 1.2790                 3.6563
 Frc consts  --      0.3008                 0.1008                 0.3307
 IR Inten    --      2.7502               276.7699                 1.6787

                     19                     20                     21
                      A                      A                      A
 Frequencies --    435.3216               460.5874               482.1984
 Red. masses --      4.7184                 5.2790                 4.6092
 Frc consts  --      0.5268                 0.6598                 0.6314
 IR Inten    --      1.7808                 4.6031                 4.8629

                     22                     23                     24
                      A                      A                      A
 Frequencies --    502.4108               554.8471               571.6504
 Red. masses --      2.3242                 4.9361                 4.8536
 Frc consts  --      0.3457                 0.8953                 0.9345
 IR Inten    --      6.9821               141.0636                31.8816

                     25                     26                     27
                      A                      A                      A
 Frequencies --    591.7102               623.7445               650.9455
 Red. masses --      1.6116                 2.9552                 5.1441
 Frc consts  --      0.3324                 0.6774                 1.2843
 IR Inten    --     11.7961                 1.0689                15.0019

                     28                     29                     30
                      A                      A                      A
 Frequencies --    673.3129               704.6874               723.8392
 Red. masses --      2.8516                 3.2389                 3.5180
 Frc consts  --      0.7617                 0.9476                 1.0860
 IR Inten    --    215.3682                15.2446                29.9135

                     31                     32                     33
                      A                      A                      A
 Frequencies --    747.1443               794.3323               815.3451
 Red. masses --      3.6498                 5.1280                 1.3976
 Frc consts  --      1.2004                 1.9063                 0.5474
 IR Inten    --      4.9928                23.6091                13.8623

                     34                     35                     36
                      A                      A                      A
 Frequencies --    867.4053               882.1787               914.4617
 Red. masses --      2.2225                 1.4870                 2.3820
 Frc consts  --      0.9852                 0.6818                 1.1736
 IR Inten    --     79.3750                43.5897                41.8364

                     37                     38                     39
                      A                      A                      A
 Frequencies --    934.5155               951.5220              1003.2851
 Red. masses --      1.5573                 1.4004                 1.3010
 Frc consts  --      0.8013                 0.7470                 0.7716
 IR Inten    --     19.7561                 4.0977                 0.9721

                     40                     41                     42
                      A                      A                      A
 Frequencies --   1017.7343              1041.9925              1078.9563
 Red. masses --      6.1229                 1.7662                 1.5083
 Frc consts  --      3.7366                 1.1299                 1.0345
 IR Inten    --      1.7880                17.0822                 3.2242

                     43                     44                     45
                      A                      A                      A
 Frequencies --   1101.7959              1107.1316              1114.4612
 Red. masses --      3.5083                 1.3044                 1.8685
 Frc consts  --      2.5092                 0.9420                 1.3673
 IR Inten    --     60.1860                 7.2068                 1.6575

                     46                     47                     48
                      A                      A                      A
 Frequencies --   1128.5951              1145.4957              1172.7372
 Red. masses --      1.7718                 3.1630                 2.3774
 Frc consts  --      1.3297                 2.4453                 1.9265
 IR Inten    --      5.9135               180.4336                 7.0276

                     49                     50                     51
                      A                      A                      A
 Frequencies --   1211.3798              1258.2658              1316.9489
 Red. masses --      1.1475                 2.4351                 2.5622
 Frc consts  --      0.9921                 2.2715                 2.6182
 IR Inten    --      1.2494                 3.5970                44.9014

                     52                     53                     54
                      A                      A                      A
 Frequencies --   1342.0322              1345.2717              1368.8456
 Red. masses --      1.6009                 6.0285                 3.8751
 Frc consts  --      1.6988                 6.4280                 4.2780
 IR Inten    --     37.5807               139.8210                12.9888

                     55                     56                     57
                      A                      A                      A
 Frequencies --   1423.8447              1432.7399              1468.9725
 Red. masses --      2.5049                 1.2419                 2.7194
 Frc consts  --      2.9920                 1.5020                 3.4574
 IR Inten    --     52.2608                 2.0285                11.4258

                     58                     59                     60
                      A                      A                      A
 Frequencies --   1501.4093              1521.8786              1528.2452
 Red. masses --      1.0478                 1.0816                 2.3067
 Frc consts  --      1.3916                 1.4760                 3.1742
 IR Inten    --      8.2168                 8.8388                14.6455

                     61                     62                     63
                      A                      A                      A
 Frequencies --   1618.4157              1626.9636              1642.0925
 Red. masses --      1.0977                 5.3044                 1.2528
 Frc consts  --      1.6939                 8.2726                 1.9903
 IR Inten    --     30.8927                 0.7360                72.5651

                     64                     65                     66
                      A                      A                      A
 Frequencies --   1657.0812              1713.4917              1784.6403
 Red. masses --      5.7325                 7.5949                 9.1516
 Frc consts  --      9.2744                13.1382                17.1731
 IR Inten    --      5.1148                22.9943               300.2235

                     67                     68                     69
                      A                      A                      A
 Frequencies --   3046.4113              3105.5347              3140.4385
 Red. masses --      1.0383                 1.0967                 1.1033
 Frc consts  --      5.6775                 6.2315                 6.4109
 IR Inten    --     24.1549                10.7433                10.0458

                     70                     71                     72
                      A                      A                      A
 Frequencies --   3150.9979              3201.8460              3217.9014
 Red. masses --      1.0881                 1.0879                 1.0905
 Frc consts  --      6.3653                 6.5714                 6.6532
 IR Inten    --     19.8551                 7.6122                 0.9715

                     73                     74                     75
                      A                      A                      A
 Frequencies --   3220.2957              3234.6371              3497.4639
 Red. masses --      1.0933                 1.0936                 1.0467
 Frc consts  --      6.6801                 6.7415                 7.5434
 IR Inten    --      3.9416                 2.3059                42.7078

                     76                     77                     78
                      A                      A                      A
 Frequencies --   3581.2295              3609.6139              3708.7988
 Red. masses --      1.0456                 1.0983                 1.1040
 Frc consts  --      7.9011                 8.4310                 8.9470
 IR Inten    --     26.6153                36.0185                29.7296

 - Thermochemistry -
 -------------------
 Temperature   298.150 Kelvin.  Pressure   1.00000 Atm.
 Atom     1 has atomic number  6 and mass  12.00000

 Molecular mass:   240.05686 amu.
 Principal axes and moments of inertia in atomic units:
                           1         2         3
     Eigenvalues --  1569.471288156.714398811.22109
           X            0.99992  -0.01058   0.00659
           Y            0.01042   0.99966   0.02410
           Z           -0.00685  -0.02403   0.99969
 This molecule is an asymmetric top.
 Rotational symmetry number  1.
 Warning -- assumption of classical behavior for rotation
           may cause significant error
 Rotational temperatures (Kelvin)      0.05519     0.01062     0.00983
 Rotational constants (GHZ):           1.14990     0.22126     0.20482
    1 imaginary frequencies ignored.
 Zero-point vibrational energy     567408.9 (Joules/Mol)
                                  135.61397 (Kcal/Mol)
 Warning -- explicit consideration of  24 degrees of freedom as
           vibrations may cause significant error
 Vibrational temperatures:     42.01    76.51   116.07   132.38   148.87
          (Kelvin)            174.43   235.94   273.46   317.58   349.61
                              404.76   406.55   431.41   472.52   494.98
                              526.35   563.69   626.33   662.68   693.78
                              722.86   798.30   822.48   851.34   897.43
                              936.57   968.75  1013.89  1041.44  1074.97
                             1142.87  1173.10  1248.00  1269.26  1315.71
                             1344.56  1369.03  1443.50  1464.29  1499.19
                             1552.38  1585.24  1592.92  1603.46  1623.80
                             1648.11  1687.31  1742.91  1810.36  1894.80
                             1930.88  1935.55  1969.46  2048.59  2061.39
                             2113.52  2160.19  2189.64  2198.80  2328.54
                             2340.84  2362.60  2384.17  2465.33  2567.70
                             4383.11  4468.17  4518.39  4533.58  4606.74
                             4629.84  4633.29  4653.92  5032.07  5152.59
                             5193.43  5336.13

 Zero-point correction=                           0.216115 (Hartree/Particle)
 Thermal correction to Energy=                    0.231570
 Thermal correction to Enthalpy=                  0.232514
 Thermal correction to Gibbs Free Energy=         0.172709
 Sum of electronic and zero-point Energies=          -1121.430591
 Sum of electronic and thermal Energies=             -1121.415136
 Sum of electronic and thermal Enthalpies=           -1121.414191
 Sum of electronic and thermal Free Energies=        -1121.473996

                     E (Thermal)             CV                S
                      KCal/Mol        Cal/Mol-Kelvin    Cal/Mol-Kelvin
 Total                  145.312             58.285            125.870
 Electronic               0.000              0.000              0.000
 Translational            0.889              2.981             42.328
 Rotational               0.889              2.981             33.089
 Vibrational            143.535             52.323             50.453
 Vibration     1          0.593              1.984              5.883
 Vibration     2          0.596              1.976              4.696
 Vibration     3          0.600              1.962              3.874
 Vibration     4          0.602              1.955              3.617
 Vibration     5          0.605              1.946              3.388
 Vibration     6          0.609              1.931              3.081
 Vibration     7          0.623              1.887              2.503
 Vibration     8          0.633              1.854              2.227
 Vibration     9          0.647              1.810              1.953
 Vibration    10          0.659              1.774              1.781
 Vibration    11          0.681              1.708              1.526
 Vibration    12          0.682              1.706              1.518
 Vibration    13          0.692              1.674              1.418
 Vibration    14          0.712              1.619              1.268
 Vibration    15          0.723              1.587              1.193
 Vibration    16          0.739              1.543              1.097
 Vibration    17          0.759              1.488              0.993
 Vibration    18          0.796              1.393              0.841
 Vibration    19          0.818              1.337              0.764
 Vibration    20          0.838              1.290              0.704
 Vibration    21          0.858              1.245              0.652
 Vibration    22          0.910              1.129              0.534
 Vibration    23          0.928              1.093              0.501
 Vibration    24          0.949              1.049              0.464

                           ! Non-Optimized Parameters !
 Normal termination of Gaussian 16 at Sun Dec 13 16:11:16 2020.

 ----------------------------------------------------------------------
 # B3LYP/6-311++G(d,p) empiricaldispersion=gd3bj scf=xqc pop=npa geom=c
 heck
 ----------------------------------------------------------------------

 --------------------------------------
 CID_73411669_JID_6713_Energie_neutraal
 --------------------------------------
 Structure from the checkpoint file:  "JID_6713.chk"
 Charge =  0 Multiplicity = 1

 SCF Done:  E(RB3LYP) =  -1121.89139812     A.U. after   17 cycles
 Normal termination of Gaussian 16 at Sun Dec 13 16:15:52 2020.

 ----------------------------------------------------------------------
 # B3LYP/6-311++G(d,p) empiricaldispersion=gd3bj scf=xqc pop=npa geom=c
 heck
 ----------------------------------------------------------------------

 ------------------------------------
 CID_73411669_JID_6713_Energie_kation
 ------------------------------------
 Structure from the checkpoint file:  "JID_6713.chk"
 Charge =  1 Multiplicity = 2

 SCF Done:  E(UB3LYP) =  -1121.57586121     A.U. after   28 cycles
 Normal termination of Gaussian 16 at Sun Dec 13 16:26:04 2020.
 Gaussian 16:  ES64L-G16RevA.03 25-Dec-2016

 ----------------------------------------------------------------------
 # B3LYP/6-311++G(d,p) empiricaldispersion=gd3bj scf=xqc pop=npa geom=c
 heck
 ----------------------------------------------------------------------

 -----------------------------------
 CID_73411669_JID_6713_Energie_anion
 -----------------------------------
 Structure from the checkpoint file:  "JID_6713.chk"
 Charge = -1 Multiplicity = 2

                         Standard orientation:
 ---------------------------------------------------------------------
 Center     Atomic      Atomic             Coordinates (Angstroms)
 Number     Number       Type             X           Y           Z
 ---------------------------------------------------------------------
      1          6           0        4.236362   -1.944934   -0.316901
      2          6           0        3.157056   -0.913800   -0.135570
      3          6           0        1.878049   -1.129055   -0.489952
      4          6           0        0.764438   -0.163730   -0.468195
      5          6           0       -0.524839   -0.611376   -0.143362
      6          6           0       -1.584063    0.290690   -0.112924
      7          6           0       -1.407629    1.643031   -0.401844
      8          6           0       -0.131555    2.084943   -0.750378
      9          6           0        0.938773    1.194324   -0.791738
     10         16           0       -3.215577   -0.304382    0.314048
     11          8           0       -3.052051   -1.552738    1.065248
     12          8           0       -3.980735    0.832336    0.834514
     13          7           0       -3.887383   -0.712876   -1.190120
     14          6           0        3.659997    0.395988    0.420963
     15          8           0        4.595281    0.994753   -0.095617
     16          7           0        3.057376    0.811198    1.574414
     17          1           0        3.845098   -2.860090   -0.769867
     18          1           0        4.705626   -2.199226    0.642147
     19          1           0        5.025957   -1.535450   -0.956644
     20          1           0        1.617719   -2.125440   -0.846589
     21          1           0       -0.698684   -1.651852    0.110566
     22          1           0       -2.249285    2.324111   -0.348535
     23          1           0        0.028262    3.130132   -0.997479
     24          1           0        1.920279    1.546663   -1.091354
     25          1           0       -4.116068   -1.704764   -1.195200
     26          1           0       -4.717072   -0.145437   -1.350806
     27          1           0        2.188500    0.397551    1.878978
     28          1           0        3.289452    1.734365    1.916210
 ---------------------------------------------------------------------

 SCF Done:  E(UB3LYP) =  -1121.90594531     A.U. after   33 cycles
 SCF Done:  E(UB3LYP) =  -1121.90594531     a.u. after    1 cycles

 The electronic state is 2-A.
 Alpha  occ. eigenvalues --  -88.94941 -19.00704 -19.00609 -18.96414 -14.23834
 Alpha  occ. eigenvalues --  -14.21247 -10.14544 -10.06738 -10.05243 -10.04878
 Alpha  occ. eigenvalues --  -10.04533 -10.04011 -10.03602 -10.03409 -10.03241
 Alpha  occ. eigenvalues --  -10.02964  -8.01134  -5.97459  -5.97403  -5.97150
 Alpha  occ. eigenvalues --   -1.00880  -0.91381  -0.90129  -0.80587  -0.78524
 Alpha  occ. eigenvalues --   -0.73461  -0.67914  -0.63910  -0.62614  -0.56175
 Alpha  occ. eigenvalues --   -0.54844  -0.51251  -0.47537  -0.46695  -0.43802
 Alpha  occ. eigenvalues --   -0.42984  -0.41802  -0.39729  -0.38909  -0.35732
 Alpha  occ. eigenvalues --   -0.34927  -0.33817  -0.33261  -0.31304  -0.30783
 Alpha  occ. eigenvalues --   -0.30271  -0.29519  -0.26925  -0.26460  -0.25450
 Alpha  occ. eigenvalues --   -0.25337  -0.24696  -0.23609  -0.21804  -0.21381
 Alpha  occ. eigenvalues --   -0.20236  -0.20180  -0.19239  -0.16492  -0.15503
 Alpha  occ. eigenvalues --   -0.13744  -0.13354  -0.10312   0.04023
 Alpha virt. eigenvalues --    0.06552   0.08529   0.09030   0.09253   0.10097
 Alpha virt. eigenvalues --    0.10441   0.11401   0.11633   0.12819   0.12886
 Alpha virt. eigenvalues --    0.12965   0.13755   0.13984   0.14869   0.15278

  Beta  occ. eigenvalues --  -88.94933 -19.00698 -19.00582 -18.96326 -14.23802
  Beta  occ. eigenvalues --  -14.21232 -10.14500 -10.06675 -10.05271 -10.04894
  Beta  occ. eigenvalues --  -10.04638 -10.03828 -10.03366 -10.03243 -10.02833
  Beta  occ. eigenvalues --  -10.02679  -8.01126  -5.97431  -5.97396  -5.97146
  Beta  occ. eigenvalues --   -1.00835  -0.91212  -0.90098  -0.80526  -0.78441
  Beta  occ. eigenvalues --   -0.73092  -0.67415  -0.63522  -0.62232  -0.56042
  Beta  occ. eigenvalues --   -0.54428  -0.50872  -0.47451  -0.46318  -0.43664
  Beta  occ. eigenvalues --   -0.42939  -0.41654  -0.39622  -0.38711  -0.35498
  Beta  occ. eigenvalues --   -0.34793  -0.33559  -0.33081  -0.31093  -0.30627
  Beta  occ. eigenvalues --   -0.30074  -0.29251  -0.26692  -0.26300  -0.25334
  Beta  occ. eigenvalues --   -0.25098  -0.23980  -0.23443  -0.21677  -0.21216
  Beta  occ. eigenvalues --   -0.20155  -0.20081  -0.18982  -0.15840  -0.14561
  Beta  occ. eigenvalues --   -0.13472  -0.12578  -0.08706
  Beta virt. eigenvalues --    0.06607   0.08483   0.08986   0.09541   0.09698
  Beta virt. eigenvalues --    0.10074   0.10442   0.11396   0.11778   0.12827
  Beta virt. eigenvalues --    0.12939   0.13456   0.13717   0.14015   0.14875

 Mulliken charges and spin densities:
               1          2
     1  C   -0.618116   0.002728
     2  C    0.807762   0.286129
     3  C   -1.247746   0.119457
     4  C    1.311837   0.006554
     5  C    0.017869  -0.103988
     6  C   -0.191172   0.073865
     7  C   -0.421939   0.338717
     8  C   -0.547465  -0.063982
     9  C   -0.918721   0.238204
    10  S    0.381544  -0.078023
    11  O   -0.258157   0.005924
    12  O   -0.255451  -0.001150
    13  N   -0.262965  -0.022967
    14  C   -0.316728   0.016367
    15  O   -0.348836   0.030205
    16  N   -0.275884   0.000757
    17  H    0.125225   0.006144
    18  H    0.113134   0.015622
    19  H    0.156202   0.010618
    20  H    0.093134   0.016364
    21  H    0.196536   0.034550
    22  H    0.179926  -0.023140
    23  H    0.128570   0.006408
    24  H    0.181020  -0.016254
    25  H    0.223445   0.055739
    26  H    0.244878   0.035826
    27  H    0.247451  -0.001940
    28  H    0.254647   0.011270
 Sum of Mulliken charges =  -1.00000   1.00000

 Dipole moment (field-independent basis, Debye):
    X=             -3.1185    Y=             -1.1451    Z=             -0.4814  Tot=              3.3568
 Quadrupole moment (field-independent basis, Debye-Ang):
   XX=           -168.1105   YY=           -113.9566   ZZ=           -113.4409
   XY=             -1.5434   XZ=             16.0307   YZ=              4.7568

 Summary of Natural Population Analysis:

                                       Natural Population
                Natural  -----------------------------------------------
    Atom  No    Charge         Core      Valence    Rydberg      Total
 -----------------------------------------------------------------------
      C    1   -0.29132      0.99964     2.28696    0.00471     3.29132
      C    2    0.01013      0.99944     1.98052    0.00990     2.98987
      C    3   -0.09009      0.99947     2.08154    0.00908     3.09009
      C    4   -0.01633      0.99951     2.00610    0.01072     3.01633
      C    5   -0.09468      0.99947     2.08621    0.00899     3.09468
      C    6   -0.13396      0.99936     2.12010    0.01450     3.13396
      C    7   -0.02806      0.99951     2.01856    0.00999     3.02806
      C    8   -0.12534      0.99957     2.11645    0.00932     3.12534
      C    9   -0.03226      0.99953     2.02451    0.00822     3.03226
      S   10    1.09434      4.99925     1.80392    0.10249     6.90566
      O   11   -0.46995      0.99991     3.46481    0.00523     4.46995
      O   12   -0.47125      0.99991     3.46610    0.00524     4.47125
      N   13   -0.51574      0.99978     3.00472    0.01124     4.01574
      C   14    0.33689      0.99964     1.63849    0.02497     2.66311
      O   15   -0.32390      0.99988     3.31765    0.00637     4.32390
      N   16   -0.40052      0.99970     2.89418    0.00664     3.90052
      H   17    0.09433      0.00000     0.40470    0.00097     0.40567
      H   18    0.09596      0.00000     0.40286    0.00118     0.40404
      H   19    0.10741      0.00000     0.39128    0.00131     0.39259
      H   20    0.09010      0.00000     0.40819    0.00171     0.40990
      H   21    0.10578      0.00000     0.39207    0.00215     0.39422
      H   22    0.10024      0.00000     0.39865    0.00112     0.39976
      H   23    0.09374      0.00000     0.40526    0.00101     0.40626
      H   24    0.09891      0.00000     0.39980    0.00129     0.40109
      H   25    0.18994      0.00000     0.30708    0.00297     0.31006
      H   26    0.19033      0.00000     0.30706    0.00261     0.30967
      H   27    0.19915      0.00000     0.29979    0.00106     0.30085
      H   28    0.18614      0.00000     0.31063    0.00324     0.31386
 =======================================================================
   * Total *    0.00000     19.99359    42.73818    0.26823    63.00000

 Normal termination of Gaussian 16 at Sun Dec 13 16:38:23 2020.
