 Gaussian 16, Revision A.03,

 -----------------------------------------------------------
 # opt freq B3LYP/6-31G(d) empiricaldispersion=gd3bj scf=xqc
 -----------------------------------------------------------

 -------------------------------
 CID_126747686_JID_3436_neutraal
 -------------------------------
 Symbolic Z-matrix:
 Charge =  0 Multiplicity = 1

 SCF Done:  E(RB3LYP) =  -933.041548471     A.U. after   16 cycles
 SCF Done:  E(RB3LYP) =  -933.048832826     A.U. after   13 cycles
 SCF Done:  E(RB3LYP) =  -933.050656978     A.U. after   13 cycles
 SCF Done:  E(RB3LYP) =  -933.052392415     A.U. after   13 cycles
 SCF Done:  E(RB3LYP) =  -933.055481660     A.U. after   15 cycles
 SCF Done:  E(RB3LYP) =  -933.057326706     A.U. after   14 cycles
 SCF Done:  E(RB3LYP) =  -933.058548971     A.U. after   12 cycles
 SCF Done:  E(RB3LYP) =  -933.058863229     A.U. after   12 cycles
 SCF Done:  E(RB3LYP) =  -933.059023548     A.U. after   12 cycles
 SCF Done:  E(RB3LYP) =  -933.059046431     A.U. after   11 cycles
 SCF Done:  E(RB3LYP) =  -933.059338643     A.U. after   11 cycles
 SCF Done:  E(RB3LYP) =  -933.059339929     A.U. after    9 cycles
 SCF Done:  E(RB3LYP) =  -933.059340879     A.U. after    9 cycles
 SCF Done:  E(RB3LYP) =  -933.059341045     A.U. after    8 cycles
 SCF Done:  E(RB3LYP) =  -933.059341068     A.U. after    7 cycles
 Optimization completed.
    -- Stationary point found.
 Normal termination of Gaussian 16 at Wed Dec  9 23:27:11 2020.

 --------------------------------------------------------------------
 #N Geom=AllCheck Guess=TCheck SCRF=Check GenChk RB3LYP/6-31G(d) Freq
 --------------------------------------------------------------------

 Structure from the checkpoint file:  "JID_3436.chk"
 -------------------------------
 CID_126747686_JID_3436_neutraal
 -------------------------------
 Charge =  0 Multiplicity = 1

 SCF Done:  E(RB3LYP) =  -933.059341068     A.U. after    1 cycles

  Exact polarizability: 181.138   1.742 119.061  -5.900   5.912  78.963
 Approx polarizability: 230.415   6.270 214.069 -12.631  17.911 124.739

                      1                      2                      3
                      A                      A                      A
 Frequencies --     39.6797                49.2189                55.5428
 Red. masses --      3.4794                 3.8848                 1.2045
 Frc consts  --      0.0032                 0.0055                 0.0022
 IR Inten    --      1.2589                 0.5730                 0.5385

                      4                      5                      6
                      A                      A                      A
 Frequencies --     69.0183                90.7227               135.6073
 Red. masses --      2.4891                 4.4358                 3.5843
 Frc consts  --      0.0070                 0.0215                 0.0388
 IR Inten    --      0.3377                 2.5717                 0.4992

                      7                      8                      9
                      A                      A                      A
 Frequencies --    174.2354               210.5396               279.8833
 Red. masses --      5.6228                 4.5529                 5.3537
 Frc consts  --      0.1006                 0.1189                 0.2471
 IR Inten    --      8.9955                 3.0360                 2.1738

                     10                     11                     12
                      A                      A                      A
 Frequencies --    309.1795               335.5398               382.4830
 Red. masses --      4.7339                 3.6329                 3.2814
 Frc consts  --      0.2666                 0.2410                 0.2828
 IR Inten    --      1.9125                 1.8924                 2.8749

                     13                     14                     15
                      A                      A                      A
 Frequencies --    417.4342               436.3777               452.7077
 Red. masses --      3.4693                 4.2030                 2.7569
 Frc consts  --      0.3562                 0.4716                 0.3329
 IR Inten    --      6.1037                14.0857                 4.4939

                     16                     17                     18
                      A                      A                      A
 Frequencies --    483.7954               544.8165               635.2261
 Red. masses --      3.9897                 3.9278                 4.8907
 Frc consts  --      0.5502                 0.6869                 1.1627
 IR Inten    --     19.8698                18.2789                23.5624

                     19                     20                     21
                      A                      A                      A
 Frequencies --    648.6009               655.1585               743.7101
 Red. masses --      3.5573                 6.5206                 3.6308
 Frc consts  --      0.8817                 1.6490                 1.1832
 IR Inten    --     68.7248                 8.1022                 8.8569

                     22                     23                     24
                      A                      A                      A
 Frequencies --    782.0383               826.9306               836.5773
 Red. masses --      1.1833                 1.5966                 5.1057
 Frc consts  --      0.4264                 0.6432                 2.1053
 IR Inten    --      4.6694                21.1523                 1.2482

                     25                     26                     27
                      A                      A                      A
 Frequencies --    852.9800               857.6383               873.5009
 Red. masses --      1.3139                 1.5595                 2.2922
 Frc consts  --      0.5632                 0.6758                 1.0304
 IR Inten    --      1.3145                18.9868                46.1255

                     28                     29                     30
                      A                      A                      A
 Frequencies --    954.2664               981.9871              1002.2520
 Red. masses --      1.3812                 2.7252                 1.3278
 Frc consts  --      0.7411                 1.5483                 0.7859
 IR Inten    --      0.7277                11.3816                 1.2772

                     31                     32                     33
                      A                      A                      A
 Frequencies --   1017.1907              1017.8353              1039.8813
 Red. masses --      2.0856                 1.8867                 3.2602
 Frc consts  --      1.2714                 1.1516                 2.0771
 IR Inten    --      7.7734                 3.1700                15.2919

                     34                     35                     36
                      A                      A                      A
 Frequencies --   1065.6394              1075.8855              1086.0513
 Red. masses --      1.3123                 1.5917                 1.3629
 Frc consts  --      0.8780                 1.0855                 0.9472
 IR Inten    --      9.8325                 6.9454                 1.9353

                     37                     38                     39
                      A                      A                      A
 Frequencies --   1098.9093              1123.1569              1146.6535
 Red. masses --      6.1128                 3.5450                 1.1634
 Frc consts  --      4.3492                 2.6348                 0.9012
 IR Inten    --     94.2243                52.1629                 3.1832

                     40                     41                     42
                      A                      A                      A
 Frequencies --   1164.1191              1189.4074              1209.7563
 Red. masses --      1.3124                 1.8524                 1.3714
 Frc consts  --      1.0479                 1.5440                 1.1825
 IR Inten    --      6.7856                16.6396                 0.7775

                     43                     44                     45
                      A                      A                      A
 Frequencies --   1250.0995              1261.7879              1314.6921
 Red. masses --      1.9288                 3.0394                 6.5393
 Frc consts  --      1.7760                 2.8511                 6.6593
 IR Inten    --      0.8008                 5.9198                 2.7396

                     46                     47                     48
                      A                      A                      A
 Frequencies --   1336.1780              1382.9959              1408.2017
 Red. masses --      1.3868                 1.3791                 3.2255
 Frc consts  --      1.4587                 1.5541                 3.7686
 IR Inten    --      7.0211                49.6615                32.5298

                     49                     50                     51
                      A                      A                      A
 Frequencies --   1426.8598              1439.0359              1484.6172
 Red. masses --      1.3167                 1.2652                 1.0915
 Frc consts  --      1.5794                 1.5437                 1.4174
 IR Inten    --     12.5364                 1.0823                 2.1630

                     52                     53                     54
                      A                      A                      A
 Frequencies --   1505.7852              1514.2261              1520.7496
 Red. masses --      1.0454                 1.4505                 1.5588
 Frc consts  --      1.3965                 1.9595                 2.1240
 IR Inten    --      5.7953                28.0278                21.6361

                     55                     56                     57
                      A                      A                      A
 Frequencies --   1529.0386              1620.1781              1638.3089
 Red. masses --      1.4028                 5.8983                 5.7768
 Frc consts  --      1.9324                 9.1222                 9.1354
 IR Inten    --      7.0079                11.2395                62.5447

                     58                     59                     60
                      A                      A                      A
 Frequencies --   3058.6164              3118.3258              3138.2054
 Red. masses --      1.0360                 1.1007                 1.0872
 Frc consts  --      5.7105                 6.3063                 6.3086
 IR Inten    --     17.0341                10.9884                23.3762

                     61                     62                     63
                      A                      A                      A
 Frequencies --   3141.5386              3157.7860              3163.7618
 Red. masses --      1.1032                 1.0522                 1.0585
 Frc consts  --      6.4151                 6.1819                 6.2421
 IR Inten    --     16.3403                15.3115                 6.5234

                     64                     65                     66
                      A                      A                      A
 Frequencies --   3188.0033              3201.8792              3217.8645
 Red. masses --      1.0904                 1.0888                 1.0940
 Frc consts  --      6.5294                 6.5770                 6.6740
 IR Inten    --     11.3818                 8.8498                 8.2412

                     67                     68                     69
                      A                      A                      A
 Frequencies --   3238.4708              3251.3129              3459.4870
 Red. masses --      1.1204                 1.1170                 1.0749
 Frc consts  --      6.9229                 6.9567                 7.5794
 IR Inten    --      0.6392                16.9982                 3.5126

 - Thermochemistry -
 -------------------
 Temperature   298.150 Kelvin.  Pressure   1.00000 Atm.
 Atom     1 has atomic number  6 and mass  12.00000

 Molecular mass:   196.06703 amu.
 Principal axes and moments of inertia in atomic units:
                           1         2         3
     Eigenvalues --  1090.125835058.628565819.22323
           X            0.99996  -0.00886  -0.00187
           Y            0.00887   0.99994   0.00685
           Z            0.00181  -0.00686   0.99997
 This molecule is an asymmetric top.
 Rotational symmetry number  1.
 Warning -- assumption of classical behavior for rotation
           may cause significant error
 Rotational temperatures (Kelvin)      0.07945     0.01712     0.01488
 Rotational constants (GHZ):           1.65553     0.35676     0.31013
 Zero-point vibrational energy     528271.8 (Joules/Mol)
                                  126.25998 (Kcal/Mol)
 Warning -- explicit consideration of  17 degrees of freedom as
           vibrations may cause significant error
 Vibrational temperatures:     57.09    70.82    79.91    99.30   130.53
          (Kelvin)            195.11   250.69   302.92   402.69   444.84
                              482.77   550.31   600.59   627.85   651.35
                              696.07   783.87   913.95   933.19   942.63
                             1070.03  1125.18  1189.77  1203.65  1227.25
                             1233.95  1256.77  1372.98  1412.86  1442.02
                             1463.51  1464.44  1496.16  1533.22  1547.96
                             1562.59  1581.09  1615.97  1649.78  1674.91
                             1711.29  1740.57  1798.61  1815.43  1891.55
                             1922.46  1989.82  2026.09  2052.93  2070.45
                             2136.03  2166.49  2178.63  2188.02  2199.95
                             2331.07  2357.16  4400.67  4486.58  4515.18
                             4519.97  4543.35  4551.95  4586.83  4606.79
                             4629.79  4659.44  4677.91  4977.43

 Zero-point correction=                           0.201208 (Hartree/Particle)
 Thermal correction to Energy=                    0.214183
 Thermal correction to Enthalpy=                  0.215127
 Thermal correction to Gibbs Free Energy=         0.159942
 Sum of electronic and zero-point Energies=           -932.858133
 Sum of electronic and thermal Energies=              -932.845158
 Sum of electronic and thermal Enthalpies=            -932.844214
 Sum of electronic and thermal Free Energies=         -932.899399

                     E (Thermal)             CV                S
                      KCal/Mol        Cal/Mol-Kelvin    Cal/Mol-Kelvin
 Total                  134.402             47.690            116.148
 Electronic               0.000              0.000              0.000
 Translational            0.889              2.981             41.725
 Rotational               0.889              2.981             31.840
 Vibrational            132.624             41.728             42.583
 Vibration     1          0.594              1.981              5.275
 Vibration     2          0.595              1.978              4.849
 Vibration     3          0.596              1.975              4.610
 Vibration     4          0.598              1.969              4.181
 Vibration     5          0.602              1.956              3.644
 Vibration     6          0.613              1.918              2.865
 Vibration     7          0.627              1.874              2.389
 Vibration     8          0.643              1.825              2.039
 Vibration     9          0.680              1.711              1.534
 Vibration    10          0.699              1.656              1.367
 Vibration    11          0.717              1.605              1.233
 Vibration    12          0.752              1.508              1.029
 Vibration    13          0.780              1.432              0.901
 Vibration    14          0.797              1.391              0.838
 Vibration    15          0.811              1.355              0.788
 Vibration    16          0.840              1.286              0.700
 Vibration    17          0.900              1.151              0.555

 Optimization completed.
    -- Stationary point found.
 Normal termination of Gaussian 16 at Wed Dec  9 23:32:57 2020.

 ----------------------------------------------------------------------
 # B3LYP/6-311++G(d,p) empiricaldispersion=gd3bj scf=xqc pop=npa geom=c
 heck
 ----------------------------------------------------------------------

 ---------------------------------------
 CID_126747686_JID_3436_Energie_neutraal
 ---------------------------------------
 Structure from the checkpoint file:  "JID_3436.chk"
 Charge =  0 Multiplicity = 1

 SCF Done:  E(RB3LYP) =  -933.235965335     A.U. after   17 cycles
 Normal termination of Gaussian 16 at Wed Dec  9 23:36:10 2020.

 ----------------------------------------------------------------------
 # B3LYP/6-311++G(d,p) empiricaldispersion=gd3bj scf=xqc pop=npa geom=c
 heck
 ----------------------------------------------------------------------

 -------------------------------------
 CID_126747686_JID_3436_Energie_kation
 -------------------------------------
 Structure from the checkpoint file:  "JID_3436.chk"
 Charge =  1 Multiplicity = 2

 SCF Done:  E(UB3LYP) =  -932.919801774     A.U. after   30 cycles
 Normal termination of Gaussian 16 at Wed Dec  9 23:44:11 2020.
 Gaussian 16:  ES64L-G16RevA.03 25-Dec-2016

 ----------------------------------------------------------------------
 # B3LYP/6-311++G(d,p) empiricaldispersion=gd3bj scf=xqc pop=npa geom=c
 heck
 ----------------------------------------------------------------------

 ------------------------------------
 CID_126747686_JID_3436_Energie_anion
 ------------------------------------
 Structure from the checkpoint file:  "JID_3436.chk"
 Charge = -1 Multiplicity = 2

                         Standard orientation:
 ---------------------------------------------------------------------
 Center     Atomic      Atomic             Coordinates (Angstroms)
 Number     Number       Type             X           Y           Z
 ---------------------------------------------------------------------
      1          6           0       -4.675517   -1.013625    0.207645
      2          6           0       -3.271883   -0.487209    0.066238
      3          7           0       -2.354362   -1.360694   -0.391845
      4          6           0       -1.097851   -0.938589   -0.540096
      5          6           0       -0.693740    0.363759   -0.236343
      6          6           0       -1.633682    1.274305    0.231765
      7          6           0       -2.945673    0.835208    0.390868
      8         16           0        1.004379    0.941808   -0.514262
      9          8           0        1.070759    2.305221    0.121176
     10          7           0        1.698111   -0.302516    0.469952
     11          6           0        3.142551   -0.240867    0.525168
     12          6           0        3.871309   -1.554421    0.640832
     13          6           0        3.886807   -0.794360   -0.661254
     14          1           0       -5.052202   -1.354977   -0.762929
     15          1           0       -4.690040   -1.879520    0.878453
     16          1           0       -5.356208   -0.252821    0.599798
     17          1           0       -0.376284   -1.668691   -0.899546
     18          1           0       -1.322530    2.287741    0.467359
     19          1           0       -3.713143    1.508587    0.760206
     20          1           0        1.278403   -0.288988    1.402037
     21          1           0        3.576130    0.623666    1.026778
     22          1           0        4.774780   -1.581022    1.242620
     23          1           0        3.258636   -2.449134    0.690111
     24          1           0        3.286548   -1.186154   -1.476200
     25          1           0        4.799600   -0.292129   -0.965576
 ---------------------------------------------------------------------

 SCF Done:  E(UB3LYP) =  -933.229640878     A.U. after   33 cycles
 SCF Done:  E(UB3LYP) =  -933.229640878     a.u. after    1 cycles

 The electronic state is 2-A.
 Alpha  occ. eigenvalues --  -88.84021 -18.96595 -14.21597 -14.16661 -10.10486
 Alpha  occ. eigenvalues --  -10.08301 -10.07324 -10.07250 -10.06848 -10.05737
 Alpha  occ. eigenvalues --  -10.05288 -10.05034 -10.04145  -7.91409  -5.87771
 Alpha  occ. eigenvalues --   -5.87548  -5.86970  -0.90629  -0.81454  -0.81029
 Alpha  occ. eigenvalues --   -0.73261  -0.67670  -0.65813  -0.59700  -0.54431
 Alpha  occ. eigenvalues --   -0.50693  -0.50369  -0.47877  -0.46455  -0.41797
 Alpha  occ. eigenvalues --   -0.39605  -0.37265  -0.37207  -0.34886  -0.32871
 Alpha  occ. eigenvalues --   -0.31499  -0.30947  -0.30090  -0.28701  -0.27044
 Alpha  occ. eigenvalues --   -0.26855  -0.26064  -0.25332  -0.23905  -0.21706
 Alpha  occ. eigenvalues --   -0.20388  -0.18141  -0.16311  -0.15082  -0.13859
 Alpha  occ. eigenvalues --   -0.12919  -0.11555   0.05086
 Alpha virt. eigenvalues --    0.06752   0.07832   0.08883   0.09425   0.09612
 Alpha virt. eigenvalues --    0.09845   0.10340   0.11285   0.12129   0.12299
 Alpha virt. eigenvalues --    0.12789   0.13020   0.14208   0.14798   0.15085

  Beta  occ. eigenvalues --  -88.84005 -18.96557 -14.21497 -14.16449 -10.10474
  Beta  occ. eigenvalues --  -10.08347 -10.07310 -10.07223 -10.06502 -10.05587
  Beta  occ. eigenvalues --  -10.05319 -10.05148 -10.03793  -7.91391  -5.87754
  Beta  occ. eigenvalues --   -5.87508  -5.86963  -0.90503  -0.81318  -0.80627
  Beta  occ. eigenvalues --   -0.73145  -0.67174  -0.65485  -0.59514  -0.54316
  Beta  occ. eigenvalues --   -0.50618  -0.50213  -0.47735  -0.46000  -0.41709
  Beta  occ. eigenvalues --   -0.39457  -0.37168  -0.37035  -0.34644  -0.32742
  Beta  occ. eigenvalues --   -0.31103  -0.30696  -0.29965  -0.28588  -0.26967
  Beta  occ. eigenvalues --   -0.26673  -0.25881  -0.24722  -0.23730  -0.21599
  Beta  occ. eigenvalues --   -0.20328  -0.18012  -0.14872  -0.14846  -0.13422
  Beta  occ. eigenvalues --   -0.12350  -0.11191
  Beta virt. eigenvalues --    0.07679   0.07859   0.09177   0.09397   0.09806
  Beta virt. eigenvalues --    0.09821   0.10209   0.10558   0.11441   0.12179
  Beta virt. eigenvalues --    0.12546   0.12765   0.12975   0.14181   0.14760

 Mulliken charges and spin densities:
               1          2
     1  C   -0.465360  -0.077675
     2  C   -0.248530   0.200671
     3  N   -0.034936   0.105159
     4  C   -0.615579  -0.017842
     5  C   -0.353571   0.106114
     6  C    0.284202   0.279007
     7  C   -0.115557   0.008414
     8  S    0.467493  -0.096677
     9  O   -0.416677   0.001571
    10  N   -0.113491  -0.095684
    11  C   -1.088809   0.945760
    12  C    0.953466  -1.349014
    13  C    0.108685  -0.405064
    14  H    0.093198   0.052129
    15  H    0.128824   0.015492
    16  H    0.106172   0.006647
    17  H    0.192870   0.007727
    18  H    0.212093   0.012724
    19  H    0.114805   0.013361
    20  H    0.273602   0.024051
    21  H   -0.109531   0.336226
    22  H   -0.511931   0.656579
    23  H    0.143058  -0.009605
    24  H    0.117273   0.014421
    25  H   -0.121768   0.265509
 Sum of Mulliken charges =  -1.00000   1.00000

 Dipole moment (field-independent basis, Debye):
    X=             -3.8299    Y=             -0.3356    Z=             -0.4823  Tot=              3.8747
 Quadrupole moment (field-independent basis, Debye-Ang):
   XX=           -157.7741   YY=           -114.4972   ZZ=            -98.0579
   XY=             -3.3611   XZ=             -9.5788   YZ=              0.6408

 Summary of Natural Population Analysis:

                                       Natural Population
                Natural  -----------------------------------------------
    Atom  No    Charge         Core      Valence    Rydberg      Total
 -----------------------------------------------------------------------
      C    1   -0.29813      0.99964     2.29381    0.00468     3.29813
      C    2    0.16011      0.99956     1.82740    0.01293     2.83989
      N    3   -0.22674      0.99968     2.71286    0.01420     3.72674
      C    4    0.02396      0.99952     1.96221    0.01431     2.97604
      C    5   -0.12925      0.99935     2.11720    0.01270     3.12925
      C    6   -0.02417      0.99950     2.01404    0.01063     3.02417
      C    7   -0.14740      0.99952     2.14023    0.00765     3.14740
      S    8    0.67551      4.99937     2.26267    0.06246     7.32449
      O    9   -0.48236      0.99993     3.47647    0.00596     4.48236
      N   10   -0.41431      0.99975     2.90128    0.01328     3.91431
      C   11   -0.02950      0.99959     2.01495    0.01497     3.02950
      C   12   -0.19892      0.99962     2.18917    0.01013     3.19892
      C   13   -0.20094      0.99962     2.19069    0.01064     3.20094
      H   14    0.10414      0.00000     0.39474    0.00112     0.39586
      H   15    0.10405      0.00000     0.39492    0.00103     0.39595
      H   16    0.09174      0.00000     0.40748    0.00078     0.40826
      H   17    0.08939      0.00000     0.40851    0.00209     0.41061
      H   18    0.10800      0.00000     0.39049    0.00151     0.39200
      H   19    0.09401      0.00000     0.40497    0.00102     0.40599
      H   20    0.18449      0.00000     0.31301    0.00249     0.31551
      H   21    0.09785      0.00000     0.40036    0.00179     0.40215
      H   22    0.10519      0.00000     0.39209    0.00272     0.39481
      H   23    0.10409      0.00000     0.39487    0.00104     0.39591
      H   24    0.10511      0.00000     0.39359    0.00130     0.39489
      H   25    0.10408      0.00000     0.39474    0.00118     0.39592
 =======================================================================
   * Total *   -0.00000     16.99465    34.79276    0.21259    52.00000

 Normal termination of Gaussian 16 at Wed Dec  9 23:53:08 2020.
