 Gaussian 16, Revision A.03,

 -----------------------------------------------------------
 # opt freq B3LYP/6-31G(d) empiricaldispersion=gd3bj scf=xqc
 -----------------------------------------------------------

 ------------------------------
 CID_80562294_JID_3417_neutraal
 ------------------------------
 Symbolic Z-matrix:
 Charge =  0 Multiplicity = 1

 SCF Done:  E(RB3LYP) =  -554.345098791     A.U. after   14 cycles
 SCF Done:  E(RB3LYP) =  -554.357615419     A.U. after   12 cycles
 SCF Done:  E(RB3LYP) =  -554.358635169     A.U. after   12 cycles
 SCF Done:  E(RB3LYP) =  -554.359074978     A.U. after   12 cycles
 SCF Done:  E(RB3LYP) =  -554.359158091     A.U. after   11 cycles
 SCF Done:  E(RB3LYP) =  -554.359180659     A.U. after   10 cycles
 SCF Done:  E(RB3LYP) =  -554.359187915     A.U. after   10 cycles
 SCF Done:  E(RB3LYP) =  -554.359191743     A.U. after    9 cycles
 SCF Done:  E(RB3LYP) =  -554.359193786     A.U. after    9 cycles
 SCF Done:  E(RB3LYP) =  -554.359195122     A.U. after    9 cycles
 SCF Done:  E(RB3LYP) =  -554.359196121     A.U. after    9 cycles
 SCF Done:  E(RB3LYP) =  -554.359196350     A.U. after    8 cycles
 SCF Done:  E(RB3LYP) =  -554.359196404     A.U. after    7 cycles
 Optimization completed.
    -- Stationary point found.
 Normal termination of Gaussian 16 at Wed Dec  9 23:11:01 2020.

 --------------------------------------------------------------------
 #N Geom=AllCheck Guess=TCheck SCRF=Check GenChk RB3LYP/6-31G(d) Freq
 --------------------------------------------------------------------

 Structure from the checkpoint file:  "JID_3417.chk"
 ------------------------------
 CID_80562294_JID_3417_neutraal
 ------------------------------
 Charge =  0 Multiplicity = 1

 SCF Done:  E(RB3LYP) =  -554.359196404     A.U. after    1 cycles

  Exact polarizability: 152.395  -3.013 120.202 -19.022  -6.287  85.355
 Approx polarizability: 203.217  -7.331 198.424 -36.868 -14.156 134.364

                      1                      2                      3
                      A                      A                      A
 Frequencies --     32.0093                45.3987                60.1620
 Red. masses --      2.6791                 4.7015                 3.6902
 Frc consts  --      0.0016                 0.0057                 0.0079
 IR Inten    --      0.9609                 0.2717                 0.1886

                      4                      5                      6
                      A                      A                      A
 Frequencies --    130.8890               178.4996               210.1001
 Red. masses --      3.4516                 3.4297                 1.0610
 Frc consts  --      0.0348                 0.0644                 0.0276
 IR Inten    --      2.5496                 0.6795                 0.4028

                      7                      8                      9
                      A                      A                      A
 Frequencies --    252.8063               259.8910               275.0583
 Red. masses --      2.7781                 2.3971                 1.4545
 Frc consts  --      0.1046                 0.0954                 0.0648
 IR Inten    --      3.0987                16.4059                30.5350

                     10                     11                     12
                      A                      A                      A
 Frequencies --    319.2827               364.1977               399.7506
 Red. masses --      2.9659                 3.0505                 2.4438
 Frc consts  --      0.1781                 0.2384                 0.2301
 IR Inten    --      1.0930                13.8077                 7.9697

                     13                     14                     15
                      A                      A                      A
 Frequencies --    437.4178               450.1054               471.0279
 Red. masses --      2.5449                 1.9891                 2.4087
 Frc consts  --      0.2869                 0.2374                 0.3149
 IR Inten    --      2.9816                 1.3204                 8.6995

                     16                     17                     18
                      A                      A                      A
 Frequencies --    548.5051               565.8689               653.3625
 Red. masses --      5.2566                 4.1213                 5.6002
 Frc consts  --      0.9318                 0.7775                 1.4085
 IR Inten    --      6.6316                 0.4561                10.3657

                     19                     20                     21
                      A                      A                      A
 Frequencies --    689.6379               754.6875               781.2173
 Red. masses --      3.8622                 2.6622                 3.9540
 Frc consts  --      1.0822                 0.8934                 1.4218
 IR Inten    --      5.3029                 4.4477                 1.4013

                     22                     23                     24
                      A                      A                      A
 Frequencies --    809.1835               813.2513               829.4967
 Red. masses --      1.7800                 1.5471                 2.2336
 Frc consts  --      0.6867                 0.6028                 0.9055
 IR Inten    --     99.8868                 1.3596                12.7044

                     25                     26                     27
                      A                      A                      A
 Frequencies --    847.3563               886.4859               889.6089
 Red. masses --      1.3782                 3.3930                 1.8165
 Frc consts  --      0.5830                 1.5710                 0.8470
 IR Inten    --     21.7228                20.2117                72.6087

                     28                     29                     30
                      A                      A                      A
 Frequencies --    926.4439               931.9889               951.0305
 Red. masses --      1.4369                 2.1076                 1.3876
 Frc consts  --      0.7266                 1.0786                 0.7394
 IR Inten    --      4.5993                13.9356                41.2483

                     31                     32                     33
                      A                      A                      A
 Frequencies --    966.9045               984.3027              1008.9915
 Red. masses --      1.3831                 2.0686                 3.2158
 Frc consts  --      0.7618                 1.1808                 1.9289
 IR Inten    --      0.3089                 6.9964                33.9496

                     34                     35                     36
                      A                      A                      A
 Frequencies --   1017.6258              1075.5763              1085.1712
 Red. masses --      1.6135                 1.5249                 1.4607
 Frc consts  --      0.9844                 1.0394                 1.0135
 IR Inten    --      3.2950                 8.6906                12.9813

                     37                     38                     39
                      A                      A                      A
 Frequencies --   1106.0232              1133.8165              1149.0115
 Red. masses --      1.8420                 1.6578                 1.7463
 Frc consts  --      1.3276                 1.2557                 1.3584
 IR Inten    --      4.9204                 9.7794                 3.0810

                     40                     41                     42
                      A                      A                      A
 Frequencies --   1187.3984              1219.1897              1231.7781
 Red. masses --      2.4165                 1.9851                 1.8516
 Frc consts  --      2.0074                 1.7385                 1.6553
 IR Inten    --     30.2718                 9.1062                 5.9781

                     43                     44                     45
                      A                      A                      A
 Frequencies --   1247.5060              1276.1860              1279.8343
 Red. masses --      1.8572                 1.4432                 1.5621
 Frc consts  --      1.7029                 1.3849                 1.5075
 IR Inten    --     24.9802                 6.3594                 9.5816

                     46                     47                     48
                      A                      A                      A
 Frequencies --   1286.9578              1294.1614              1312.8390
 Red. masses --      1.6159                 2.3644                 1.5503
 Frc consts  --      1.5769                 2.3332                 1.5743
 IR Inten    --     23.8777                50.6323                 5.6667

                     49                     50                     51
                      A                      A                      A
 Frequencies --   1321.5920              1336.0535              1392.8529
 Red. masses --      3.4466                 1.8785                 1.2619
 Frc consts  --      3.5468                 1.9757                 1.4424
 IR Inten    --     20.4209                33.2045                 3.9014

                     52                     53                     54
                      A                      A                      A
 Frequencies --   1433.9330              1437.1684              1451.1741
 Red. masses --      1.3304                 1.2634                 1.8382
 Frc consts  --      1.6117                 1.5375                 2.2808
 IR Inten    --     14.3886                 2.0666                11.2282

                     55                     56                     57
                      A                      A                      A
 Frequencies --   1493.7531              1509.1277              1517.2668
 Red. masses --      1.0950                 1.2242                 1.2155
 Frc consts  --      1.4396                 1.6427                 1.6487
 IR Inten    --      6.0457                37.9372                32.1590

                     58                     59                     60
                      A                      A                      A
 Frequencies --   1519.5219              1529.4548              1552.1830
 Red. masses --      1.1346                 1.2516                 1.9535
 Frc consts  --      1.5435                 1.7250                 2.7729
 IR Inten    --      4.0287                71.6886                 1.0292

                     61                     62                     63
                      A                      A                      A
 Frequencies --   1625.3092              1651.2368              1697.7096
 Red. masses --      5.1145                 5.1524                 1.0908
 Frc consts  --      7.9603                 8.2771                 1.8523
 IR Inten    --      4.7188                14.3795                26.0303

                     64                     65                     66
                      A                      A                      A
 Frequencies --   3041.6322              3049.8245              3070.0531
 Red. masses --      1.0421                 1.0613                 1.0627
 Frc consts  --      5.6805                 5.8162                 5.9014
 IR Inten    --     20.3854                33.7878                18.5613

                     67                     68                     69
                      A                      A                      A
 Frequencies --   3088.1847              3100.4160              3102.4096
 Red. masses --      1.0855                 1.0925                 1.0946
 Frc consts  --      6.0994                 6.1874                 6.2075
 IR Inten    --     48.9986                 9.1003                15.7616

                     70                     71                     72
                      A                      A                      A
 Frequencies --   3115.7189              3130.9850              3135.1684
 Red. masses --      1.0989                 1.1033                 1.1029
 Frc consts  --      6.2852                 6.3724                 6.3874
 IR Inten    --     31.7847                25.7940                 7.8482

                     73                     74                     75
                      A                      A                      A
 Frequencies --   3135.7429              3173.0395              3193.8763
 Red. masses --      1.0902                 1.0873                 1.0951
 Frc consts  --      6.3157                 6.4501                 6.5818
 IR Inten    --     53.6068                14.2533                32.8529

                     76                     77                     78
                      A                      A                      A
 Frequencies --   3452.1228              3496.1699              3537.3698
 Red. masses --      1.0492                 1.0736                 1.0923
 Frc consts  --      7.3670                 7.7320                 8.0529
 IR Inten    --      1.8738                 0.4417                 1.4780

 - Thermochemistry -
 -------------------
 Temperature   298.150 Kelvin.  Pressure   1.00000 Atm.
 Atom     1 has atomic number  6 and mass  12.00000

 Molecular mass:   177.12660 amu.
 Principal axes and moments of inertia in atomic units:
                           1         2         3
     Eigenvalues --  1060.034864250.519124634.54023
           X            0.99995   0.00934  -0.00456
           Y           -0.00943   0.99976  -0.01986
           Z            0.00437   0.01990   0.99979
 This molecule is an asymmetric top.
 Rotational symmetry number  1.
 Warning -- assumption of classical behavior for rotation
           may cause significant error
 Rotational temperatures (Kelvin)      0.08171     0.02038     0.01869
 Rotational constants (GHZ):           1.70253     0.42459     0.38941
 Zero-point vibrational energy     639517.9 (Joules/Mol)
                                  152.84845 (Kcal/Mol)
 Warning -- explicit consideration of  17 degrees of freedom as
           vibrations may cause significant error
 Vibrational temperatures:     46.05    65.32    86.56   188.32   256.82
          (Kelvin)            302.29   363.73   373.93   395.75   459.38
                              524.00   575.15   629.35   647.60   677.70
                              789.18   814.16   940.04   992.24  1085.83
                             1124.00  1164.23  1170.09  1193.46  1219.16
                             1275.46  1279.95  1332.95  1340.92  1368.32
                             1391.16  1416.19  1451.71  1464.14  1547.51
                             1561.32  1591.32  1631.31  1653.17  1708.40
                             1754.14  1772.25  1794.88  1836.15  1841.40
                             1851.65  1862.01  1888.88  1901.48  1922.28
                             2004.00  2063.11  2067.76  2087.92  2149.18
                             2171.30  2183.01  2186.25  2200.54  2233.25
                             2338.46  2375.76  2442.63  4376.23  4388.02
                             4417.12  4443.21  4460.81  4463.68  4482.82
                             4504.79  4510.81  4511.63  4565.30  4595.28
                             4966.83  5030.21  5089.49

 Zero-point correction=                           0.243580 (Hartree/Particle)
 Thermal correction to Energy=                    0.255816
 Thermal correction to Enthalpy=                  0.256760
 Thermal correction to Gibbs Free Energy=         0.204116
 Sum of electronic and zero-point Energies=           -554.115617
 Sum of electronic and thermal Energies=              -554.103381
 Sum of electronic and thermal Enthalpies=            -554.102436
 Sum of electronic and thermal Free Energies=         -554.155081

                     E (Thermal)             CV                S
                      KCal/Mol        Cal/Mol-Kelvin    Cal/Mol-Kelvin
 Total                  160.527             47.351            110.799
 Electronic               0.000              0.000              0.000
 Translational            0.889              2.981             41.422
 Rotational               0.889              2.981             31.413
 Vibrational            158.749             41.389             37.964
 Vibration     1          0.594              1.983              5.701
 Vibration     2          0.595              1.979              5.008
 Vibration     3          0.597              1.973              4.452
 Vibration     4          0.612              1.922              2.933
 Vibration     5          0.629              1.869              2.344
 Vibration     6          0.642              1.825              2.043
 Vibration     7          0.664              1.758              1.711
 Vibration     8          0.668              1.746              1.663
 Vibration     9          0.677              1.719              1.564
 Vibration    10          0.705              1.637              1.314
 Vibration    11          0.738              1.546              1.104
 Vibration    12          0.766              1.471              0.964
 Vibration    13          0.798              1.389              0.835
 Vibration    14          0.809              1.361              0.795
 Vibration    15          0.828              1.314              0.735
 Vibration    16          0.904              1.143              0.547
 Vibration    17          0.922              1.105              0.512

 Optimization completed.
    -- Stationary point found.
 Normal termination of Gaussian 16 at Wed Dec  9 23:18:01 2020.

 ----------------------------------------------------------------------
 # B3LYP/6-311++G(d,p) empiricaldispersion=gd3bj scf=xqc pop=npa geom=c
 heck
 ----------------------------------------------------------------------

 --------------------------------------
 CID_80562294_JID_3417_Energie_neutraal
 --------------------------------------
 Structure from the checkpoint file:  "JID_3417.chk"
 Charge =  0 Multiplicity = 1

 SCF Done:  E(RB3LYP) =  -554.517000831     A.U. after   15 cycles
 Normal termination of Gaussian 16 at Wed Dec  9 23:20:44 2020.

 ----------------------------------------------------------------------
 # B3LYP/6-311++G(d,p) empiricaldispersion=gd3bj scf=xqc pop=npa geom=c
 heck
 ----------------------------------------------------------------------

 ------------------------------------
 CID_80562294_JID_3417_Energie_kation
 ------------------------------------
 Structure from the checkpoint file:  "JID_3417.chk"
 Charge =  1 Multiplicity = 2

 SCF Done:  E(UB3LYP) =  -554.225755004     A.U. after   27 cycles
 Normal termination of Gaussian 16 at Wed Dec  9 23:27:26 2020.
 Gaussian 16:  ES64L-G16RevA.03 25-Dec-2016

 ----------------------------------------------------------------------
 # B3LYP/6-311++G(d,p) empiricaldispersion=gd3bj scf=xqc pop=npa geom=c
 heck
 ----------------------------------------------------------------------

 -----------------------------------
 CID_80562294_JID_3417_Energie_anion
 -----------------------------------
 Structure from the checkpoint file:  "JID_3417.chk"
 Charge = -1 Multiplicity = 2

                         Standard orientation:
 ---------------------------------------------------------------------
 Center     Atomic      Atomic             Coordinates (Angstroms)
 Number     Number       Type             X           Y           Z
 ---------------------------------------------------------------------
      1          6           0        1.100484    2.323577    0.240252
      2          6           0        1.719757    0.966202    0.044177
      3          6           0        1.095172   -0.209761    0.505337
      4          6           0        1.779029   -1.424296    0.342725
      5          7           0        2.979116   -1.554632   -0.224064
      6          6           0        3.553423   -0.436603   -0.683450
      7          6           0        2.967035    0.821813   -0.567451
      8          7           0       -0.155031   -0.175470    1.167240
      9          6           0       -1.327288    0.141981    0.361144
     10          6           0       -2.697349   -0.005701    1.059577
     11          6           0       -3.278340   -0.571293   -0.279683
     12          6           0       -1.822525   -0.836391   -0.747147
     13          7           0       -3.978185    0.357035   -1.162444
     14          1           0        0.399694    2.574253   -0.566880
     15          1           0        0.542970    2.356809    1.181856
     16          1           0        1.869238    3.102133    0.254417
     17          1           0        1.316602   -2.342556    0.709107
     18          1           0        4.526365   -0.551689   -1.156973
     19          1           0        3.492168    1.700230   -0.933865
     20          1           0       -0.313603   -1.059829    1.645898
     21          1           0       -1.203315    1.148298   -0.045161
     22          1           0       -2.659134   -0.773482    1.842690
     23          1           0       -3.160129    0.895272    1.476123
     24          1           0       -3.908742   -1.458757   -0.168308
     25          1           0       -1.596587   -0.597203   -1.790644
     26          1           0       -1.503546   -1.864029   -0.542183
     27          1           0       -4.842179    0.667866   -0.719108
     28          1           0       -3.417493    1.196998   -1.304979
 ---------------------------------------------------------------------

 SCF Done:  E(UB3LYP) =  -554.506253635     A.U. after   33 cycles
 SCF Done:  E(UB3LYP) =  -554.506253635     a.u. after    1 cycles

 The electronic state is 2-A.
 Alpha  occ. eigenvalues --  -14.21469 -14.19460 -14.18417 -10.10443 -10.09881
 Alpha  occ. eigenvalues --  -10.09352 -10.09327 -10.09129 -10.08040 -10.07002
 Alpha  occ. eigenvalues --  -10.06499 -10.05918 -10.05791  -0.84347  -0.81897
 Alpha  occ. eigenvalues --   -0.78528  -0.71203  -0.69390  -0.63792  -0.60482
 Alpha  occ. eigenvalues --   -0.56036  -0.53582  -0.52151  -0.48980  -0.45250
 Alpha  occ. eigenvalues --   -0.41554  -0.40601  -0.38920  -0.37905  -0.37145
 Alpha  occ. eigenvalues --   -0.34751  -0.32969  -0.32293  -0.30981  -0.29755
 Alpha  occ. eigenvalues --   -0.28988  -0.28272  -0.28049  -0.27175  -0.26001
 Alpha  occ. eigenvalues --   -0.25489  -0.22904  -0.20574  -0.18389  -0.16720
 Alpha  occ. eigenvalues --   -0.15280  -0.13192  -0.11603   0.04615
 Alpha virt. eigenvalues --    0.06725   0.07040   0.07513   0.08534   0.09127
 Alpha virt. eigenvalues --    0.09436   0.09622   0.10663   0.10906   0.11428
 Alpha virt. eigenvalues --    0.11975   0.12633   0.12840   0.13846   0.14813

  Beta  occ. eigenvalues --  -14.21465 -14.19314 -14.18363 -10.10464 -10.09868
  Beta  occ. eigenvalues --  -10.09361 -10.09315 -10.09077 -10.07900 -10.06978
  Beta  occ. eigenvalues --  -10.06487 -10.05890 -10.05776  -0.84236  -0.81783
  Beta  occ. eigenvalues --   -0.78450  -0.71051  -0.69269  -0.63701  -0.60386
  Beta  occ. eigenvalues --   -0.55980  -0.53522  -0.52060  -0.48848  -0.45170
  Beta  occ. eigenvalues --   -0.41501  -0.40533  -0.38834  -0.37827  -0.37080
  Beta  occ. eigenvalues --   -0.34693  -0.32897  -0.32104  -0.30916  -0.29691
  Beta  occ. eigenvalues --   -0.28948  -0.28145  -0.27895  -0.26985  -0.25957
  Beta  occ. eigenvalues --   -0.25440  -0.22846  -0.20535  -0.18214  -0.16183
  Beta  occ. eigenvalues --   -0.15113  -0.13134  -0.11421
  Beta virt. eigenvalues --    0.07072   0.07403   0.07862   0.08226   0.08847
  Beta virt. eigenvalues --    0.09350   0.09717   0.09995   0.11026   0.11141
  Beta virt. eigenvalues --    0.11831   0.12221   0.12934   0.12965   0.14263

 Mulliken charges and spin densities:
               1          2
     1  C    1.475314  -2.093201
     2  C   -0.137836   0.701524
     3  C   -0.849664   0.602364
     4  C   -0.253412  -0.162451
     5  N   -0.092884   0.073409
     6  C   -0.317157  -0.124406
     7  C   -0.078780   0.185105
     8  N    0.171301  -0.012076
     9  C   -1.940021   1.647342
    10  C    1.503509  -1.999719
    11  C   -0.531985   0.644954
    12  C    0.699764  -1.314766
    13  N   -0.141477  -0.184553
    14  H   -0.623531   0.811064
    15  H    0.053492   0.121074
    16  H    0.100856   0.038773
    17  H   -0.015510   0.130424
    18  H    0.113561   0.022551
    19  H   -0.005287   0.146901
    20  H    0.227655  -0.003880
    21  H    0.755673  -0.605912
    22  H   -0.163203   0.248220
    23  H   -0.406193   0.601887
    24  H   -0.348458   0.559011
    25  H    0.063600   0.137314
    26  H    0.105022   0.012478
    27  H   -0.157470   0.385681
    28  H   -0.206879   0.430889
 Sum of Mulliken charges =  -1.00000   1.00000

 Dipole moment (field-independent basis, Debye):
    X=              5.9770    Y=             -1.6803    Z=              1.9824  Tot=              6.5175
 Quadrupole moment (field-independent basis, Debye-Ang):
   XX=           -155.2406   YY=           -116.1721   ZZ=           -108.0774
   XY=             13.6171   XZ=             -3.0855   YZ=              1.6968

 Summary of Natural Population Analysis:

                                       Natural Population
                Natural  -----------------------------------------------
    Atom  No    Charge         Core      Valence    Rydberg      Total
 -----------------------------------------------------------------------
      C    1   -0.30119      0.99964     2.29561    0.00594     3.30119
      C    2    0.01279      0.99948     1.97852    0.00921     2.98721
      C    3    0.06069      0.99942     1.92863    0.01126     2.93931
      C    4    0.01918      0.99954     1.96716    0.01412     2.98082
      N    5   -0.22018      0.99971     2.70786    0.01260     3.72018
      C    6    0.00985      0.99959     1.97601    0.01455     2.99015
      C    7   -0.11804      0.99952     2.10922    0.00930     3.11804
      N    8   -0.32311      0.99969     2.81203    0.01139     3.82311
      C    9   -0.01467      0.99957     2.00156    0.01354     3.01467
      C   10   -0.19654      0.99961     2.18695    0.00997     3.19654
      C   11   -0.01300      0.99963     1.99862    0.01475     3.01300
      C   12   -0.19731      0.99961     2.19040    0.00731     3.19731
      N   13   -0.41933      0.99977     2.90856    0.01101     3.91933
      H   14    0.11256      0.00000     0.38468    0.00276     0.38744
      H   15    0.10977      0.00000     0.38907    0.00116     0.39023
      H   16    0.09969      0.00000     0.39953    0.00078     0.40031
      H   17    0.08351      0.00000     0.41456    0.00192     0.41649
      H   18    0.08479      0.00000     0.41400    0.00120     0.41521
      H   19    0.09825      0.00000     0.40085    0.00091     0.40175
      H   20    0.17476      0.00000     0.32226    0.00298     0.32524
      H   21    0.09900      0.00000     0.39850    0.00250     0.40100
      H   22    0.09561      0.00000     0.40279    0.00160     0.40439
      H   23    0.10189      0.00000     0.39605    0.00207     0.39811
      H   24    0.08871      0.00000     0.41012    0.00117     0.41129
      H   25    0.10280      0.00000     0.39607    0.00112     0.39720
      H   26    0.09895      0.00000     0.39978    0.00127     0.40105
      H   27    0.17650      0.00000     0.32020    0.00330     0.32350
      H   28    0.17405      0.00000     0.32232    0.00363     0.32595
 =======================================================================
   * Total *    0.00000     12.99477    34.83191    0.17331    48.00000

 Normal termination of Gaussian 16 at Wed Dec  9 23:35:38 2020.
