 Gaussian 16, Revision A.03,

 ----------------------------------------------------------------------
 # opt=(cartesian,calcfc) freq B3LYP/6-31G(d) empiricaldispersion=gd3bj
  scf=xqc
 ----------------------------------------------------------------------

 ------------------------------
 CID_63690681_JID_2729_neutraal
 ------------------------------
 Symbolic Z-matrix:
 Charge =  0 Multiplicity = 1

 SCF Done:  E(RB3LYP) =  -560.818084105     A.U. after   13 cycles
 SCF Done:  E(RB3LYP) =  -560.818244303     A.U. after    9 cycles
 SCF Done:  E(RB3LYP) =  -560.818343621     A.U. after   10 cycles
 SCF Done:  E(RB3LYP) =  -560.818402054     A.U. after   10 cycles
 SCF Done:  E(RB3LYP) =  -560.818457964     A.U. after    9 cycles
 SCF Done:  E(RB3LYP) =  -560.818326302     A.U. after   10 cycles
 SCF Done:  E(RB3LYP) =  -560.818447309     A.U. after    9 cycles
 SCF Done:  E(RB3LYP) =  -560.818458080     A.U. after    6 cycles
 SCF Done:  E(RB3LYP) =  -560.818489910     A.U. after   10 cycles
 SCF Done:  E(RB3LYP) =  -560.818408444     A.U. after   10 cycles
 SCF Done:  E(RB3LYP) =  -560.818579146     A.U. after    7 cycles
 SCF Done:  E(RB3LYP) =  -560.818579194     A.U. after    6 cycles
 SCF Done:  E(RB3LYP) =  -560.818579129     A.U. after    7 cycles
 SCF Done:  E(RB3LYP) =  -560.818579204     A.U. after    6 cycles
 SCF Done:  E(RB3LYP) =  -560.818579204     A.U. after    6 cycles
 SCF Done:  E(RB3LYP) =  -560.818579209     A.U. after    6 cycles
 Optimization completed on the basis of negligible forces.
    -- Stationary point found.
 Normal termination of Gaussian 16 at Mon Jan  4 09:25:26 2021.

 --------------------------------------------------------------------
 #N Geom=AllCheck Guess=TCheck SCRF=Check GenChk RB3LYP/6-31G(d) Freq
 --------------------------------------------------------------------

 Structure from the checkpoint file:  "JID_2729.chk"
 ------------------------------
 CID_63690681_JID_2729_neutraal
 ------------------------------
 Charge =  0 Multiplicity = 1

 SCF Done:  E(RB3LYP) =  -560.818579209     A.U. after    1 cycles

  Exact polarizability: 115.867  -1.205 110.316   0.273   3.114 106.775
 Approx polarizability: 147.548  -1.500 151.038   0.420   1.978 147.591

                      1                      2                      3
                      A                      A                      A
 Frequencies --     29.2278                48.5539                65.5366
 Red. masses --      3.8180                 3.2032                 3.1704
 Frc consts  --      0.0019                 0.0044                 0.0080
 IR Inten    --      0.6224                 2.7821                 0.4791

                      4                      5                      6
                      A                      A                      A
 Frequencies --     70.3932                78.0472               100.7547
 Red. masses --      3.2442                 3.2104                 2.4125
 Frc consts  --      0.0095                 0.0115                 0.0144
 IR Inten    --      0.9198                 0.5277                 1.0900

                      7                      8                      9
                      A                      A                      A
 Frequencies --    113.9426               187.5019               204.6750
 Red. masses --      1.9177                 1.7259                 2.2079
 Frc consts  --      0.0147                 0.0357                 0.0545
 IR Inten    --      1.5928                 1.1768                 0.8782

                     10                     11                     12
                      A                      A                      A
 Frequencies --    244.9449               252.9412               262.6120
 Red. masses --      1.1449                 1.1743                 2.3986
 Frc consts  --      0.0405                 0.0443                 0.0975
 IR Inten    --      0.1741                 0.6234                 1.2305

                     13                     14                     15
                      A                      A                      A
 Frequencies --    278.4928               294.7358               317.6831
 Red. masses --      1.6562                 1.1797                 2.3814
 Frc consts  --      0.0757                 0.0604                 0.1416
 IR Inten    --      9.6551               100.2176                 4.8391

                     16                     17                     18
                      A                      A                      A
 Frequencies --    365.7145               400.7960               429.1490
 Red. masses --      2.5610                 2.1929                 2.5960
 Frc consts  --      0.2018                 0.2075                 0.2817
 IR Inten    --      1.1205                 2.3820                 8.3959

                     19                     20                     21
                      A                      A                      A
 Frequencies --    456.7759               468.7356               473.9459
 Red. masses --      2.3578                 2.0765                 2.7427
 Frc consts  --      0.2898                 0.2688                 0.3630
 IR Inten    --      2.2645                 2.2861                 0.9706

                     22                     23                     24
                      A                      A                      A
 Frequencies --    484.9522               569.7251               798.7738
 Red. masses --      2.7572                 2.6306                 2.7112
 Frc consts  --      0.3820                 0.5031                 1.0192
 IR Inten    --     10.0900                14.6168                10.0966

                     25                     26                     27
                      A                      A                      A
 Frequencies --    807.6189               815.3380               834.2425
 Red. masses --      1.2770                 1.1413                 1.9066
 Frc consts  --      0.4907                 0.4470                 0.7818
 IR Inten    --      3.3064                 4.4687                 2.5313

                     28                     29                     30
                      A                      A                      A
 Frequencies --    856.0904               910.9791               928.2187
 Red. masses --      2.4087                 1.8869                 1.7704
 Frc consts  --      1.0401                 0.9226                 0.8987
 IR Inten    --      0.7530                 3.9946                 7.1438

                     31                     32                     33
                      A                      A                      A
 Frequencies --    956.7093               967.9198              1011.9531
 Red. masses --      1.6166                 2.1616                 2.4403
 Frc consts  --      0.8718                 1.1931                 1.4723
 IR Inten    --      4.8846                30.2383                37.6520

                     34                     35                     36
                      A                      A                      A
 Frequencies --   1026.5860              1078.9655              1090.7659
 Red. masses --      2.6501                 2.1627                 2.0279
 Frc consts  --      1.6455                 1.4834                 1.4216
 IR Inten    --      7.6491                32.5338                24.5166

                     37                     38                     39
                      A                      A                      A
 Frequencies --   1103.7584              1107.6541              1117.9139
 Red. masses --      2.0663                 2.1416                 1.9783
 Frc consts  --      1.4832                 1.5481                 1.4566
 IR Inten    --     23.2393                 6.3009                10.4067

                     40                     41                     42
                      A                      A                      A
 Frequencies --   1137.5157              1150.8653              1160.1771
 Red. masses --      2.2891                 2.3750                 2.3070
 Frc consts  --      1.7451                 1.8534                 1.8296
 IR Inten    --    100.0041                59.3683                62.4207

                     43                     44                     45
                      A                      A                      A
 Frequencies --   1206.9633              1221.1145              1240.7975
 Red. masses --      2.0030                 1.7962                 2.1796
 Frc consts  --      1.7191                 1.5781                 1.9771
 IR Inten    --     46.6607                12.1233                17.2571

                     46                     47                     48
                      A                      A                      A
 Frequencies --   1287.4413              1303.6060              1321.8668
 Red. masses --      1.3416                 1.1958                 1.1870
 Frc consts  --      1.3102                 1.1973                 1.2220
 IR Inten    --     14.6580                23.1430                12.9026

                     49                     50                     51
                      A                      A                      A
 Frequencies --   1331.5777              1345.4647              1348.7035
 Red. masses --      1.2520                 1.2453                 1.1711
 Frc consts  --      1.3080                 1.3283                 1.2551
 IR Inten    --      9.6253                13.3675                 5.1412

                     52                     53                     54
                      A                      A                      A
 Frequencies --   1386.6235              1393.5355              1401.6339
 Red. masses --      1.2986                 1.2306                 1.3108
 Frc consts  --      1.4711                 1.4080                 1.5173
 IR Inten    --      6.1267                11.7232                16.4287

                     55                     56                     57
                      A                      A                      A
 Frequencies --   1420.5459              1425.9147              1433.3130
 Red. masses --      1.2936                 1.3127                 1.3093
 Frc consts  --      1.5380                 1.5725                 1.5848
 IR Inten    --      4.9834                13.5789                30.3179

                     58                     59                     60
                      A                      A                      A
 Frequencies --   1439.2670              1442.1868              1448.6788
 Red. masses --      1.3109                 1.3574                 1.3374
 Frc consts  --      1.6000                 1.6634                 1.6537
 IR Inten    --      3.5587                 6.6743                19.0730

                     61                     62                     63
                      A                      A                      A
 Frequencies --   1459.9803              1513.7340              1515.6480
 Red. masses --      1.5133                 1.0692                 1.0725
 Frc consts  --      1.9005                 1.4435                 1.4516
 IR Inten    --      6.1301                 6.1382                 0.9970

                     64                     65                     66
                      A                      A                      A
 Frequencies --   1517.2259              1519.6777              1520.2215
 Red. masses --      1.0685                 1.0653                 1.0535
 Frc consts  --      1.4492                 1.4495                 1.4345
 IR Inten    --      4.2708                 2.1919                 0.9364

                     67                     68                     69
                      A                      A                      A
 Frequencies --   1522.7319              1529.7535              1532.0875
 Red. masses --      1.0563                 1.0526                 1.0873
 Frc consts  --      1.4430                 1.4513                 1.5037
 IR Inten    --      0.1131                 0.8857                 3.1014

                     70                     71                     72
                      A                      A                      A
 Frequencies --   1539.1050              1543.2937              1549.0114
 Red. masses --      1.0750                 1.0826                 1.0874
 Frc consts  --      1.5003                 1.5192                 1.5373
 IR Inten    --      5.5468                 3.2363                 1.1495

                     73                     74                     75
                      A                      A                      A
 Frequencies --   2934.3271              2940.3788              2984.6214
 Red. masses --      1.0736                 1.0736                 1.0723
 Frc consts  --      5.4463                 5.4687                 5.6280
 IR Inten    --     16.1718               135.1150                75.5076

                     76                     77                     78
                      A                      A                      A
 Frequencies --   2999.6178              3021.2915              3042.9728
 Red. masses --      1.0830                 1.0608                 1.0396
 Frc consts  --      5.7414                 5.7051                 5.6716
 IR Inten    --     39.3636                44.0951                22.8590

                     79                     80                     81
                      A                      A                      A
 Frequencies --   3048.2340              3053.0566              3054.4562
 Red. masses --      1.0367                 1.0573                 1.0363
 Frc consts  --      5.6754                 5.8063                 5.6962
 IR Inten    --     28.4453                14.9142                23.8453

                     82                     83                     84
                      A                      A                      A
 Frequencies --   3069.4735              3076.9368              3092.0272
 Red. masses --      1.1013                 1.0878                 1.1060
 Frc consts  --      6.1137                 6.0677                 6.2300
 IR Inten    --     57.9699                17.3536                 8.5534

                     85                     86                     87
                      A                      A                      A
 Frequencies --   3100.7142              3105.9223              3110.0296
 Red. masses --      1.0936                 1.0965                 1.0904
 Frc consts  --      6.1950                 6.2321                 6.2138
 IR Inten    --      6.0287                30.6631                53.5320

                     88                     89                     90
                      A                      A                      A
 Frequencies --   3114.3913              3122.3964              3128.4591
 Red. masses --      1.1015                 1.1015                 1.1019
 Frc consts  --      6.2948                 6.3270                 6.3539
 IR Inten    --     46.1413                38.1895                52.7328

                     91                     92                     93
                      A                      A                      A
 Frequencies --   3130.6208              3149.4161              3748.5719
 Red. masses --      1.1037                 1.0981                 1.0662
 Frc consts  --      6.3734                 6.4170                 8.8271
 IR Inten    --     37.4531                18.7512                 9.4746

 - Thermochemistry -
 -------------------
 Temperature   298.150 Kelvin.  Pressure   1.00000 Atm.
 Atom     1 has atomic number  6 and mass  12.00000

 Molecular mass:   175.15723 amu.
 Principal axes and moments of inertia in atomic units:
                           1         2         3
     Eigenvalues --  1799.476793179.187753641.80402
           X            0.99999   0.00416   0.00173
           Y           -0.00419   0.99974   0.02249
           Z           -0.00164  -0.02250   0.99975
 This molecule is an asymmetric top.
 Rotational symmetry number  1.
 Warning -- assumption of classical behavior for rotation
           may cause significant error
 Rotational temperatures (Kelvin)      0.04813     0.02724     0.02378
 Rotational constants (GHZ):           1.00293     0.56767     0.49556
 Zero-point vibrational energy     794030.3 (Joules/Mol)
                                  189.77780 (Kcal/Mol)
 Warning -- explicit consideration of  23 degrees of freedom as
           vibrations may cause significant error
 Vibrational temperatures:     42.05    69.86    94.29   101.28   112.29
          (Kelvin)            144.96   163.94   269.77   294.48   352.42
                              363.93   377.84   400.69   424.06   457.08
                              526.18   576.66   617.45   657.20   674.41
                              681.90   697.74   819.71  1149.26  1161.98
                             1173.09  1200.29  1231.72  1310.70  1335.50
                             1376.49  1392.62  1455.97  1477.03  1552.39
                             1569.37  1588.06  1593.67  1608.43  1636.63
                             1655.84  1669.24  1736.55  1756.91  1785.23
                             1852.34  1875.60  1901.87  1915.84  1935.82
                             1940.48  1995.04  2004.99  2016.64  2043.85
                             2051.57  2062.22  2070.78  2074.99  2084.33
                             2100.59  2177.93  2180.68  2182.95  2186.48
                             2187.26  2190.87  2200.97  2204.33  2214.43
                             2220.46  2228.68  4221.84  4230.55  4294.20
                             4315.78  4346.96  4378.16  4385.73  4392.67
                             4394.68  4416.29  4427.03  4448.74  4461.24
                             4468.73  4474.64  4480.91  4492.43  4501.15
                             4504.27  4531.31  5393.36

 Zero-point correction=                           0.302430 (Hartree/Particle)
 Thermal correction to Energy=                    0.317770
 Thermal correction to Enthalpy=                  0.318714
 Thermal correction to Gibbs Free Energy=         0.259176
 Sum of electronic and zero-point Energies=           -560.516149
 Sum of electronic and thermal Energies=              -560.500809
 Sum of electronic and thermal Enthalpies=            -560.499865
 Sum of electronic and thermal Free Energies=         -560.559403

                     E (Thermal)             CV                S
                      KCal/Mol        Cal/Mol-Kelvin    Cal/Mol-Kelvin
 Total                  199.404             55.304            125.307
 Electronic               0.000              0.000              0.000
 Translational            0.889              2.981             41.389
 Rotational               0.889              2.981             31.411
 Vibrational            197.626             49.342             52.508
 Vibration     1          0.593              1.984              5.881
 Vibration     2          0.595              1.978              4.875
 Vibration     3          0.597              1.971              4.283
 Vibration     4          0.598              1.968              4.142
 Vibration     5          0.599              1.964              3.939
 Vibration     6          0.604              1.949              3.440
 Vibration     7          0.607              1.938              3.201
 Vibration     8          0.632              1.857              2.252
 Vibration     9          0.640              1.833              2.091
 Vibration    10          0.660              1.771              1.767
 Vibration    11          0.664              1.758              1.710
 Vibration    12          0.670              1.741              1.644
 Vibration    13          0.679              1.713              1.543
 Vibration    14          0.689              1.684              1.447
 Vibration    15          0.704              1.640              1.322
 Vibration    16          0.739              1.543              1.098
 Vibration    17          0.767              1.468              0.960
 Vibration    18          0.790              1.407              0.861
 Vibration    19          0.815              1.346              0.776
 Vibration    20          0.826              1.319              0.741
 Vibration    21          0.831              1.308              0.727
 Vibration    22          0.841              1.283              0.697
 Vibration    23          0.926              1.097              0.505

 Optimization completed on the basis of negligible forces.
    -- Stationary point found.
 Normal termination of Gaussian 16 at Mon Jan  4 09:33:39 2021.

 ----------------------------------------------------------------------
 # B3LYP/6-311++G(d,p) empiricaldispersion=gd3bj scf=xqc pop=npa geom=c
 heck
 ----------------------------------------------------------------------

 --------------------------------------
 CID_63690681_JID_2729_Energie_neutraal
 --------------------------------------
 Structure from the checkpoint file:  "JID_2729.chk"
 Charge =  0 Multiplicity = 1

 SCF Done:  E(RB3LYP) =  -560.993714966     A.U. after   13 cycles
 Normal termination of Gaussian 16 at Mon Jan  4 09:36:46 2021.

 ----------------------------------------------------------------------
 # B3LYP/6-311++G(d,p) empiricaldispersion=gd3bj scf=xqc pop=npa geom=c
 heck
 ----------------------------------------------------------------------

 ------------------------------------
 CID_63690681_JID_2729_Energie_kation
 ------------------------------------
 Structure from the checkpoint file:  "JID_2729.chk"
 Charge =  1 Multiplicity = 2

 SCF Done:  E(UB3LYP) =  -560.704465946     A.U. after   19 cycles
 Normal termination of Gaussian 16 at Mon Jan  4 09:42:39 2021.
 Gaussian 16:  ES64L-G16RevA.03 25-Dec-2016

 ----------------------------------------------------------------------
 # B3LYP/6-311++G(d,p) empiricaldispersion=gd3bj scf=xqc pop=npa geom=c
 heck
 ----------------------------------------------------------------------

 -----------------------------------
 CID_63690681_JID_2729_Energie_anion
 -----------------------------------
 Structure from the checkpoint file:  "JID_2729.chk"
 Charge = -1 Multiplicity = 2

                         Standard orientation:
 ---------------------------------------------------------------------
 Center     Atomic      Atomic             Coordinates (Angstroms)
 Number     Number       Type             X           Y           Z
 ---------------------------------------------------------------------
      1          6           0        0.433732    2.497290   -1.454823
      2          6           0        0.225285    2.244263    0.036753
      3          7           0        0.402101    0.839088    0.405811
      4          6           0       -0.302247    0.502643    1.645316
      5          6           0       -1.763399    0.126252    1.416107
      6          8           0       -1.873845   -1.107346    0.723685
      7          6           0       -2.119505   -0.992318   -0.674807
      8          6           0       -3.601379   -0.802133   -0.985008
      9          6           0        1.801889    0.415847    0.437844
     10          6           0        1.953851   -1.053013    0.035824
     11          6           0        1.695036   -1.270352   -1.451665
     12          8           0        3.290260   -1.412550    0.395999
     13          1           0        1.446154    2.234320   -1.778135
     14          1           0        0.275547    3.556134   -1.688646
     15          1           0       -0.270742    1.900592   -2.043863
     16          1           0        0.885405    2.903931    0.632784
     17          1           0       -0.801353    2.526628    0.295446
     18          1           0        0.183816   -0.365506    2.099455
     19          1           0       -0.240512    1.324499    2.385216
     20          1           0       -2.256290    0.000366    2.388693
     21          1           0       -2.295830    0.927759    0.884132
     22          1           0       -1.517063   -0.178536   -1.095917
     23          1           0       -1.759782   -1.929352   -1.114309
     24          1           0       -4.187103   -1.627701   -0.567833
     25          1           0       -3.981355    0.133195   -0.558049
     26          1           0       -3.767531   -0.768212   -2.068501
     27          1           0        2.384386    1.023453   -0.261373
     28          1           0        2.255337    0.558648    1.433424
     29          1           0        1.229609   -1.650545    0.612100
     30          1           0        2.437938   -0.725709   -2.046155
     31          1           0        1.758540   -2.334525   -1.713099
     32          1           0        0.697139   -0.913630   -1.719412
     33          1           0        3.438072   -2.321141    0.092632
 ---------------------------------------------------------------------

 SCF Done:  E(UB3LYP) =  -560.978338127     A.U. after   27 cycles

 The electronic state is 2-A.
 Alpha  occ. eigenvalues --  -19.02135 -19.01984 -14.20776 -10.11829 -10.11737
 Alpha  occ. eigenvalues --  -10.10953 -10.09757 -10.09741 -10.09185 -10.06124
 Alpha  occ. eigenvalues --  -10.05808 -10.05556  -0.93211  -0.92321  -0.82910
 Alpha  occ. eigenvalues --   -0.67694  -0.67156  -0.64567  -0.61845  -0.57854
 Alpha  occ. eigenvalues --   -0.54003  -0.51059  -0.49230  -0.46686  -0.41768
 Alpha  occ. eigenvalues --   -0.39764  -0.39582  -0.37735  -0.36690  -0.35203
 Alpha  occ. eigenvalues --   -0.34492  -0.34253  -0.32801  -0.31422  -0.29618
 Alpha  occ. eigenvalues --   -0.29331  -0.28293  -0.27843  -0.26831  -0.26654
 Alpha  occ. eigenvalues --   -0.26322  -0.25984  -0.25220  -0.24244  -0.22702
 Alpha  occ. eigenvalues --   -0.21075  -0.17693  -0.16043  -0.12163   0.04473
 Alpha virt. eigenvalues --    0.06130   0.07159   0.07368   0.08793   0.09325
 Alpha virt. eigenvalues --    0.09502   0.09820   0.09990   0.11449   0.11830
 Alpha virt. eigenvalues --    0.11958   0.12507   0.12737   0.12932   0.13780

  Beta  occ. eigenvalues --  -19.02104 -19.01980 -14.20765 -10.11822 -10.11720
  Beta  occ. eigenvalues --  -10.10939 -10.09753 -10.09724 -10.09178 -10.06094
  Beta  occ. eigenvalues --  -10.05774 -10.05527  -0.93199  -0.92255  -0.82886
  Beta  occ. eigenvalues --   -0.67667  -0.67122  -0.64529  -0.61806  -0.57807
  Beta  occ. eigenvalues --   -0.53951  -0.50992  -0.49175  -0.46645  -0.41725
  Beta  occ. eigenvalues --   -0.39739  -0.39547  -0.37694  -0.36667  -0.35175
  Beta  occ. eigenvalues --   -0.34462  -0.34219  -0.32776  -0.31377  -0.29587
  Beta  occ. eigenvalues --   -0.29297  -0.28250  -0.27810  -0.26787  -0.26617
  Beta  occ. eigenvalues --   -0.26287  -0.25953  -0.25192  -0.24217  -0.22669
  Beta  occ. eigenvalues --   -0.21051  -0.17658  -0.16025  -0.12107
  Beta virt. eigenvalues --    0.06716   0.07362   0.07673   0.07788   0.09451
  Beta virt. eigenvalues --    0.09506   0.09912   0.10118   0.10317   0.11905
  Beta virt. eigenvalues --    0.12082   0.12388   0.12627   0.12951   0.13242

 Mulliken charges and spin densities:
               1          2
     1  C    0.848534  -1.295324
     2  C   -0.353530   0.042929
     3  N    0.159716   0.095186
     4  C   -0.217329  -0.054677
     5  C    0.021014  -0.269440
     6  O   -0.092850   0.023416
     7  C   -1.197802   1.047453
     8  C    1.185271  -1.725626
     9  C    0.436533  -0.892078
    10  C   -0.685532   0.547627
    11  C    0.595019  -1.039366
    12  O   -0.222391   0.012747
    13  H   -0.050702   0.178733
    14  H   -0.355766   0.495597
    15  H   -0.356136   0.507262
    16  H    0.021739   0.103716
    17  H   -0.534595   0.667549
    18  H    0.127031   0.064074
    19  H   -0.032989   0.131023
    20  H    0.039006   0.114322
    21  H    0.175680  -0.071035
    22  H    0.882219  -0.765912
    23  H   -0.145638   0.297759
    24  H   -0.035053   0.183476
    25  H   -0.382205   0.519472
    26  H   -0.474829   0.610719
    27  H    0.075111   0.042667
    28  H    0.149660   0.014886
    29  H    0.065024   0.061161
    30  H    0.082196   0.076287
    31  H   -0.474453   0.624384
    32  H   -0.068151   0.212506
    33  H   -0.183800   0.438508
 Sum of Mulliken charges =  -1.00000   1.00000

 Dipole moment (field-independent basis, Debye):
    X=              1.1775    Y=              0.6133    Z=              3.7847  Tot=              4.0108
 Quadrupole moment (field-independent basis, Debye-Ang):
   XX=           -146.6183   YY=           -131.6848   ZZ=           -114.2129
   XY=             10.9801   XZ=             -6.7120   YZ=              0.8292

 Summary of Natural Population Analysis:

                                       Natural Population
                Natural  -----------------------------------------------
    Atom  No    Charge         Core      Valence    Rydberg      Total
 -----------------------------------------------------------------------
      C    1   -0.28805      0.99966     2.28267    0.00572     3.28805
      C    2   -0.07998      0.99962     2.06971    0.01065     3.07998
      N    3   -0.29478      0.99970     2.78098    0.01410     3.79478
      C    4   -0.09232      0.99960     2.08233    0.01039     3.09232
      C    5   -0.01311      0.99956     2.00055    0.01300     3.01311
      O    6   -0.30497      0.99989     3.29544    0.00964     4.30497
      C    7   -0.01318      0.99958     2.00051    0.01308     3.01318
      C    8   -0.29908      0.99967     2.29430    0.00512     3.29908
      C    9   -0.08456      0.99958     2.07464    0.01034     3.08456
      C   10    0.05490      0.99957     1.93226    0.01327     2.94510
      C   11   -0.29728      0.99964     2.29137    0.00627     3.29728
      O   12   -0.37582      0.99989     3.36961    0.00631     4.37582
      H   13    0.09545      0.00000     0.40348    0.00107     0.40455
      H   14    0.09978      0.00000     0.39906    0.00115     0.40022
      H   15    0.10109      0.00000     0.39706    0.00185     0.39891
      H   16    0.07848      0.00000     0.42027    0.00125     0.42152
      H   17    0.09556      0.00000     0.40242    0.00202     0.40444
      H   18    0.09875      0.00000     0.39974    0.00151     0.40125
      H   19    0.08315      0.00000     0.41551    0.00134     0.41685
      H   20    0.08548      0.00000     0.41350    0.00101     0.41452
      H   21    0.08351      0.00000     0.41469    0.00180     0.41649
      H   22    0.08639      0.00000     0.41102    0.00259     0.41361
      H   23    0.08668      0.00000     0.41181    0.00151     0.41332
      H   24    0.09719      0.00000     0.40173    0.00108     0.40281
      H   25    0.09730      0.00000     0.40134    0.00136     0.40270
      H   26    0.10124      0.00000     0.39737    0.00139     0.39876
      H   27    0.09696      0.00000     0.40160    0.00144     0.40304
      H   28    0.08879      0.00000     0.40992    0.00129     0.41121
      H   29    0.07791      0.00000     0.41962    0.00247     0.42209
      H   30    0.09694      0.00000     0.40188    0.00118     0.40306
      H   31    0.09850      0.00000     0.39986    0.00163     0.40150
      H   32    0.10787      0.00000     0.39023    0.00190     0.39213
      H   33    0.23121      0.00000     0.26407    0.00473     0.26879
 =======================================================================
   * Total *    0.00000     11.99596    36.85055    0.15349    49.00000

 Normal termination of Gaussian 16 at Mon Jan  4 09:51:05 2021.
