 Gaussian 16, Revision A.03,

 -----------------------------------------------------------
 # opt freq B3LYP/6-31G(d) empiricaldispersion=gd3bj scf=xqc
 -----------------------------------------------------------

 -------------------------------
 CID_114094590_JID_8385_neutraal
 -------------------------------
 Symbolic Z-matrix:
 Charge =  0 Multiplicity = 1

 SCF Done:  E(RB3LYP) =  -784.440859202     A.U. after   14 cycles
 SCF Done:  E(RB3LYP) =  -784.447552139     A.U. after   12 cycles
 SCF Done:  E(RB3LYP) =  -784.449044171     A.U. after   12 cycles
 SCF Done:  E(RB3LYP) =  -784.449742669     A.U. after   12 cycles
 SCF Done:  E(RB3LYP) =  -784.450141345     A.U. after   12 cycles
 SCF Done:  E(RB3LYP) =  -784.450363136     A.U. after   11 cycles
 SCF Done:  E(RB3LYP) =  -784.450571835     A.U. after   11 cycles
 SCF Done:  E(RB3LYP) =  -784.450685672     A.U. after   11 cycles
 SCF Done:  E(RB3LYP) =  -784.450708926     A.U. after   10 cycles
 SCF Done:  E(RB3LYP) =  -784.450728988     A.U. after   10 cycles
 SCF Done:  E(RB3LYP) =  -784.450851899     A.U. after   11 cycles
 SCF Done:  E(RB3LYP) =  -784.450870813     A.U. after   10 cycles
 SCF Done:  E(RB3LYP) =  -784.450871849     A.U. after    8 cycles
 SCF Done:  E(RB3LYP) =  -784.450871934     A.U. after    7 cycles
 SCF Done:  E(RB3LYP) =  -784.450871956     A.U. after    6 cycles
 Optimization completed.
    -- Stationary point found.
 Normal termination of Gaussian 16 at Fri Dec 11 20:44:10 2020.

 --------------------------------------------------------------------
 #N Geom=AllCheck Guess=TCheck SCRF=Check GenChk RB3LYP/6-31G(d) Freq
 --------------------------------------------------------------------

 Structure from the checkpoint file:  "JID_8385.chk"
 -------------------------------
 CID_114094590_JID_8385_neutraal
 -------------------------------
 Charge =  0 Multiplicity = 1

 SCF Done:  E(RB3LYP) =  -784.450871956     A.U. after    1 cycles

  Exact polarizability: 219.424 -14.502 143.649   1.880 -10.879 137.712
 Approx polarizability: 296.127 -18.559 214.202   9.207 -25.404 225.047

                      1                      2                      3
                      A                      A                      A
 Frequencies --     19.4816                20.6811                44.7652
 Red. masses --      4.5537                 4.2699                 3.4745
 Frc consts  --      0.0010                 0.0011                 0.0041
 IR Inten    --      0.2211                 0.3603                 0.4099

                      4                      5                      6
                      A                      A                      A
 Frequencies --     56.0305                83.9245                94.4770
 Red. masses --      2.8692                 1.0493                 3.4707
 Frc consts  --      0.0053                 0.0044                 0.0183
 IR Inten    --      0.0722                 0.2149                 0.9245

                      7                      8                      9
                      A                      A                      A
 Frequencies --    119.1772               144.3897               162.3133
 Red. masses --      3.3537                 3.2008                 3.3169
 Frc consts  --      0.0281                 0.0393                 0.0515
 IR Inten    --      3.4615                 1.9365                 1.3033

                     10                     11                     12
                      A                      A                      A
 Frequencies --    179.7718               193.7556               232.3488
 Red. masses --      3.1410                 4.0077                 1.0511
 Frc consts  --      0.0598                 0.0886                 0.0334
 IR Inten    --      1.7222                 0.7276                 0.1200

                     13                     14                     15
                      A                      A                      A
 Frequencies --    239.1670               257.0220               267.9105
 Red. masses --      4.2622                 2.3532                 1.3960
 Frc consts  --      0.1436                 0.0916                 0.0590
 IR Inten    --      4.7003                 4.9879                 1.0185

                     16                     17                     18
                      A                      A                      A
 Frequencies --    283.0660               336.6660               351.6580
 Red. masses --      2.8467                 2.6853                 4.3393
 Frc consts  --      0.1344                 0.1793                 0.3162
 IR Inten    --      4.9189                 5.1280                 0.8526

                     19                     20                     21
                      A                      A                      A
 Frequencies --    365.1521               416.4335               451.3859
 Red. masses --      1.1662                 2.5582                 3.1974
 Frc consts  --      0.0916                 0.2614                 0.3838
 IR Inten    --     99.0957                 3.1634                 0.1181

                     22                     23                     24
                      A                      A                      A
 Frequencies --    464.3932               487.7586               541.3588
 Red. masses --      5.0681                 4.3019                 6.6923
 Frc consts  --      0.6440                 0.6030                 1.1556
 IR Inten    --      7.9055                 6.6266                 7.8241

                     25                     26                     27
                      A                      A                      A
 Frequencies --    550.4178               562.0871               599.8959
 Red. masses --      3.4056                 3.3617                 6.3843
 Frc consts  --      0.6079                 0.6258                 1.3537
 IR Inten    --      0.9571                 1.9717                 1.0327

                     28                     29                     30
                      A                      A                      A
 Frequencies --    623.0364               630.6995               683.8468
 Red. masses --      3.4090                 3.7738                 4.7899
 Frc consts  --      0.7797                 0.8845                 1.3198
 IR Inten    --      4.0866                 1.2030                10.8009

                     31                     32                     33
                      A                      A                      A
 Frequencies --    717.2493               735.6306               763.1338
 Red. masses --      2.8117                 1.5852                 1.3702
 Frc consts  --      0.8522                 0.5054                 0.4702
 IR Inten    --      4.4706                14.6908                50.5332

                     34                     35                     36
                      A                      A                      A
 Frequencies --    772.5397               779.9083               804.2637
 Red. masses --      4.0340                 1.6331                 3.5520
 Frc consts  --      1.4185                 0.5853                 1.3537
 IR Inten    --      4.0686                42.3967                10.7881

                     37                     38                     39
                      A                      A                      A
 Frequencies --    848.3603               851.3530               861.9277
 Red. masses --      1.4989                 3.4262                 3.7562
 Frc consts  --      0.6356                 1.4631                 1.6441
 IR Inten    --      2.4670                11.2278                 3.4602

                     40                     41                     42
                      A                      A                      A
 Frequencies --    908.1929               938.0560               947.0291
 Red. masses --      2.5449                 1.3002                 1.1706
 Frc consts  --      1.2368                 0.6741                 0.6186
 IR Inten    --      0.0741                 1.6271                 1.1919

                     43                     44                     45
                      A                      A                      A
 Frequencies --    975.9246               978.4066              1015.2015
 Red. masses --      1.5297                 1.2703                 2.1424
 Frc consts  --      0.8584                 0.7164                 1.3009
 IR Inten    --      0.1384                 2.0939                18.7114

                     46                     47                     48
                      A                      A                      A
 Frequencies --   1031.9427              1074.7675              1077.5037
 Red. masses --      4.7592                 2.0647                 1.5100
 Frc consts  --      2.9860                 1.4052                 1.0329
 IR Inten    --     17.0455                 6.1373                 1.2778

                     49                     50                     51
                      A                      A                      A
 Frequencies --   1096.8788              1125.0736              1128.3495
 Red. masses --      3.0329                 1.9749                 1.7869
 Frc consts  --      2.1500                 1.4728                 1.3404
 IR Inten    --     49.8048                39.8340                11.6773

                     52                     53                     54
                      A                      A                      A
 Frequencies --   1138.0852              1155.4060              1164.9585
 Red. masses --      2.3155                 1.3810                 1.9152
 Frc consts  --      1.7671                 1.0862                 1.5314
 IR Inten    --      3.9796                25.0725                21.9836

                     55                     56                     57
                      A                      A                      A
 Frequencies --   1191.3469              1200.3532              1203.8432
 Red. masses --      1.0950                 1.3441                 1.7673
 Frc consts  --      0.9157                 1.1410                 1.5090
 IR Inten    --      4.3494                32.6980                 5.6868

                     58                     59                     60
                      A                      A                      A
 Frequencies --   1232.6841              1236.0835              1260.6833
 Red. masses --      2.1890                 2.2953                 1.2176
 Frc consts  --      1.9597                 2.0663                 1.1401
 IR Inten    --     51.5712                26.6711                 9.3922

                     61                     62                     63
                      A                      A                      A
 Frequencies --   1299.5281              1328.6669              1344.5606
 Red. masses --      2.8936                 2.0493                 2.5748
 Frc consts  --      2.8791                 2.1315                 2.7426
 IR Inten    --     34.9803                75.3206                 8.5763

                     64                     65                     66
                      A                      A                      A
 Frequencies --   1364.2138              1371.7414              1380.2541
 Red. masses --      2.7576                 1.4042                 2.2718
 Frc consts  --      3.0237                 1.5567                 2.5500
 IR Inten    --     55.4969                 7.5642                39.4222

                     67                     68                     69
                      A                      A                      A
 Frequencies --   1403.6836              1422.6654              1430.7145
 Red. masses --      1.7690                 1.2398                 1.9201
 Frc consts  --      2.0537                 1.4784                 2.3157
 IR Inten    --     34.9835                 5.2060                 3.0340

                     70                     71                     72
                      A                      A                      A
 Frequencies --   1441.5468              1454.5240              1481.6658
 Red. masses --      1.2610                 2.0756                 1.3949
 Frc consts  --      1.5439                 2.5873                 1.8042
 IR Inten    --      8.3864                19.0417                 7.9500

                     73                     74                     75
                      A                      A                      A
 Frequencies --   1499.4261              1505.3380              1512.3849
 Red. masses --      2.7547                 2.4566                 1.0723
 Frc consts  --      3.6490                 3.2799                 1.4451
 IR Inten    --     97.0737                53.9913                 6.2772

                     76                     77                     78
                      A                      A                      A
 Frequencies --   1515.7850              1521.3679              1527.6627
 Red. masses --      1.0438                 1.0570                 1.2104
 Frc consts  --      1.4131                 1.4415                 1.6643
 IR Inten    --      0.8815                 1.0464                 3.5635

                     79                     80                     81
                      A                      A                      A
 Frequencies --   1530.1091              1534.1927              1544.1915
 Red. masses --      1.0516                 1.1991                 1.1740
 Frc consts  --      1.4506                 1.6629                 1.6494
 IR Inten    --      2.1865                 8.3513                20.1537

                     82                     83                     84
                      A                      A                      A
 Frequencies --   1554.3417              1555.3435              1618.5303
 Red. masses --      1.7941                 2.4894                 5.9180
 Frc consts  --      2.5539                 3.5481                 9.1341
 IR Inten    --      5.5415                24.2305                21.5218

                     85                     86                     87
                      A                      A                      A
 Frequencies --   1656.3742              1671.8520              3003.3648
 Red. masses --      6.0643                 6.1838                 1.0722
 Frc consts  --      9.8028                10.1836                 5.6985
 IR Inten    --     19.3683                12.8487                33.1687

                     88                     89                     90
                      A                      A                      A
 Frequencies --   3043.8270              3047.5315              3050.5384
 Red. masses --      1.0346                 1.0818                 1.0374
 Frc consts  --      5.6477                 5.9195                 5.6881
 IR Inten    --     30.4364                15.1735                35.7812

                     91                     92                     93
                      A                      A                      A
 Frequencies --   3053.9083              3075.5613              3110.4909
 Red. masses --      1.0407                 1.0885                 1.1024
 Frc consts  --      5.7185                 6.0662                 6.2844
 IR Inten    --     72.8720                16.4805                31.8841

                     94                     95                     96
                      A                      A                      A
 Frequencies --   3116.3936              3120.8873              3126.7055
 Red. masses --      1.1020                 1.1027                 1.0964
 Frc consts  --      6.3059                 6.3282                 6.3152
 IR Inten    --     43.8810                27.9883                19.7687

                     97                     98                     99
                      A                      A                      A
 Frequencies --   3131.0414              3162.8737              3168.3107
 Red. masses --      1.1021                 1.0885                 1.1042
 Frc consts  --      6.3655                 6.4157                 6.5305
 IR Inten    --     33.9133                19.2256                 7.4295

                    100                    101                    102
                      A                      A                      A
 Frequencies --   3191.0563              3206.4479              3220.2447
 Red. masses --      1.0877                 1.0934                 1.0937
 Frc consts  --      6.5255                 6.6236                 6.6822
 IR Inten    --      9.2231                25.9818                 9.3439

                    103                    104                    105
                      A                      A                      A
 Frequencies --   3264.7303              3512.5057              3753.3680
 Red. masses --      1.0973                 1.0741                 1.0659
 Frc consts  --      6.8911                 7.8077                 8.8473
 IR Inten    --      2.5458                 0.5415                39.0178

 - Thermochemistry -
 -------------------
 Temperature   298.150 Kelvin.  Pressure   1.00000 Atm.
 Atom     1 has atomic number  6 and mass  12.00000

 Molecular mass:   245.15281 amu.
 Principal axes and moments of inertia in atomic units:
                           1         2         3
     Eigenvalues --  2377.375649114.697249839.65368
           X            1.00000   0.00105   0.00186
           Y           -0.00108   0.99987   0.01600
           Z           -0.00184  -0.01600   0.99987
 This molecule is an asymmetric top.
 Rotational symmetry number  1.
 Warning -- assumption of classical behavior for rotation
           may cause significant error
 Rotational temperatures (Kelvin)      0.03643     0.00950     0.00880
 Rotational constants (GHZ):           0.75913     0.19800     0.18342
 Zero-point vibrational energy     828465.8 (Joules/Mol)
                                  198.00807 (Kcal/Mol)
 Warning -- explicit consideration of  27 degrees of freedom as
           vibrations may cause significant error
 Vibrational temperatures:     28.03    29.76    64.41    80.62   120.75
          (Kelvin)            135.93   171.47   207.74   233.53   258.65
                              278.77   334.30   344.11   369.80   385.46
                              407.27   484.39   505.96   525.37   599.15
                              649.44   668.16   701.78   778.89   791.93
                              808.72   863.12   896.41   907.44   983.90
                             1031.96  1058.41  1097.98  1111.51  1122.11
                             1157.16  1220.60  1224.91  1240.12  1306.69
                             1349.65  1362.56  1404.14  1407.71  1460.65
                             1484.74  1546.35  1550.29  1578.16  1618.73
                             1623.44  1637.45  1662.37  1676.12  1714.08
                             1727.04  1732.06  1773.56  1778.45  1813.84
                             1869.73  1911.66  1934.52  1962.80  1973.63
                             1985.88  2019.59  2046.90  2058.48  2074.06
                             2092.74  2131.79  2157.34  2165.85  2175.98
                             2180.88  2188.91  2197.97  2201.49  2207.36
                             2221.75  2236.35  2237.79  2328.70  2383.15
                             2405.42  4321.17  4379.39  4384.72  4389.04
                             4393.89  4425.05  4475.30  4483.80  4490.26
                             4498.63  4504.87  4550.67  4558.49  4591.22
                             4613.36  4633.21  4697.22  5053.71  5400.26

 Zero-point correction=                           0.315546 (Hartree/Particle)
 Thermal correction to Energy=                    0.333604
 Thermal correction to Enthalpy=                  0.334548
 Thermal correction to Gibbs Free Energy=         0.267398
 Sum of electronic and zero-point Energies=           -784.135326
 Sum of electronic and thermal Energies=              -784.117268
 Sum of electronic and thermal Enthalpies=            -784.116324
 Sum of electronic and thermal Free Energies=         -784.183474

                     E (Thermal)             CV                S
                      KCal/Mol        Cal/Mol-Kelvin    Cal/Mol-Kelvin
 Total                  209.339             67.731            141.329
 Electronic               0.000              0.000              0.000
 Translational            0.889              2.981             42.391
 Rotational               0.889              2.981             33.722
 Vibrational            207.562             61.770             65.216
 Vibration     1          0.593              1.986              6.686
 Vibration     2          0.593              1.986              6.568
 Vibration     3          0.595              1.979              5.036
 Vibration     4          0.596              1.975              4.592
 Vibration     5          0.601              1.960              3.797
 Vibration     6          0.603              1.953              3.565
 Vibration     7          0.609              1.933              3.114
 Vibration     8          0.616              1.909              2.745
 Vibration     9          0.622              1.889              2.523
 Vibration    10          0.629              1.867              2.331
 Vibration    11          0.635              1.849              2.192
 Vibration    12          0.653              1.791              1.861
 Vibration    13          0.657              1.781              1.809
 Vibration    14          0.667              1.751              1.682
 Vibration    15          0.673              1.732              1.610
 Vibration    16          0.682              1.705              1.515
 Vibration    17          0.717              1.602              1.228
 Vibration    18          0.728              1.572              1.159
 Vibration    19          0.738              1.544              1.100
 Vibration    20          0.780              1.435              0.904
 Vibration    21          0.810              1.358              0.792
 Vibration    22          0.822              1.329              0.753
 Vibration    23          0.844              1.277              0.689
 Vibration    24          0.896              1.159              0.562
 Vibration    25          0.906              1.139              0.543
 Vibration    26          0.918              1.113              0.520
 Vibration    27          0.958              1.032              0.450

 Optimization completed.
    -- Stationary point found.
 Normal termination of Gaussian 16 at Fri Dec 11 21:01:22 2020.

 ----------------------------------------------------------------------
 # B3LYP/6-311++G(d,p) empiricaldispersion=gd3bj scf=xqc pop=npa geom=c
 heck
 ----------------------------------------------------------------------

 ---------------------------------------
 CID_114094590_JID_8385_Energie_neutraal
 ---------------------------------------
 Structure from the checkpoint file:  "JID_8385.chk"
 Charge =  0 Multiplicity = 1

 SCF Done:  E(RB3LYP) =  -784.671246401     A.U. after   16 cycles
 Normal termination of Gaussian 16 at Fri Dec 11 21:09:43 2020.

 ----------------------------------------------------------------------
 # B3LYP/6-311++G(d,p) empiricaldispersion=gd3bj scf=xqc pop=npa geom=c
 heck
 ----------------------------------------------------------------------

 -------------------------------------
 CID_114094590_JID_8385_Energie_kation
 -------------------------------------
 Structure from the checkpoint file:  "JID_8385.chk"
 Charge =  1 Multiplicity = 2

 SCF Done:  E(UB3LYP) =  -784.400384876     A.U. after   26 cycles
 Normal termination of Gaussian 16 at Fri Dec 11 21:29:08 2020.
 Gaussian 16:  ES64L-G16RevA.03 25-Dec-2016

 ----------------------------------------------------------------------
 # B3LYP/6-311++G(d,p) empiricaldispersion=gd3bj scf=xqc pop=npa geom=c
 heck
 ----------------------------------------------------------------------

 ------------------------------------
 CID_114094590_JID_8385_Energie_anion
 ------------------------------------
 Structure from the checkpoint file:  "JID_8385.chk"
 Charge = -1 Multiplicity = 2

                         Standard orientation:
 ---------------------------------------------------------------------
 Center     Atomic      Atomic             Coordinates (Angstroms)
 Number     Number       Type             X           Y           Z
 ---------------------------------------------------------------------
      1          6           0        1.744142    2.139810    1.730786
      2          6           0        1.808162    1.848710    0.220617
      3          6           0        2.738545    2.844302   -0.489639
      4          6           0        2.227938    0.427397   -0.041925
      5          7           0        3.485588    0.019234    0.150651
      6          7           0        3.492027   -1.295572   -0.163928
      7          6           0        2.263884   -1.739258   -0.551581
      8          6           0        1.410806   -0.647705   -0.487758
      9          7           0        0.035868   -0.564652   -0.806712
     10          6           0       -0.872997   -0.564045    0.346617
     11          6           0       -2.293255   -0.242378   -0.059845
     12          6           0       -2.598077    0.384747   -1.268950
     13          6           0       -3.916075    0.679780   -1.625256
     14          6           0       -4.954508    0.346778   -0.758383
     15          6           0       -4.673436   -0.274050    0.459136
     16          6           0       -3.352599   -0.562485    0.805485
     17          8           0       -3.024630   -1.160594    1.996538
     18          6           0        4.747540   -2.012535   -0.201319
     19          1           0        2.737242    2.025484    2.178959
     20          1           0        1.065495    1.449063    2.243869
     21          1           0        1.395651    3.162508    1.917186
     22          1           0        0.799322    1.956975   -0.198226
     23          1           0        3.764620    2.733818   -0.124406
     24          1           0        2.746725    2.670769   -1.570919
     25          1           0        2.413987    3.875556   -0.307916
     26          1           0        2.093880   -2.765989   -0.844281
     27          1           0       -0.231395   -1.305869   -1.449323
     28          1           0       -0.851919   -1.515955    0.899731
     29          1           0       -0.509818    0.194161    1.050469
     30          1           0       -1.775612    0.639711   -1.928963
     31          1           0       -4.126811    1.167232   -2.572380
     32          1           0       -5.985099    0.568084   -1.021018
     33          1           0       -5.478844   -0.534241    1.144001
     34          1           0       -3.840403   -1.339561    2.488879
     35          1           0        5.265282   -1.863453   -1.156457
     36          1           0        5.379913   -1.641427    0.607075
     37          1           0        4.560023   -3.079602   -0.056559
 ---------------------------------------------------------------------

 SCF Done:  E(UB3LYP) =  -784.661854894     A.U. after   33 cycles
 SCF Done:  E(UB3LYP) =  -784.661854894     a.u. after    1 cycles

 The electronic state is 2-A.
 Alpha  occ. eigenvalues --  -19.05992 -14.29654 -14.23272 -14.22469 -10.14548
 Alpha  occ. eigenvalues --  -10.12085 -10.11128 -10.10924 -10.10422 -10.09712
 Alpha  occ. eigenvalues --  -10.09417 -10.09041 -10.08907 -10.08412 -10.08354
 Alpha  occ. eigenvalues --  -10.08218 -10.07580 -10.07512  -0.97000  -0.95717
 Alpha  occ. eigenvalues --   -0.83379  -0.76645  -0.75935  -0.70238  -0.69436
 Alpha  occ. eigenvalues --   -0.66856  -0.65175  -0.60745  -0.60077  -0.58197
 Alpha  occ. eigenvalues --   -0.53832  -0.52174  -0.50459  -0.49933  -0.45483
 Alpha  occ. eigenvalues --   -0.45437  -0.43463  -0.40892  -0.39995  -0.38740
 Alpha  occ. eigenvalues --   -0.38225  -0.36860  -0.35889  -0.35019  -0.34768
 Alpha  occ. eigenvalues --   -0.34241  -0.33222  -0.32967  -0.32262  -0.31672
 Alpha  occ. eigenvalues --   -0.30783  -0.30369  -0.29724  -0.29109  -0.27220
 Alpha  occ. eigenvalues --   -0.26089  -0.25911  -0.25397  -0.25199  -0.25023
 Alpha  occ. eigenvalues --   -0.20550  -0.18537  -0.16370  -0.15633  -0.13786
 Alpha  occ. eigenvalues --   -0.12293   0.03725
 Alpha virt. eigenvalues --    0.04902   0.06458   0.06731   0.07122   0.07306
 Alpha virt. eigenvalues --    0.07696   0.08451   0.08550   0.08729   0.09293
 Alpha virt. eigenvalues --    0.09834   0.10300   0.10479   0.10932   0.11586

  Beta  occ. eigenvalues --  -19.05939 -14.29652 -14.23265 -14.22463 -10.14548
  Beta  occ. eigenvalues --  -10.12041 -10.11121 -10.10903 -10.10422 -10.09711
  Beta  occ. eigenvalues --  -10.09416 -10.09037 -10.08902 -10.08410 -10.08321
  Beta  occ. eigenvalues --  -10.08216 -10.07577 -10.07509  -0.96900  -0.95709
  Beta  occ. eigenvalues --   -0.83370  -0.76625  -0.75920  -0.70227  -0.69418
  Beta  occ. eigenvalues --   -0.66830  -0.65142  -0.60707  -0.60071  -0.58176
  Beta  occ. eigenvalues --   -0.53769  -0.52146  -0.50429  -0.49910  -0.45455
  Beta  occ. eigenvalues --   -0.45369  -0.43429  -0.40850  -0.39967  -0.38716
  Beta  occ. eigenvalues --   -0.38189  -0.36844  -0.35874  -0.34984  -0.34749
  Beta  occ. eigenvalues --   -0.34207  -0.33208  -0.32946  -0.32228  -0.31639
  Beta  occ. eigenvalues --   -0.30758  -0.30353  -0.29701  -0.29089  -0.27192
  Beta  occ. eigenvalues --   -0.26083  -0.25903  -0.25365  -0.25194  -0.25002
  Beta  occ. eigenvalues --   -0.20536  -0.18528  -0.16359  -0.15619  -0.13767
  Beta  occ. eigenvalues --   -0.12282
  Beta virt. eigenvalues --    0.05867   0.06314   0.06718   0.07269   0.07304
  Beta virt. eigenvalues --    0.07603   0.08108   0.08503   0.08699   0.08873
  Beta virt. eigenvalues --    0.09468   0.10058   0.10284   0.10727   0.11271

 Mulliken charges and spin densities:
               1          2
     1  C   -0.563378  -0.095982
     2  C    0.612481  -0.081409
     3  C   -0.575191  -0.089988
     4  C    0.297704  -0.619242
     5  N   -0.414125   0.283528
     6  N    0.177480  -0.010285
     7  C   -0.384399   0.227266
     8  C   -0.040631  -0.129707
     9  N    0.087002   0.028107
    10  C    0.025489  -1.018339
    11  C    1.727137  -0.739955
    12  C   -0.476879   0.219768
    13  C   -1.037354   0.511256
    14  C    0.825622  -1.130734
    15  C   -0.516026   0.267943
    16  C   -0.145632  -0.022085
    17  O   -0.230495   0.033808
    18  C    0.963672  -1.246182
    19  H    0.152873   0.012219
    20  H    0.028083   0.090118
    21  H    0.110565   0.026475
    22  H    0.184125   0.001446
    23  H    0.140245   0.019950
    24  H    0.112289   0.032599
    25  H    0.127677   0.008387
    26  H   -0.768448   0.962130
    27  H    0.187248   0.047256
    28  H    0.179020   0.059039
    29  H    0.265879  -0.127860
    30  H    0.120176   0.060114
    31  H    0.039507   0.116485
    32  H    0.088301   0.058895
    33  H   -1.185351   1.349149
    34  H   -0.330883   0.616098
    35  H   -0.239978   0.416154
    36  H   -0.075781   0.240195
    37  H   -0.468023   0.623385
 Sum of Mulliken charges =  -1.00000   1.00000

 Dipole moment (field-independent basis, Debye):
    X=              2.2153    Y=              6.2809    Z=             -3.3049  Tot=              7.4350
 Quadrupole moment (field-independent basis, Debye-Ang):
   XX=           -228.0706   YY=           -155.2253   ZZ=           -145.9948
   XY=              6.3968   XZ=             24.8996   YZ=              2.6966

 Summary of Natural Population Analysis:

                                       Natural Population
                Natural  -----------------------------------------------
    Atom  No    Charge         Core      Valence    Rydberg      Total
 -----------------------------------------------------------------------
      C    1   -0.27861      0.99965     2.27450    0.00446     3.27861
      C    2   -0.12949      0.99958     2.12162    0.00828     3.12949
      C    3   -0.27899      0.99966     2.27464    0.00469     3.27899
      C    4    0.07028      0.99951     1.91304    0.01717     2.92972
      N    5   -0.16084      0.99969     2.65019    0.01096     3.66084
      N    6   -0.10428      0.99968     2.59223    0.01237     3.60428
      C    7   -0.02038      0.99949     2.00910    0.01179     3.02038
      C    8    0.03064      0.99941     1.95807    0.01188     2.96936
      N    9   -0.33242      0.99971     2.82239    0.01032     3.83242
      C   10   -0.09063      0.99957     2.08080    0.01026     3.09063
      C   11   -0.04480      0.99947     2.03457    0.01077     3.04480
      C   12   -0.09739      0.99953     2.08963    0.00824     3.09739
      C   13   -0.11864      0.99956     2.10975    0.00933     3.11864
      C   14   -0.09806      0.99957     2.08767    0.01082     3.09806
      C   15   -0.13455      0.99952     2.12433    0.01070     3.13455
      C   16    0.16285      0.99934     1.82449    0.01331     2.83715
      O   17   -0.34129      0.99988     3.33433    0.00708     4.34129
      C   18   -0.17138      0.99964     2.16340    0.00834     3.17138
      H   19    0.10028      0.00000     0.39880    0.00092     0.39972
      H   20    0.10038      0.00000     0.39873    0.00089     0.39962
      H   21    0.09409      0.00000     0.40513    0.00078     0.40591
      H   22    0.10362      0.00000     0.39444    0.00194     0.39638
      H   23    0.10257      0.00000     0.39650    0.00093     0.39743
      H   24    0.10025      0.00000     0.39900    0.00075     0.39975
      H   25    0.09300      0.00000     0.40623    0.00077     0.40700
      H   26    0.10640      0.00000     0.39194    0.00167     0.39360
      H   27    0.17923      0.00000     0.31841    0.00235     0.32077
      H   28    0.09741      0.00000     0.40089    0.00170     0.40259
      H   29    0.10147      0.00000     0.39714    0.00138     0.39853
      H   30    0.10895      0.00000     0.38979    0.00126     0.39105
      H   31    0.09825      0.00000     0.40101    0.00074     0.40175
      H   32    0.09981      0.00000     0.39940    0.00079     0.40019
      H   33    0.10592      0.00000     0.39065    0.00343     0.39408
      H   34    0.24197      0.00000     0.24425    0.01379     0.25803
      H   35    0.09705      0.00000     0.40141    0.00154     0.40295
      H   36    0.10464      0.00000     0.39395    0.00141     0.39536
      H   37    0.10268      0.00000     0.39527    0.00206     0.39732
 =======================================================================
   * Total *    0.00000     17.99245    47.78768    0.21987    66.00000

 Normal termination of Gaussian 16 at Fri Dec 11 21:54:06 2020.
