 Gaussian 16, Revision A.03,

 -----------------------------------------------------------
 # opt freq B3LYP/6-31G(d) empiricaldispersion=gd3bj scf=xqc
 -----------------------------------------------------------

 ------------------------------
 CID_82715542_JID_4262_neutraal
 ------------------------------
 Symbolic Z-matrix:
 Charge =  0 Multiplicity = 1

 SCF Done:  E(RB3LYP) =  -638.203610699     A.U. after   13 cycles
 SCF Done:  E(RB3LYP) =  -638.207975327     A.U. after   12 cycles
 SCF Done:  E(RB3LYP) =  -638.208741826     A.U. after   11 cycles
 SCF Done:  E(RB3LYP) =  -638.208711469     A.U. after   11 cycles
 SCF Done:  E(RB3LYP) =  -638.209073080     A.U. after   11 cycles
 SCF Done:  E(RB3LYP) =  -638.209073376     A.U. after    9 cycles
 SCF Done:  E(RB3LYP) =  -638.209098885     A.U. after    9 cycles
 SCF Done:  E(RB3LYP) =  -638.209099464     A.U. after    8 cycles
 SCF Done:  E(RB3LYP) =  -638.209099916     A.U. after    7 cycles
 SCF Done:  E(RB3LYP) =  -638.209100011     A.U. after    7 cycles
 Optimization completed.
    -- Stationary point found.
 Normal termination of Gaussian 16 at Thu Dec 10 09:21:20 2020.

 --------------------------------------------------------------------
 #N Geom=AllCheck Guess=TCheck SCRF=Check GenChk RB3LYP/6-31G(d) Freq
 --------------------------------------------------------------------

 Structure from the checkpoint file:  "JID_4262.chk"
 ------------------------------
 CID_82715542_JID_4262_neutraal
 ------------------------------
 Charge =  0 Multiplicity = 1

 SCF Done:  E(RB3LYP) =  -638.209100011     A.U. after    1 cycles

  Exact polarizability: 152.753  -2.702 127.891   0.779  -2.106 108.517
 Approx polarizability: 179.837  -5.682 178.833   1.600  -0.424 168.644

                      1                      2                      3
                      A                      A                      A
 Frequencies --     28.0047                38.4436                72.8127
 Red. masses --      3.5942                 3.9292                 2.7812
 Frc consts  --      0.0017                 0.0034                 0.0087
 IR Inten    --      0.2999                 1.0533                 1.1246

                      4                      5                      6
                      A                      A                      A
 Frequencies --     91.3472               111.3024               148.0305
 Red. masses --      3.1627                 2.3744                 2.0255
 Frc consts  --      0.0155                 0.0173                 0.0262
 IR Inten    --      1.1990                 2.1592                 0.4274

                      7                      8                      9
                      A                      A                      A
 Frequencies --    164.5789               174.3928               183.7493
 Red. masses --      2.2766                 1.1364                 3.2418
 Frc consts  --      0.0363                 0.0204                 0.0645
 IR Inten    --      2.0563                 0.3386                 3.2016

                     10                     11                     12
                      A                      A                      A
 Frequencies --    236.0094               252.2187               270.6703
 Red. masses --      1.6913                 2.2382                 1.7253
 Frc consts  --      0.0555                 0.0839                 0.0745
 IR Inten    --      3.5093                 4.4705                 0.5529

                     13                     14                     15
                      A                      A                      A
 Frequencies --    284.0458               295.3984               318.8410
 Red. masses --      1.8955                 2.1626                 2.6197
 Frc consts  --      0.0901                 0.1112                 0.1569
 IR Inten    --      0.3897                 2.4708                 1.0262

                     16                     17                     18
                      A                      A                      A
 Frequencies --    367.0282               371.0722               392.3305
 Red. masses --      2.7795                 2.0236                 2.3239
 Frc consts  --      0.2206                 0.1642                 0.2108
 IR Inten    --      2.3463                 0.2437                 0.1242

                     19                     20                     21
                      A                      A                      A
 Frequencies --    404.8907               462.9644               484.0051
 Red. masses --      2.3408                 2.9275                 3.0983
 Frc consts  --      0.2261                 0.3697                 0.4276
 IR Inten    --      0.7312                 2.0787                 2.6095

                     22                     23                     24
                      A                      A                      A
 Frequencies --    533.3340               559.3861               588.4466
 Red. masses --      2.9865                 2.2841                 2.8414
 Frc consts  --      0.5005                 0.4211                 0.5797
 IR Inten    --      2.0966                 8.2702                 4.1437

                     25                     26                     27
                      A                      A                      A
 Frequencies --    696.7677               744.8495               808.1709
 Red. masses --      1.9651                 3.1388                 2.6737
 Frc consts  --      0.5621                 1.0260                 1.0289
 IR Inten    --      1.2527                 2.2061                 1.7504

                     28                     29                     30
                      A                      A                      A
 Frequencies --    831.4908               844.7272               867.7959
 Red. masses --      3.0895                 2.0918                 1.6636
 Frc consts  --      1.2585                 0.8794                 0.7381
 IR Inten    --     10.7194                 1.6551                 8.9364

                     31                     32                     33
                      A                      A                      A
 Frequencies --    873.4128               927.1740               938.3119
 Red. masses --      2.5518                 2.5452                 1.9465
 Frc consts  --      1.1469                 1.2891                 1.0097
 IR Inten    --     26.3364                 5.9405                 3.7730

                     34                     35                     36
                      A                      A                      A
 Frequencies --    959.5889               988.8463              1007.5683
 Red. masses --      1.8943                 1.6494                 1.8538
 Frc consts  --      1.0277                 0.9503                 1.1088
 IR Inten    --      0.8010                 2.2928                10.6877

                     37                     38                     39
                      A                      A                      A
 Frequencies --   1012.2042              1037.9515              1049.8119
 Red. masses --      1.7542                 1.6703                 1.7723
 Frc consts  --      1.0589                 1.0602                 1.1508
 IR Inten    --      2.3530                 3.6709                 2.1473

                     40                     41                     42
                      A                      A                      A
 Frequencies --   1060.4119              1069.4178              1078.3131
 Red. masses --      2.6568                 1.8566                 2.2686
 Frc consts  --      1.7602                 1.2510                 1.5542
 IR Inten    --     66.2741                16.4343                45.6127

                     43                     44                     45
                      A                      A                      A
 Frequencies --   1114.1605              1130.5413              1133.4896
 Red. masses --      2.4959                 1.9998                 1.3956
 Frc consts  --      1.8255                 1.5060                 1.0564
 IR Inten    --     11.5869                 4.4742                 0.5570

                     46                     47                     48
                      A                      A                      A
 Frequencies --   1147.4626              1162.5886              1165.9618
 Red. masses --      1.6527                 1.5349                 3.0026
 Frc consts  --      1.2821                 1.2223                 2.4050
 IR Inten    --      7.4648                23.0909                95.4626

                     49                     50                     51
                      A                      A                      A
 Frequencies --   1189.0268              1195.9340              1223.1866
 Red. masses --      2.2002                 1.3579                 1.6223
 Frc consts  --      1.8327                 1.1443                 1.4301
 IR Inten    --      2.2074                 6.4427                 4.9281

                     52                     53                     54
                      A                      A                      A
 Frequencies --   1237.1502              1262.5770              1279.1185
 Red. masses --      1.6191                 1.5208                 1.1546
 Frc consts  --      1.4601                 1.4284                 1.1130
 IR Inten    --     21.8315                 9.8174                 3.3640

                     55                     56                     57
                      A                      A                      A
 Frequencies --   1305.1239              1324.8459              1329.2683
 Red. masses --      1.2213                 1.3150                 1.1816
 Frc consts  --      1.2257                 1.3599                 1.2301
 IR Inten    --      0.3190                 0.7058                 4.2916

                     58                     59                     60
                      A                      A                      A
 Frequencies --   1353.9510              1363.2318              1369.6292
 Red. masses --      1.3141                 1.7206                 1.3963
 Frc consts  --      1.4193                 1.8840                 1.5432
 IR Inten    --      2.0233                 0.6278                 3.1112

                     61                     62                     63
                      A                      A                      A
 Frequencies --   1395.1481              1397.3358              1406.6235
 Red. masses --      1.3793                 1.3969                 1.3330
 Frc consts  --      1.5818                 1.6070                 1.5540
 IR Inten    --      2.5652                24.1376                 1.8348

                     64                     65                     66
                      A                      A                      A
 Frequencies --   1407.9689              1413.6161              1436.0638
 Red. masses --      1.3749                 1.3107                 1.4473
 Frc consts  --      1.6058                 1.5432                 1.7586
 IR Inten    --      8.0028                 7.8032                11.4279

                     67                     68                     69
                      A                      A                      A
 Frequencies --   1443.2066              1445.5640              1449.6619
 Red. masses --      1.4140                 1.3122                 1.2656
 Frc consts  --      1.7352                 1.6156                 1.5671
 IR Inten    --     11.7527                 4.3414                 6.9236

                     70                     71                     72
                      A                      A                      A
 Frequencies --   1498.1689              1499.9513              1510.1772
 Red. masses --      1.0993                 1.1464                 1.0838
 Frc consts  --      1.4537                 1.5197                 1.4564
 IR Inten    --      2.3718                 6.0154                 0.9530

                     73                     74                     75
                      A                      A                      A
 Frequencies --   1515.1189              1515.3539              1519.2000
 Red. masses --      1.0481                 1.0697                 1.0570
 Frc consts  --      1.4176                 1.4473                 1.4373
 IR Inten    --      5.5487                 1.2892                 4.8122

                     76                     77                     78
                      A                      A                      A
 Frequencies --   1525.6365              1527.3378              1530.8197
 Red. masses --      1.0562                 1.0697                 1.0824
 Frc consts  --      1.4484                 1.4702                 1.4944
 IR Inten    --      3.4955                 9.3442                 5.7230

                     79                     80                     81
                      A                      A                      A
 Frequencies --   1541.2535              1542.3217              1548.3992
 Red. masses --      1.1154                 1.0642                 1.0561
 Frc consts  --      1.5611                 1.4914                 1.4919
 IR Inten    --      7.1946                12.8561                 3.4127

                     82                     83                     84
                      A                      A                      A
 Frequencies --   1552.0983              2935.1479              2980.6354
 Red. masses --      1.1157                 1.0799                 1.0591
 Frc consts  --      1.5835                 5.4812                 5.5438
 IR Inten    --      8.2610                35.0189                47.2149

                     85                     86                     87
                      A                      A                      A
 Frequencies --   2998.8384              3002.5191              3010.0960
 Red. masses --      1.0808                 1.0387                 1.0792
 Frc consts  --      5.7267                 5.5172                 5.7610
 IR Inten    --     28.7294                83.5884                20.1091

                     88                     89                     90
                      A                      A                      A
 Frequencies --   3022.4027              3027.1442              3033.6624
 Red. masses --      1.0651                 1.0915                 1.0683
 Frc consts  --      5.7328                 5.8932                 5.7929
 IR Inten    --     36.1763                18.7826                80.2631

                     91                     92                     93
                      A                      A                      A
 Frequencies --   3044.8372              3049.7272              3050.5571
 Red. masses --      1.0708                 1.0410                 1.1054
 Frc consts  --      5.8490                 5.7047                 6.0606
 IR Inten    --     85.9448                21.9704                40.9834

                     94                     95                     96
                      A                      A                      A
 Frequencies --   3058.9424              3061.3980              3063.1065
 Red. masses --      1.0594                 1.0810                 1.0830
 Frc consts  --      5.8407                 5.9692                 5.9870
 IR Inten    --      2.3839                14.4192                68.0041

                     97                     98                     99
                      A                      A                      A
 Frequencies --   3075.1450              3102.0424              3105.9429
 Red. masses --      1.0783                 1.1019                 1.1020
 Frc consts  --      6.0079                 6.2474                 6.2636
 IR Inten    --     57.9598                34.4783                37.6218

                    100                    101                    102
                      A                      A                      A
 Frequencies --   3108.5389              3125.6424              3135.5850
 Red. masses --      1.1023                 1.0972                 1.0995
 Frc consts  --      6.2758                 6.3159                 6.3692
 IR Inten    --     35.7787                18.8619                54.9381

                    103                    104                    105
                      A                      A                      A
 Frequencies --   3144.3016              3156.7209              3447.0974
 Red. masses --      1.0979                 1.0964                 1.0750
 Frc consts  --      6.3956                 6.4370                 7.5260
 IR Inten    --     24.1260                28.3110                49.1889

 - Thermochemistry -
 -------------------
 Temperature   298.150 Kelvin.  Pressure   1.00000 Atm.
 Atom     1 has atomic number  6 and mass  12.00000

 Molecular mass:   201.17288 amu.
 Principal axes and moments of inertia in atomic units:
                           1         2         3
     Eigenvalues --  1363.133475434.890566074.01309
           X            0.99999   0.00306   0.00421
           Y           -0.00292   0.99939  -0.03478
           Z           -0.00432   0.03477   0.99939
 This molecule is an asymmetric top.
 Rotational symmetry number  1.
 Warning -- assumption of classical behavior for rotation
           may cause significant error
 Rotational temperatures (Kelvin)      0.06354     0.01594     0.01426
 Rotational constants (GHZ):           1.32397     0.33207     0.29713
 Zero-point vibrational energy     892883.2 (Joules/Mol)
                                  213.40422 (Kcal/Mol)
 Warning -- explicit consideration of  24 degrees of freedom as
           vibrations may cause significant error
 Vibrational temperatures:     40.29    55.31   104.76   131.43   160.14
          (Kelvin)            212.98   236.79   250.91   264.37   339.56
                              362.89   389.43   408.68   425.01   458.74
                              528.07   533.89   564.48   582.55   666.10
                              696.38   767.35   804.83   846.64  1002.49
                             1071.67  1162.78  1196.33  1215.37  1248.56
                             1256.65  1334.00  1350.02  1380.63  1422.73
                             1449.67  1456.34  1493.38  1510.45  1525.70
                             1538.65  1551.45  1603.03  1626.60  1630.84
                             1650.94  1672.71  1677.56  1710.74  1720.68
                             1759.89  1779.98  1816.57  1840.37  1877.78
                             1906.16  1912.52  1948.03  1961.39  1970.59
                             2007.31  2010.45  2023.82  2025.75  2033.88
                             2066.18  2076.45  2079.84  2085.74  2155.53
                             2158.10  2172.81  2179.92  2180.26  2185.79
                             2195.05  2197.50  2202.51  2217.52  2219.06
                             2227.80  2233.12  4223.02  4288.47  4314.66
                             4319.96  4330.86  4348.56  4355.39  4364.76
                             4380.84  4387.88  4389.07  4401.14  4404.67
                             4407.13  4424.45  4463.15  4468.76  4472.49
                             4497.10  4511.41  4523.95  4541.82  4959.60

 Zero-point correction=                           0.340081 (Hartree/Particle)
 Thermal correction to Energy=                    0.355745
 Thermal correction to Enthalpy=                  0.356689
 Thermal correction to Gibbs Free Energy=         0.296799
 Sum of electronic and zero-point Energies=           -637.869019
 Sum of electronic and thermal Energies=              -637.853355
 Sum of electronic and thermal Enthalpies=            -637.852411
 Sum of electronic and thermal Free Energies=         -637.912301

                     E (Thermal)             CV                S
                      KCal/Mol        Cal/Mol-Kelvin    Cal/Mol-Kelvin
 Total                  223.234             59.280            126.049
 Electronic               0.000              0.000              0.000
 Translational            0.889              2.981             41.802
 Rotational               0.889              2.981             32.176
 Vibrational            221.456             53.318             52.072
 Vibration     1          0.593              1.984              5.966
 Vibration     2          0.594              1.982              5.338
 Vibration     3          0.599              1.967              4.076
 Vibration     4          0.602              1.955              3.631
 Vibration     5          0.607              1.940              3.246
 Vibration     6          0.617              1.905              2.697
 Vibration     7          0.623              1.886              2.496
 Vibration     8          0.627              1.874              2.388
 Vibration     9          0.631              1.862              2.290
 Vibration    10          0.655              1.786              1.833
 Vibration    11          0.664              1.759              1.715
 Vibration    12          0.674              1.727              1.592
 Vibration    13          0.682              1.703              1.509
 Vibration    14          0.690              1.682              1.443
 Vibration    15          0.705              1.638              1.316
 Vibration    16          0.740              1.540              1.092
 Vibration    17          0.743              1.532              1.075
 Vibration    18          0.760              1.487              0.991
 Vibration    19          0.770              1.460              0.945
 Vibration    20          0.821              1.332              0.758
 Vibration    21          0.840              1.286              0.699
 Vibration    22          0.888              1.176              0.580
 Vibration    23          0.915              1.119              0.525
 Vibration    24          0.946              1.056              0.470

 Optimization completed.
    -- Stationary point found.
 Normal termination of Gaussian 16 at Thu Dec 10 09:32:50 2020.

 ----------------------------------------------------------------------
 # B3LYP/6-311++G(d,p) empiricaldispersion=gd3bj scf=xqc pop=npa geom=c
 heck
 ----------------------------------------------------------------------

 --------------------------------------
 CID_82715542_JID_4262_Energie_neutraal
 --------------------------------------
 Structure from the checkpoint file:  "JID_4262.chk"
 Charge =  0 Multiplicity = 1

 SCF Done:  E(RB3LYP) =  -638.393896481     A.U. after   13 cycles
 Normal termination of Gaussian 16 at Thu Dec 10 09:38:25 2020.

 ----------------------------------------------------------------------
 # B3LYP/6-311++G(d,p) empiricaldispersion=gd3bj scf=xqc pop=npa geom=c
 heck
 ----------------------------------------------------------------------

 ------------------------------------
 CID_82715542_JID_4262_Energie_kation
 ------------------------------------
 Structure from the checkpoint file:  "JID_4262.chk"
 Charge =  1 Multiplicity = 2

 SCF Done:  E(UB3LYP) =  -638.088403374     A.U. after   21 cycles
 Normal termination of Gaussian 16 at Thu Dec 10 09:51:53 2020.
 Gaussian 16:  ES64L-G16RevA.03 25-Dec-2016

 ----------------------------------------------------------------------
 # B3LYP/6-311++G(d,p) empiricaldispersion=gd3bj scf=xqc pop=npa geom=c
 heck
 ----------------------------------------------------------------------

 -----------------------------------
 CID_82715542_JID_4262_Energie_anion
 -----------------------------------
 Structure from the checkpoint file:  "JID_4262.chk"
 Charge = -1 Multiplicity = 2

                         Standard orientation:
 ---------------------------------------------------------------------
 Center     Atomic      Atomic             Coordinates (Angstroms)
 Number     Number       Type             X           Y           Z
 ---------------------------------------------------------------------
      1          6           0       -4.193215    0.327300   -0.437681
      2          6           0       -3.291356   -0.063513    0.742746
      3          6           0       -2.595659   -1.420184    0.512693
      4          6           0       -1.412993   -1.316409   -0.457657
      5          6           0       -0.390322   -0.297135    0.049301
      6          6           0       -1.004532    1.110592    0.216956
      7          6           0       -2.248074    1.008857    1.128195
      8          6           0       -1.259661    1.829703   -1.117588
      9          7           0        0.749424   -0.208294   -0.865582
     10          8           0        1.511590   -1.436017   -0.845094
     11          6           0        2.380197   -1.555825    0.276637
     12          6           0        3.607615   -0.663376    0.179632
     13          8           0        3.222469    0.683388    0.424048
     14          6           0        4.283973    1.599098    0.240559
     15          1           0       -5.028325   -0.377909   -0.525390
     16          1           0       -3.662233    0.322431   -1.393013
     17          1           0       -4.613993    1.330021   -0.298516
     18          1           0       -3.953932   -0.173714    1.613090
     19          1           0       -2.226773   -1.797681    1.477462
     20          1           0       -3.323413   -2.156785    0.149294
     21          1           0       -1.748197   -1.023741   -1.459358
     22          1           0       -0.919151   -2.286938   -0.568176
     23          1           0       -0.076362   -0.622254    1.058863
     24          1           0       -0.268078    1.718302    0.764854
     25          1           0       -2.731726    1.992602    1.192154
     26          1           0       -1.894810    0.773307    2.142088
     27          1           0       -1.799851    2.767937   -0.944664
     28          1           0       -0.317822    2.064180   -1.621339
     29          1           0       -1.848669    1.227848   -1.812713
     30          1           0        1.395065    0.511998   -0.534438
     31          1           0        1.856096   -1.358050    1.221799
     32          1           0        2.700217   -2.603761    0.275638
     33          1           0        4.361831   -0.979129    0.920986
     34          1           0        4.051524   -0.759821   -0.823458
     35          1           0        5.118511    1.385455    0.926161
     36          1           0        4.664568    1.574380   -0.791851
     37          1           0        3.891250    2.595752    0.455210
 ---------------------------------------------------------------------

 SCF Done:  E(UB3LYP) =  -638.380518517     A.U. after   28 cycles

 The electronic state is 2-A.
 Alpha  occ. eigenvalues --  -19.04826 -19.04115 -14.23955 -10.12548 -10.12328
 Alpha  occ. eigenvalues --  -10.11877 -10.09569 -10.07823 -10.07661 -10.06712
 Alpha  occ. eigenvalues --  -10.06704 -10.06415 -10.06060 -10.05915  -0.96780
 Alpha  occ. eigenvalues --   -0.94794  -0.77047  -0.72276  -0.67308  -0.65867
 Alpha  occ. eigenvalues --   -0.64111  -0.59208  -0.58390  -0.56350  -0.52427
 Alpha  occ. eigenvalues --   -0.50130  -0.48302  -0.43268  -0.41830  -0.41375
 Alpha  occ. eigenvalues --   -0.39777  -0.38697  -0.37367  -0.36569  -0.35285
 Alpha  occ. eigenvalues --   -0.34808  -0.33057  -0.32394  -0.31984  -0.31187
 Alpha  occ. eigenvalues --   -0.30422  -0.29259  -0.29092  -0.27747  -0.26033
 Alpha  occ. eigenvalues --   -0.25934  -0.25200  -0.24830  -0.24137  -0.23470
 Alpha  occ. eigenvalues --   -0.21684  -0.20465  -0.19991  -0.18818  -0.16883
 Alpha  occ. eigenvalues --   -0.13570   0.04166
 Alpha virt. eigenvalues --    0.05697   0.06824   0.07543   0.07821   0.08434
 Alpha virt. eigenvalues --    0.08872   0.09819   0.10016   0.10153   0.10421
 Alpha virt. eigenvalues --    0.10778   0.11662   0.11968   0.12406   0.13081

  Beta  occ. eigenvalues --  -19.04824 -19.04103 -14.23952 -10.12521 -10.12311
  Beta  occ. eigenvalues --  -10.11829 -10.09564 -10.07818 -10.07653 -10.06699
  Beta  occ. eigenvalues --  -10.06688 -10.06397 -10.06057 -10.05904  -0.96770
  Beta  occ. eigenvalues --   -0.94777  -0.77034  -0.72253  -0.67282  -0.65839
  Beta  occ. eigenvalues --   -0.64087  -0.59176  -0.58329  -0.56303  -0.52367
  Beta  occ. eigenvalues --   -0.50092  -0.48276  -0.43240  -0.41805  -0.41317
  Beta  occ. eigenvalues --   -0.39746  -0.38667  -0.37337  -0.36521  -0.35255
  Beta  occ. eigenvalues --   -0.34786  -0.33027  -0.32365  -0.31964  -0.31148
  Beta  occ. eigenvalues --   -0.30403  -0.29232  -0.29061  -0.27719  -0.26014
  Beta  occ. eigenvalues --   -0.25914  -0.25173  -0.24785  -0.24109  -0.23444
  Beta  occ. eigenvalues --   -0.21656  -0.20439  -0.19969  -0.18796  -0.16856
  Beta  occ. eigenvalues --   -0.13558
  Beta virt. eigenvalues --    0.06123   0.06794   0.07449   0.07937   0.08243
  Beta virt. eigenvalues --    0.08838   0.09399   0.10085   0.10356   0.10582
  Beta virt. eigenvalues --    0.10662   0.11023   0.11940   0.12174   0.12759

 Mulliken charges and spin densities:
               1          2
     1  C    0.476975  -1.144346
     2  C   -0.217279   0.609323
     3  C   -0.215592  -0.314274
     4  C   -0.138792   0.060800
     5  C   -0.881492   0.003473
     6  C    0.424084   0.026759
     7  C   -0.162811  -0.655535
     8  C   -0.267590  -0.328115
     9  N   -0.118462  -0.030661
    10  O    0.050696   0.016981
    11  C    0.199374  -0.437293
    12  C    0.347724  -0.580917
    13  O   -0.263420   0.090967
    14  C    0.761395  -1.037661
    15  H   -0.088149   0.222294
    16  H    0.061645   0.053495
    17  H   -0.007322   0.142463
    18  H   -0.267021   0.477091
    19  H   -0.151991   0.289124
    20  H   -0.038265   0.196558
    21  H    0.122509   0.049286
    22  H    0.168621   0.003723
    23  H    0.406483  -0.296880
    24  H    0.136185   0.083005
    25  H   -0.216307   0.385845
    26  H   -0.164952   0.304959
    27  H    0.047071   0.100637
    28  H   -0.042579   0.160919
    29  H    0.149145   0.009677
    30  H    0.614379  -0.230863
    31  H   -0.146469   0.308110
    32  H   -0.302573   0.472105
    33  H   -0.340754   0.485800
    34  H    0.134425   0.018444
    35  H   -0.501425   0.639817
    36  H   -0.201004   0.337663
    37  H   -0.366461   0.507229
 Sum of Mulliken charges =  -1.00000   1.00000

 Dipole moment (field-independent basis, Debye):
    X=             -3.5122    Y=             -1.2647    Z=             -2.7509  Tot=              4.6371
 Quadrupole moment (field-independent basis, Debye-Ang):
   XX=           -187.7660   YY=           -130.4998   ZZ=           -127.2455
   XY=             -4.7288   XZ=             -2.0587   YZ=             -1.0829

 Summary of Natural Population Analysis:

                                       Natural Population
                Natural  -----------------------------------------------
    Atom  No    Charge         Core      Valence    Rydberg      Total
 -----------------------------------------------------------------------
      C    1   -0.28533      0.99964     2.27935    0.00633     3.28533
      C    2   -0.11243      0.99960     2.10207    0.01076     3.11243
      C    3   -0.18829      0.99961     2.17930    0.00937     3.18829
      C    4   -0.19853      0.99960     2.18885    0.01008     3.19853
      C    5   -0.01477      0.99955     2.00278    0.01244     3.01477
      C    6   -0.11473      0.99957     2.10395    0.01121     3.11473
      C    7   -0.18432      0.99960     2.17424    0.01048     3.18432
      C    8   -0.28637      0.99964     2.28011    0.00662     3.28637
      N    9   -0.17939      0.99969     2.66678    0.01292     3.67939
      O   10   -0.22986      0.99990     3.22072    0.00924     4.22986
      C   11   -0.02771      0.99958     2.01440    0.01374     3.02771
      C   12   -0.02295      0.99959     2.01146    0.01191     3.02295
      O   13   -0.30542      0.99988     3.29536    0.01018     4.30542
      C   14   -0.09620      0.99962     2.08740    0.00918     3.09620
      H   15    0.09716      0.00000     0.40201    0.00083     0.40284
      H   16    0.09527      0.00000     0.40377    0.00097     0.40473
      H   17    0.09841      0.00000     0.40079    0.00080     0.40159
      H   18    0.09630      0.00000     0.40182    0.00188     0.40370
      H   19    0.09715      0.00000     0.40164    0.00121     0.40285
      H   20    0.09745      0.00000     0.40172    0.00083     0.40255
      H   21    0.09660      0.00000     0.40212    0.00128     0.40340
      H   22    0.10666      0.00000     0.39220    0.00114     0.39334
      H   23    0.08497      0.00000     0.41295    0.00208     0.41503
      H   24    0.09873      0.00000     0.39946    0.00181     0.40127
      H   25    0.09877      0.00000     0.40022    0.00102     0.40123
      H   26    0.10081      0.00000     0.39788    0.00131     0.39919
      H   27    0.09639      0.00000     0.40286    0.00075     0.40361
      H   28    0.10408      0.00000     0.39501    0.00092     0.39592
      H   29    0.09602      0.00000     0.40302    0.00095     0.40398
      H   30    0.17780      0.00000     0.31816    0.00404     0.32220
      H   31    0.08680      0.00000     0.41148    0.00172     0.41320
      H   32    0.09472      0.00000     0.40413    0.00116     0.40528
      H   33    0.08534      0.00000     0.41227    0.00240     0.41466
      H   34    0.08285      0.00000     0.41575    0.00140     0.41715
      H   35    0.08244      0.00000     0.41499    0.00256     0.41756
      H   36    0.07883      0.00000     0.41960    0.00157     0.42117
      H   37    0.09274      0.00000     0.40579    0.00147     0.40726
 =======================================================================
   * Total *   -0.00000     13.99507    41.82640    0.17853    56.00000

 Normal termination of Gaussian 16 at Thu Dec 10 10:08:49 2020.
