 Gaussian 16, Revision A.03,

 -----------------------------------------------------------
 # opt freq B3LYP/6-31G(d) empiricaldispersion=gd3bj scf=xqc
 -----------------------------------------------------------

 ------------------------------
 CID_83240439_JID_4903_neutraal
 ------------------------------
 Symbolic Z-matrix:
 Charge =  0 Multiplicity = 1

 SCF Done:  E(RB3LYP) =  -1018.10724238     A.U. after   16 cycles
 SCF Done:  E(RB3LYP) =  -1018.11346478     A.U. after   13 cycles
 SCF Done:  E(RB3LYP) =  -1018.11417212     A.U. after   13 cycles
 SCF Done:  E(RB3LYP) =  -1018.11424296     A.U. after   13 cycles
 SCF Done:  E(RB3LYP) =  -1018.11492745     A.U. after   13 cycles
 SCF Done:  E(RB3LYP) =  -1018.11519816     A.U. after   13 cycles
 SCF Done:  E(RB3LYP) =  -1018.11531493     A.U. after   13 cycles
 SCF Done:  E(RB3LYP) =  -1018.11536114     A.U. after    9 cycles
 SCF Done:  E(RB3LYP) =  -1018.11540274     A.U. after   11 cycles
 SCF Done:  E(RB3LYP) =  -1018.11541873     A.U. after   11 cycles
 SCF Done:  E(RB3LYP) =  -1018.11546057     A.U. after   12 cycles
 SCF Done:  E(RB3LYP) =  -1018.11548559     A.U. after   12 cycles
 SCF Done:  E(RB3LYP) =  -1018.11548770     A.U. after    9 cycles
 SCF Done:  E(RB3LYP) =  -1018.11548829     A.U. after   10 cycles
 SCF Done:  E(RB3LYP) =  -1018.11548847     A.U. after    8 cycles
 SCF Done:  E(RB3LYP) =  -1018.11548854     A.U. after    8 cycles
 Optimization completed.
    -- Stationary point found.
 Normal termination of Gaussian 16 at Thu Dec 10 10:51:28 2020.

 --------------------------------------------------------------------
 #N Geom=AllCheck Guess=TCheck SCRF=Check GenChk RB3LYP/6-31G(d) Freq
 --------------------------------------------------------------------

 Structure from the checkpoint file:  "JID_4903.chk"
 ------------------------------
 CID_83240439_JID_4903_neutraal
 ------------------------------
 Charge =  0 Multiplicity = 1

 SCF Done:  E(RB3LYP) =  -1018.11548854     A.U. after    1 cycles

  Exact polarizability: 197.599 -29.971 149.384   1.448   1.587  57.744
 Approx polarizability: 286.136 -74.563 280.469   6.859   4.438  93.238

                      1                      2                      3
                      A                      A                      A
 Frequencies --     30.8726                65.8915                79.0560
 Red. masses --      5.7322                 5.1683                 3.9033
 Frc consts  --      0.0032                 0.0132                 0.0144
 IR Inten    --      1.4175                 0.9824                 0.8140

                      4                      5                      6
                      A                      A                      A
 Frequencies --     84.5592               102.3567               182.1739
 Red. masses --      6.3137                 1.2234                 5.2511
 Frc consts  --      0.0266                 0.0076                 0.1027
 IR Inten    --      1.2721                 0.5964                 3.3682

                      7                      8                      9
                      A                      A                      A
 Frequencies --    209.7557               231.6971               284.9922
 Red. masses --      4.9933                 5.8849                 4.2487
 Frc consts  --      0.1294                 0.1861                 0.2033
 IR Inten    --      1.6864                 4.3821                 3.5898

                     10                     11                     12
                      A                      A                      A
 Frequencies --    335.9892               345.8935               375.3140
 Red. masses --      5.9813                 5.7639                 1.1777
 Frc consts  --      0.3978                 0.4063                 0.0977
 IR Inten    --      7.2127                 5.7449               113.2187

                     13                     14                     15
                      A                      A                      A
 Frequencies --    388.7478               460.1221               478.4180
 Red. masses --      3.4927                 1.3269                 6.7814
 Frc consts  --      0.3110                 0.1655                 0.9145
 IR Inten    --     15.3926               115.3885                 5.6134

                     16                     17                     18
                      A                      A                      A
 Frequencies --    549.0160               570.2940               605.6210
 Red. masses --      4.2585                 5.6933                 1.6058
 Frc consts  --      0.7563                 1.0910                 0.3470
 IR Inten    --      8.2447                21.8961               217.2181

                     19                     20                     21
                      A                      A                      A
 Frequencies --    626.1523               642.3801               679.5214
 Red. masses --      9.7473                 5.1302                 4.5362
 Frc consts  --      2.2516                 1.2473                 1.2341
 IR Inten    --      0.3873                 0.7431                 3.3242

                     22                     23                     24
                      A                      A                      A
 Frequencies --    700.6148               733.1474               778.7158
 Red. masses --      4.0934                 4.9076                 4.7171
 Frc consts  --      1.1838                 1.5542                 1.6853
 IR Inten    --     75.1077                16.8050                41.2044

                     25                     26                     27
                      A                      A                      A
 Frequencies --    799.7254               831.9551               941.7629
 Red. masses --      1.4897                 9.7070                 4.8751
 Frc consts  --      0.5613                 3.9585                 2.5475
 IR Inten    --     16.4276                25.6722                47.8819

                     28                     29                     30
                      A                      A                      A
 Frequencies --    953.7240               998.8663              1015.0808
 Red. masses --      7.4957                 4.9872                 3.2548
 Frc consts  --      4.0170                 2.9317                 1.9759
 IR Inten    --     13.9844                45.8943                 2.6048

                     31                     32                     33
                      A                      A                      A
 Frequencies --   1022.1363              1040.5574              1081.3989
 Red. masses --      5.5201                 2.3082                 1.5105
 Frc consts  --      3.3980                 1.4725                 1.0407
 IR Inten    --     12.1172                15.3601                 4.3275

                     34                     35                     36
                      A                      A                      A
 Frequencies --   1099.1782              1136.5178              1185.9508
 Red. masses --      2.3763                 1.8498                 2.5663
 Frc consts  --      1.6916                 1.4077                 2.1266
 IR Inten    --     16.5177                42.6755                18.4030

                     37                     38                     39
                      A                      A                      A
 Frequencies --   1234.7783              1298.1164              1325.0971
 Red. masses --      3.6990                 5.0465                 3.4383
 Frc consts  --      3.3228                 5.0104                 3.5571
 IR Inten    --    147.0682                45.1363               244.0691

                     40                     41                     42
                      A                      A                      A
 Frequencies --   1396.3339              1442.4575              1450.1738
 Red. masses --      3.0022                 1.2714                 5.8105
 Frc consts  --      3.4488                 1.5586                 7.1996
 IR Inten    --      3.4304                 8.9398               112.2618

                     43                     44                     45
                      A                      A                      A
 Frequencies --   1485.9209              1502.3397              1512.6919
 Red. masses --      5.3646                 1.0417                 1.2464
 Frc consts  --      6.9788                 1.3853                 1.6804
 IR Inten    --    273.7238                 7.8946                12.2825

                     46                     47                     48
                      A                      A                      A
 Frequencies --   1537.5811              1632.6008              1653.4542
 Red. masses --      4.6617                 1.9774                 6.4573
 Frc consts  --      6.4934                 3.1054                10.4013
 IR Inten    --      7.7996               142.1584                33.0043

                     49                     50                     51
                      A                      A                      A
 Frequencies --   1670.7664              1721.9379              3063.5902
 Red. masses --      2.4101                 4.3529                 1.0369
 Frc consts  --      3.9639                 7.6044                 5.7337
 IR Inten    --    263.6263               704.7428                11.8004

                     52                     53                     54
                      A                      A                      A
 Frequencies --   3122.2437              3156.5863              3284.5366
 Red. masses --      1.1017                 1.1018                 1.0982
 Frc consts  --      6.3274                 6.4682                 6.9801
 IR Inten    --      5.2964                 6.8064                 0.4150

                     55                     56                     57
                      A                      A                      A
 Frequencies --   3554.7691              3610.2015              3663.6188
 Red. masses --      1.0474                 1.0782                 1.1002
 Frc consts  --      7.7978                 8.2793                 8.7003
 IR Inten    --     48.1358                63.2799                33.6742

 - Thermochemistry -
 -------------------
 Temperature   298.150 Kelvin.  Pressure   1.00000 Atm.
 Atom     1 has atomic number  6 and mass  12.00000

 Molecular mass:   209.03713 amu.
 Principal axes and moments of inertia in atomic units:
                           1         2         3
     Eigenvalues --  1478.538075483.237266870.01551
           X            0.99998   0.00420  -0.00433
           Y           -0.00419   0.99999   0.00251
           Z            0.00434  -0.00250   0.99999
 This molecule is an asymmetric top.
 Rotational symmetry number  1.
 Warning -- assumption of classical behavior for rotation
           may cause significant error
 Rotational temperatures (Kelvin)      0.05858     0.01580     0.01261
 Rotational constants (GHZ):           1.22063     0.32914     0.26270
 Zero-point vibrational energy     394576.0 (Joules/Mol)
                                   94.30592 (Kcal/Mol)
 Warning -- explicit consideration of  18 degrees of freedom as
           vibrations may cause significant error
 Vibrational temperatures:     44.42    94.80   113.74   121.66   147.27
          (Kelvin)            262.11   301.79   333.36   410.04   483.41
                              497.66   539.99   559.32   662.01   688.34
                              789.91   820.53   871.35   900.89   924.24
                              977.68  1008.03  1054.84  1120.40  1150.63
                             1197.00  1354.99  1372.20  1437.15  1460.47
                             1470.63  1497.13  1555.89  1581.47  1635.20
                             1706.32  1776.57  1867.70  1906.52  2009.01
                             2075.37  2086.48  2137.91  2161.53  2176.43
                             2212.24  2348.95  2378.95  2403.86  2477.48
                             4407.82  4492.21  4541.62  4725.72  5114.52
                             5194.27  5271.13

 Zero-point correction=                           0.150286 (Hartree/Particle)
 Thermal correction to Energy=                    0.162824
 Thermal correction to Enthalpy=                  0.163769
 Thermal correction to Gibbs Free Energy=         0.109630
 Sum of electronic and zero-point Energies=          -1017.965202
 Sum of electronic and thermal Energies=             -1017.952664
 Sum of electronic and thermal Enthalpies=           -1017.951720
 Sum of electronic and thermal Free Energies=        -1018.005858

                     E (Thermal)             CV                S
                      KCal/Mol        Cal/Mol-Kelvin    Cal/Mol-Kelvin
 Total                  102.174             45.946            113.944
 Electronic               0.000              0.000              0.000
 Translational            0.889              2.981             41.916
 Rotational               0.889              2.981             32.388
 Vibrational            100.396             39.985             39.640
 Vibration     1          0.594              1.984              5.773
 Vibration     2          0.597              1.971              4.272
 Vibration     3          0.600              1.963              3.914
 Vibration     4          0.601              1.960              3.782
 Vibration     5          0.604              1.947              3.409
 Vibration     6          0.630              1.864              2.306
 Vibration     7          0.642              1.826              2.046
 Vibration     8          0.653              1.793              1.866
 Vibration     9          0.683              1.702              1.504
 Vibration    10          0.717              1.604              1.231
 Vibration    11          0.724              1.584              1.185
 Vibration    12          0.746              1.523              1.058
 Vibration    13          0.757              1.494              1.005
 Vibration    14          0.818              1.338              0.766
 Vibration    15          0.835              1.298              0.714
 Vibration    16          0.904              1.142              0.546
 Vibration    17          0.926              1.096              0.504
 Vibration    18          0.964              1.020              0.440

                           ! Non-Optimized Parameters !
 Normal termination of Gaussian 16 at Thu Dec 10 10:56:53 2020.

 ----------------------------------------------------------------------
 # B3LYP/6-311++G(d,p) empiricaldispersion=gd3bj scf=xqc pop=npa geom=c
 heck
 ----------------------------------------------------------------------

 --------------------------------------
 CID_83240439_JID_4903_Energie_neutraal
 --------------------------------------
 Structure from the checkpoint file:  "JID_4903.chk"
 Charge =  0 Multiplicity = 1

 SCF Done:  E(RB3LYP) =  -1018.31408958     A.U. after   16 cycles
 Normal termination of Gaussian 16 at Thu Dec 10 10:59:36 2020.

 ----------------------------------------------------------------------
 # B3LYP/6-311++G(d,p) empiricaldispersion=gd3bj scf=xqc pop=npa geom=c
 heck
 ----------------------------------------------------------------------

 ------------------------------------
 CID_83240439_JID_4903_Energie_kation
 ------------------------------------
 Structure from the checkpoint file:  "JID_4903.chk"
 Charge =  1 Multiplicity = 2

 SCF Done:  E(UB3LYP) =  -1018.04062177     A.U. after   25 cycles
 Normal termination of Gaussian 16 at Thu Dec 10 11:05:40 2020.
 Gaussian 16:  ES64L-G16RevA.03 25-Dec-2016

 ----------------------------------------------------------------------
 # B3LYP/6-311++G(d,p) empiricaldispersion=gd3bj scf=xqc pop=npa geom=c
 heck
 ----------------------------------------------------------------------

 -----------------------------------
 CID_83240439_JID_4903_Energie_anion
 -----------------------------------
 Structure from the checkpoint file:  "JID_4903.chk"
 Charge = -1 Multiplicity = 2

                         Standard orientation:
 ---------------------------------------------------------------------
 Center     Atomic      Atomic             Coordinates (Angstroms)
 Number     Number       Type             X           Y           Z
 ---------------------------------------------------------------------
      1          6           0       -4.967729    0.305798    0.292329
      2          6           0       -3.524983   -0.002373    0.104709
      3          6           0       -2.371865    0.695585    0.309578
      4          6           0       -1.343034   -0.225137   -0.055815
      5          7           0       -1.836845   -1.377428   -0.465408
      6          8           0       -3.215550   -1.233549   -0.360840
      7          6           0        0.111113   -0.000091   -0.030841
      8          7           0        0.951421   -0.952175    0.175638
      9          6           0        2.325646   -0.649894    0.135852
     10         16           0        3.429040   -1.882542    0.094491
     11          7           0        2.735637    0.680297    0.144843
     12          6           0        1.851943    1.601150   -0.070917
     13          7           0        0.506235    1.321409   -0.215806
     14          7           0        2.216084    2.915991   -0.213256
     15          1           0       -5.512844    0.206227   -0.652644
     16          1           0       -5.421785   -0.384052    1.011992
     17          1           0       -5.090173    1.326517    0.661655
     18          1           0       -2.270242    1.691769    0.713241
     19          1           0       -0.129170    1.996130   -0.620690
     20          1           0        3.195080    3.067741    0.000213
     21          1           0        1.594618    3.617848    0.169649
 ---------------------------------------------------------------------

 SCF Done:  E(UB3LYP) =  -1018.34397321     A.U. after   31 cycles

 The electronic state is 2-A.
 Alpha  occ. eigenvalues --  -88.62793 -19.07494 -14.24376 -14.23948 -14.21050
 Alpha  occ. eigenvalues --  -14.16984 -14.15352 -10.17532 -10.12754 -10.10803
 Alpha  occ. eigenvalues --  -10.10512 -10.09759 -10.07585 -10.06611  -7.71609
 Alpha  occ. eigenvalues --   -5.67933  -5.67627  -5.67086  -1.01747  -0.91017
 Alpha  occ. eigenvalues --   -0.82785  -0.78688  -0.75402  -0.73075  -0.69857
 Alpha  occ. eigenvalues --   -0.62223  -0.60210  -0.56485  -0.50719  -0.48452
 Alpha  occ. eigenvalues --   -0.46515  -0.45371  -0.42683  -0.39230  -0.39079
 Alpha  occ. eigenvalues --   -0.38621  -0.36849  -0.34313  -0.33830  -0.32435
 Alpha  occ. eigenvalues --   -0.31811  -0.29210  -0.26749  -0.24859  -0.22558
 Alpha  occ. eigenvalues --   -0.21332  -0.18337  -0.17566  -0.16836  -0.15474
 Alpha  occ. eigenvalues --   -0.14421  -0.11477  -0.07843  -0.04802   0.02603
 Alpha virt. eigenvalues --    0.05173   0.06356   0.08331   0.08700   0.09894
 Alpha virt. eigenvalues --    0.10253   0.11213   0.11671   0.11931   0.13274
 Alpha virt. eigenvalues --    0.14701   0.15340   0.15727   0.16121   0.16942

  Beta  occ. eigenvalues --  -88.62732 -19.07272 -14.24249 -14.23935 -14.20435
  Beta  occ. eigenvalues --  -14.16905 -14.15300 -10.17548 -10.12754 -10.10590
  Beta  occ. eigenvalues --  -10.10057 -10.09760 -10.07592 -10.06618  -7.71554
  Beta  occ. eigenvalues --   -5.67908  -5.67432  -5.67049  -1.01268  -0.90788
  Beta  occ. eigenvalues --   -0.82555  -0.78361  -0.74970  -0.72646  -0.69746
  Beta  occ. eigenvalues --   -0.62016  -0.59788  -0.56051  -0.50496  -0.48284
  Beta  occ. eigenvalues --   -0.46304  -0.45169  -0.42441  -0.39068  -0.38911
  Beta  occ. eigenvalues --   -0.38455  -0.36358  -0.34076  -0.33257  -0.32325
  Beta  occ. eigenvalues --   -0.31083  -0.29011  -0.26464  -0.23962  -0.22158
  Beta  occ. eigenvalues --   -0.20334  -0.17559  -0.16950  -0.16432  -0.14946
  Beta  occ. eigenvalues --   -0.12730  -0.11321  -0.06745  -0.04625
  Beta virt. eigenvalues --    0.05308   0.06312   0.08531   0.08806   0.09030
  Beta virt. eigenvalues --    0.10093   0.10368   0.11434   0.11725   0.12536
  Beta virt. eigenvalues --    0.13260   0.14705   0.15382   0.15783   0.16142

 Mulliken charges and spin densities:
               1          2
     1  C   -0.580803  -0.003358
     2  C   -0.163444  -0.037829
     3  C    0.117094   0.021352
     4  C   -0.096673  -0.012903
     5  N   -0.434153   0.278363
     6  O    0.187231   0.047431
     7  C   -0.220532   0.236566
     8  N    0.091131   0.019935
     9  C    0.171021   0.092786
    10  S   -0.845752   0.114018
    11  N   -0.137253   0.034935
    12  C    0.313169  -0.035478
    13  N   -0.294392   0.057340
    14  N   -0.266205  -0.017613
    15  H    0.150189   0.002225
    16  H    0.150190   0.004330
    17  H    0.143975  -0.001644
    18  H    0.078021   0.064162
    19  H    0.296171  -0.021126
    20  H    0.259187   0.018400
    21  H    0.081829   0.138106
 Sum of Mulliken charges =  -1.00000   1.00000

 Dipole moment (field-independent basis, Debye):
    X=             -8.5312    Y=             10.4551    Z=              0.5751  Tot=             13.5063
 Quadrupole moment (field-independent basis, Debye-Ang):
   XX=           -135.4276   YY=           -106.7558   ZZ=            -96.1952
   XY=             10.6304   XZ=             -2.9462   YZ=              0.2126

 Summary of Natural Population Analysis:

                                       Natural Population
                Natural  -----------------------------------------------
    Atom  No    Charge         Core      Valence    Rydberg      Total
 -----------------------------------------------------------------------
      C    1   -0.31757      0.99966     2.30810    0.00981     3.31757
      C    2    0.18056      0.99955     1.80680    0.01309     2.81944
      C    3   -0.17123      0.99947     2.16398    0.00778     3.17123
      C    4    0.02713      0.99960     1.95615    0.01712     2.97287
      N    5    0.04122      0.99968     2.44674    0.01236     3.45878
      O    6   -0.16449      0.99985     3.15102    0.01362     4.16449
      C    7    0.29005      0.99955     1.69543    0.01497     2.70995
      N    8   -0.24626      0.99962     2.73508    0.01156     3.74626
      C    9    0.13662      0.99967     1.84256    0.02114     2.86338
      S   10   -0.07975      4.99950     3.06471    0.01555     8.07975
      N   11   -0.28413      0.99961     2.77176    0.01276     3.78413
      C   12    0.30414      0.99963     1.67848    0.01775     2.69586
      N   13   -0.29802      0.99963     2.78769    0.01069     3.79802
      N   14   -0.40635      0.99970     2.89748    0.00917     3.90635
      H   15    0.10437      0.00000     0.39434    0.00128     0.39563
      H   16    0.10529      0.00000     0.39346    0.00124     0.39471
      H   17    0.10272      0.00000     0.39632    0.00097     0.39728
      H   18    0.10104      0.00000     0.39689    0.00207     0.39896
      H   19    0.19560      0.00000     0.30169    0.00271     0.30440
      H   20    0.19572      0.00000     0.30210    0.00218     0.30428
      H   21    0.18428      0.00000     0.31332    0.00240     0.31572
 =======================================================================
   * Total *    0.00096     17.99473    35.80409    0.20022    53.99904

 Normal termination of Gaussian 16 at Thu Dec 10 11:12:27 2020.
