 Gaussian 16, Revision A.03,

 -----------------------------------------------------------
 # opt freq B3LYP/6-31G(d) empiricaldispersion=gd3bj scf=xqc
 -----------------------------------------------------------

 -------------------------------
 CID_130833103_JID_3786_neutraal
 -------------------------------
 Symbolic Z-matrix:
 Charge =  0 Multiplicity = 1

 SCF Done:  E(RB3LYP) =  -981.297102484     A.U. after   17 cycles
 SCF Done:  E(RB3LYP) =  -981.300475317     A.U. after   17 cycles
 SCF Done:  E(RB3LYP) =  -981.297683959     A.U. after   16 cycles
 SCF Done:  E(RB3LYP) =  -981.301117407     A.U. after   16 cycles
 SCF Done:  E(RB3LYP) =  -981.302442207     A.U. after   15 cycles
 SCF Done:  E(RB3LYP) =  -981.303127889     A.U. after   14 cycles
 SCF Done:  E(RB3LYP) =  -981.303227557     A.U. after   14 cycles
 SCF Done:  E(RB3LYP) =  -981.303236722     A.U. after   11 cycles
 SCF Done:  E(RB3LYP) =  -981.303238914     A.U. after    9 cycles
 SCF Done:  E(RB3LYP) =  -981.303239048     A.U. after    9 cycles
 Optimization completed.
    -- Stationary point found.
 Normal termination of Gaussian 16 at Sun Dec 13 12:17:59 2020.

 --------------------------------------------------------------------
 #N Geom=AllCheck Guess=TCheck SCRF=Check GenChk RB3LYP/6-31G(d) Freq
 --------------------------------------------------------------------

 Structure from the checkpoint file:  "JID_3786.chk"
 -------------------------------
 CID_130833103_JID_3786_neutraal
 -------------------------------
 Charge =  0 Multiplicity = 1

 SCF Done:  E(RB3LYP) =  -981.303239048     A.U. after    1 cycles

  Exact polarizability: 126.293  -4.017 109.885  -0.005  -0.004  74.636
 Approx polarizability: 222.279  -0.445 205.110  -0.023  -0.011 127.985

                      1                      2                      3
                      A                      A                      A
 Frequencies --     46.4331                71.1132               107.4865
 Red. masses --     11.0675                13.2061                13.7367
 Frc consts  --      0.0141                 0.0393                 0.0935
 IR Inten    --      0.0253                 0.0675                 4.6738

                      4                      5                      6
                      A                      A                      A
 Frequencies --    122.9191               134.0806               165.6591
 Red. masses --     13.1923                12.3324                 7.0712
 Frc consts  --      0.1174                 0.1306                 0.1143
 IR Inten    --      0.0223                 5.5292                 0.6057

                      7                      8                      9
                      A                      A                      A
 Frequencies --    205.5208               274.3187               297.7596
 Red. masses --     12.0919                 9.4995                 9.2565
 Frc consts  --      0.3009                 0.4212                 0.4835
 IR Inten    --     11.2035                 0.5791                 6.0770

                     10                     11                     12
                      A                      A                      A
 Frequencies --    365.1751               375.1559               448.4843
 Red. masses --      8.0318                13.4032                 9.0118
 Frc consts  --      0.6311                 1.1114                 1.0680
 IR Inten    --      1.1367                 2.1657                 0.0905

                     13                     14                     15
                      A                      A                      A
 Frequencies --    459.2310               486.5495               506.9910
 Red. masses --     11.5952                 5.4355                 9.0261
 Frc consts  --      1.4408                 0.7581                 1.3670
 IR Inten    --      1.8134                 0.0151                 0.0413

                     16                     17                     18
                      A                      A                      A
 Frequencies --    570.1892               655.7688               664.8913
 Red. masses --     12.3145                 8.5765                 3.3644
 Frc consts  --      2.3589                 2.1730                 0.8763
 IR Inten    --      0.3183                 7.7704                15.8067

                     19                     20                     21
                      A                      A                      A
 Frequencies --    725.2954               729.4330               775.1570
 Red. masses --      2.8263                 7.8667                 2.4428
 Frc consts  --      0.8760                 2.4661                 0.8648
 IR Inten    --      3.0070                 1.8477                39.1564

                     22                     23                     24
                      A                      A                      A
 Frequencies --    821.9566               869.1246               899.8383
 Red. masses --     11.9557                 4.7226                 1.3000
 Frc consts  --      4.7591                 2.1018                 0.6202
 IR Inten    --     30.4245                11.6935                 0.7085

                     25                     26                     27
                      A                      A                      A
 Frequencies --    920.5350              1043.7130              1047.0734
 Red. masses --      7.0122                 3.8413                 3.7241
 Frc consts  --      3.5010                 2.4654                 2.4056
 IR Inten    --     19.8203                13.4772                 0.3514

                     28                     29                     30
                      A                      A                      A
 Frequencies --   1128.0499              1163.9345              1220.1218
 Red. masses --      1.8214                 2.8789                 1.6312
 Frc consts  --      1.3656                 2.2979                 1.4308
 IR Inten    --      0.2945                14.6565                 5.1993

                     31                     32                     33
                      A                      A                      A
 Frequencies --   1326.8721              1327.8630              1391.1874
 Red. masses --      1.3572                 1.4438                12.5887
 Frc consts  --      1.4078                 1.4999                14.3550
 IR Inten    --      5.0035                 2.8621               334.6758

                     34                     35                     36
                      A                      A                      A
 Frequencies --   1435.1158              1460.8545              1590.4323
 Red. masses --      3.5872                 5.4897                 6.8564
 Frc consts  --      4.3529                 6.9025                10.2182
 IR Inten    --      2.6088                56.8906                32.0419

                     37                     38                     39
                      A                      A                      A
 Frequencies --   1628.8758              2383.0548              2388.0665
 Red. masses --     13.0105                12.6698                12.6822
 Frc consts  --     20.3386                42.3925                42.6125
 IR Inten    --    204.9198                 0.0909                 0.5349

                     40                     41                     42
                      A                      A                      A
 Frequencies --   3047.7513              3230.3779              3274.7025
 Red. masses --      1.0812                 1.0923                 1.0967
 Frc consts  --      5.9173                 6.7155                 6.9293
 IR Inten    --      0.0627                 1.2156                 1.6025

 - Thermochemistry -
 -------------------
 Temperature   298.150 Kelvin.  Pressure   1.00000 Atm.
 Atom     1 has atomic number  6 and mass  12.00000

 Molecular mass:   192.99460 amu.
 Principal axes and moments of inertia in atomic units:
                           1         2         3
     Eigenvalues --  1771.296382896.897743424.57470
           X            0.99986  -0.01697  -0.00000
           Y            0.01697   0.99986  -0.00004
           Z            0.00000   0.00004   1.00000
 This molecule is an asymmetric top.
 Rotational symmetry number  1.
 Warning -- assumption of classical behavior for rotation
           may cause significant error
 Rotational temperatures (Kelvin)      0.04890     0.02990     0.02529
 Rotational constants (GHZ):           1.01888     0.62299     0.52700
 Zero-point vibrational energy     249942.4 (Joules/Mol)
                                   59.73768 (Kcal/Mol)
 Warning -- explicit consideration of  16 degrees of freedom as
           vibrations may cause significant error
 Vibrational temperatures:     66.81   102.32   154.65   176.85   192.91
          (Kelvin)            238.35   295.70   394.68   428.41   525.41
                              539.77   645.27   660.73   700.04   729.45
                              820.38   943.51   956.63  1043.54  1049.49
                             1115.28  1182.61  1250.48  1294.67  1324.44
                             1501.67  1506.51  1623.01  1674.64  1755.48
                             1909.07  1910.50  2001.61  2064.81  2101.84
                             2288.28  2343.59  3428.68  3435.90  4385.03
                             4647.79  4711.57

 Zero-point correction=                           0.095198 (Hartree/Particle)
 Thermal correction to Energy=                    0.106575
 Thermal correction to Enthalpy=                  0.107519
 Thermal correction to Gibbs Free Energy=         0.056724
 Sum of electronic and zero-point Energies=           -981.208041
 Sum of electronic and thermal Energies=              -981.196664
 Sum of electronic and thermal Enthalpies=            -981.195720
 Sum of electronic and thermal Free Energies=         -981.246515

                     E (Thermal)             CV                S
                      KCal/Mol        Cal/Mol-Kelvin    Cal/Mol-Kelvin
 Total                   66.877             40.397            106.909
 Electronic               0.000              0.000              0.000
 Translational            0.889              2.981             41.678
 Rotational               0.889              2.981             31.242
 Vibrational             65.099             34.435             33.989
 Vibration     1          0.595              1.979              4.964
 Vibration     2          0.598              1.968              4.122
 Vibration     3          0.606              1.943              3.314
 Vibration     4          0.610              1.930              3.054
 Vibration     5          0.613              1.919              2.887
 Vibration     6          0.624              1.885              2.484
 Vibration     7          0.640              1.832              2.083
 Vibration     8          0.677              1.721              1.569
 Vibration     9          0.691              1.678              1.429
 Vibration    10          0.738              1.544              1.100
 Vibration    11          0.746              1.523              1.059
 Vibration    12          0.807              1.364              0.800
 Vibration    13          0.817              1.340              0.768
 Vibration    14          0.843              1.280              0.693
 Vibration    15          0.862              1.235              0.641
 Vibration    16          0.926              1.096              0.504

 Optimization completed.
    -- Stationary point found.
 Normal termination of Gaussian 16 at Sun Dec 13 12:21:32 2020.

 ----------------------------------------------------------------------
 # B3LYP/6-311++G(d,p) empiricaldispersion=gd3bj scf=xqc pop=npa geom=c
 heck
 ----------------------------------------------------------------------

 ---------------------------------------
 CID_130833103_JID_3786_Energie_neutraal
 ---------------------------------------
 Structure from the checkpoint file:  "JID_3786.chk"
 Charge =  0 Multiplicity = 1

 SCF Done:  E(RB3LYP) =  -981.492770412     A.U. after   17 cycles
 Normal termination of Gaussian 16 at Sun Dec 13 12:22:45 2020.

 ----------------------------------------------------------------------
 # B3LYP/6-311++G(d,p) empiricaldispersion=gd3bj scf=xqc pop=npa geom=c
 heck
 ----------------------------------------------------------------------

 -------------------------------------
 CID_130833103_JID_3786_Energie_kation
 -------------------------------------
 Structure from the checkpoint file:  "JID_3786.chk"
 Charge =  1 Multiplicity = 2

 SCF Done:  E(UB3LYP) =  -981.113836034     A.U. after   33 cycles
 SCF Done:  E(UB3LYP) =  -981.113836034     a.u. after    1 cycles
 Normal termination of Gaussian 16 at Sun Dec 13 12:25:57 2020.
 Gaussian 16:  ES64L-G16RevA.03 25-Dec-2016

 ----------------------------------------------------------------------
 # B3LYP/6-311++G(d,p) empiricaldispersion=gd3bj scf=xqc pop=npa geom=c
 heck
 ----------------------------------------------------------------------

 ------------------------------------
 CID_130833103_JID_3786_Energie_anion
 ------------------------------------
 Structure from the checkpoint file:  "JID_3786.chk"
 Charge = -1 Multiplicity = 2

                         Standard orientation:
 ---------------------------------------------------------------------
 Center     Atomic      Atomic             Coordinates (Angstroms)
 Number     Number       Type             X           Y           Z
 ---------------------------------------------------------------------
      1          6           0        0.891925   -2.023165    0.000760
      2          6           0        2.225087   -1.695756    0.000196
      3         16           0        2.494253    0.006973    0.000085
      4          6           0        0.783576    0.280962   -0.000117
      5          6           0        0.042605   -0.883061    0.000304
      6          6           0       -1.476522   -1.006320    0.000431
      7          6           0       -2.085111   -0.454834   -1.224032
      8          7           0       -2.552354   -0.094184   -2.221146
      9          6           0       -2.084876   -0.453334    1.224308
     10          7           0       -2.552069   -0.091426    2.220988
     11          7           0        0.309228    1.634629   -0.000492
     12          8           0       -0.910846    1.806204   -0.000127
     13          8           0        1.160244    2.525604   -0.001176
     14          1           0        0.522327   -3.042289    0.001143
     15          1           0        3.068267   -2.373411    0.000308
     16          1           0       -1.707555   -2.080414    0.001059
 ---------------------------------------------------------------------

 SCF Done:  E(UB3LYP) =  -981.561079581     A.U. after   22 cycles

 The electronic state is 2-A.
 Alpha  occ. eigenvalues --  -88.75535 -18.96732 -18.96560 -14.35257 -14.20921
 Alpha  occ. eigenvalues --  -14.20917 -10.16405 -10.11286 -10.11283 -10.10206
 Alpha  occ. eigenvalues --  -10.07733 -10.07628 -10.07089  -7.84160  -5.80455
 Alpha  occ. eigenvalues --   -5.80089  -5.79778  -1.04978  -0.87922  -0.81509
 Alpha  occ. eigenvalues --   -0.80146  -0.77751  -0.71682  -0.64920  -0.61586
 Alpha  occ. eigenvalues --   -0.54233  -0.47089  -0.46246  -0.44105  -0.40499
 Alpha  occ. eigenvalues --   -0.38383  -0.37258  -0.34298  -0.33704  -0.31611
 Alpha  occ. eigenvalues --   -0.27850  -0.27265  -0.27011  -0.26194  -0.24255
 Alpha  occ. eigenvalues --   -0.24178  -0.23645  -0.22986  -0.21904  -0.15789
 Alpha  occ. eigenvalues --   -0.14651  -0.14472  -0.13317  -0.12557  -0.00013
 Alpha virt. eigenvalues --    0.07353   0.08496   0.10648   0.10789   0.11223
 Alpha virt. eigenvalues --    0.11940   0.12777   0.13540   0.13690   0.13879
 Alpha virt. eigenvalues --    0.14292   0.14831   0.15308   0.15751   0.17187

  Beta  occ. eigenvalues --  -88.75471 -18.96220 -18.96124 -14.34753 -14.20910
  Beta  occ. eigenvalues --  -14.20907 -10.16427 -10.11256 -10.11253 -10.10102
  Beta  occ. eigenvalues --  -10.07455 -10.07322 -10.07204  -7.84103  -5.80426
  Beta  occ. eigenvalues --   -5.80061  -5.79566  -1.04036  -0.87047  -0.81450
  Beta  occ. eigenvalues --   -0.80122  -0.77444  -0.71515  -0.64233  -0.61253
  Beta  occ. eigenvalues --   -0.53409  -0.46924  -0.45997  -0.43808  -0.40073
  Beta  occ. eigenvalues --   -0.38028  -0.34612  -0.33801  -0.33342  -0.31422
  Beta  occ. eigenvalues --   -0.27682  -0.26980  -0.26927  -0.25492  -0.24121
  Beta  occ. eigenvalues --   -0.23924  -0.23573  -0.22929  -0.21797  -0.14001
  Beta  occ. eigenvalues --   -0.13999  -0.12122  -0.12095  -0.11678
  Beta virt. eigenvalues --    0.06819   0.07342   0.08510   0.10727   0.11205
  Beta virt. eigenvalues --    0.11918   0.11997   0.13247   0.13562   0.13953
  Beta virt. eigenvalues --    0.13998   0.14893   0.15231   0.15467   0.15769

 Mulliken charges and spin densities:
               1          2
     1  C   -0.548766  -0.072846
     2  C    0.021225   0.194492
     3  S   -0.509005   0.110122
     4  C   -0.715251   0.041418
     5  C    1.173163   0.194722
     6  C    1.003303   0.000854
     7  C   -0.385792   0.003073
     8  N   -0.313796   0.002027
     9  C   -0.385263   0.003050
    10  N   -0.313876   0.002028
    11  N   -0.265652   0.182872
    12  O   -0.143748   0.183613
    13  O   -0.158605   0.162643
    14  H    0.112206   0.006770
    15  H    0.212104  -0.015224
    16  H    0.217752   0.000386
 Sum of Mulliken charges =  -1.00000   1.00000

 Dipole moment (field-independent basis, Debye):
    X=              2.5235    Y=             -7.6637    Z=              0.0030  Tot=              8.0685
 Quadrupole moment (field-independent basis, Debye-Ang):
   XX=           -106.3891   YY=            -98.6904   ZZ=           -103.5397
   XY=              0.9942   XZ=              0.0003   YZ=             -0.0065

 Summary of Natural Population Analysis:

                                       Natural Population
                Natural  -----------------------------------------------
    Atom  No    Charge         Core      Valence    Rydberg      Total
 -----------------------------------------------------------------------
      C    1   -0.15888      0.99950     2.15057    0.00880     3.15888
      C    2   -0.13616      0.99957     2.12532    0.01128     3.13616
      S    3    0.25963      4.99942     2.71834    0.02262     7.74037
      C    4   -0.01704      0.99934     1.99882    0.01889     3.01704
      C    5    0.00317      0.99940     1.98450    0.01293     2.99683
      C    6   -0.20591      0.99940     2.19636    0.01015     3.20591
      C    7    0.17643      0.99963     1.80551    0.01843     2.82357
      N    8   -0.17250      0.99978     2.66175    0.01097     3.67250
      C    9    0.17642      0.99963     1.80552    0.01843     2.82358
      N   10   -0.17249      0.99978     2.66174    0.01097     3.67249
      N   11    0.28417      0.99966     2.18916    0.02701     3.21583
      O   12   -0.17640      0.99990     3.16684    0.00967     4.17640
      O   13   -0.18939      0.99990     3.18219    0.00730     4.18939
      H   14    0.09890      0.00000     0.40007    0.00103     0.40110
      H   15    0.09888      0.00000     0.40020    0.00092     0.40112
      H   16    0.13118      0.00000     0.36725    0.00157     0.36882
 =======================================================================
   * Total *   -0.00000     16.99490    31.81414    0.19096    49.00000

 Normal termination of Gaussian 16 at Sun Dec 13 12:28:02 2020.
