 Gaussian 16, Revision A.03,

 -----------------------------------------------------------
 # opt freq B3LYP/6-31G(d) empiricaldispersion=gd3bj scf=xqc
 -----------------------------------------------------------

 -------------------------------
 CID_106566177_JID_8269_neutraal
 -------------------------------
 Symbolic Z-matrix:
 Charge =  0 Multiplicity = 1

 SCF Done:  E(RB3LYP) =  -767.005602533     A.U. after   14 cycles
 SCF Done:  E(RB3LYP) =  -767.014245843     A.U. after   12 cycles
 SCF Done:  E(RB3LYP) =  -767.015518448     A.U. after   11 cycles
 SCF Done:  E(RB3LYP) =  -767.016081675     A.U. after   11 cycles
 SCF Done:  E(RB3LYP) =  -767.016676786     A.U. after   12 cycles
 SCF Done:  E(RB3LYP) =  -767.017569581     A.U. after   12 cycles
 SCF Done:  E(RB3LYP) =  -767.018686811     A.U. after   13 cycles
 SCF Done:  E(RB3LYP) =  -767.019441391     A.U. after   12 cycles
 SCF Done:  E(RB3LYP) =  -767.011905438     A.U. after   15 cycles
 SCF Done:  E(RB3LYP) =  -767.018538917     A.U. after   12 cycles
 SCF Done:  E(RB3LYP) =  -767.020501390     A.U. after   11 cycles
 SCF Done:  E(RB3LYP) =  -767.020523869     A.U. after   10 cycles
 SCF Done:  E(RB3LYP) =  -767.020524311     A.U. after    9 cycles
 SCF Done:  E(RB3LYP) =  -767.020527750     A.U. after    9 cycles
 SCF Done:  E(RB3LYP) =  -767.020527797     A.U. after    6 cycles
 SCF Done:  E(RB3LYP) =  -767.020527847     A.U. after    7 cycles
 Optimization completed.
    -- Stationary point found.
 Normal termination of Gaussian 16 at Mon Dec 14 17:07:23 2020.

 --------------------------------------------------------------------
 #N Geom=AllCheck Guess=TCheck SCRF=Check GenChk RB3LYP/6-31G(d) Freq
 --------------------------------------------------------------------

 Structure from the checkpoint file:  "JID_8269.chk"
 -------------------------------
 CID_106566177_JID_8269_neutraal
 -------------------------------
 Charge =  0 Multiplicity = 1

 SCF Done:  E(RB3LYP) =  -767.020527847     A.U. after    1 cycles

  Exact polarizability: 192.589   2.890 168.945   3.904  -7.914 132.361
 Approx polarizability: 255.179   9.658 240.602   9.638 -22.179 205.191

                      1                      2                      3
                      A                      A                      A
 Frequencies --     21.1586                38.6206                49.7975
 Red. masses --      4.1671                 3.0602                 3.0009
 Frc consts  --      0.0011                 0.0027                 0.0044
 IR Inten    --      0.7288                 0.1132                 0.2317

                      4                      5                      6
                      A                      A                      A
 Frequencies --     56.8159                67.9997               106.0821
 Red. masses --      3.4657                 3.3615                 3.2273
 Frc consts  --      0.0066                 0.0092                 0.0214
 IR Inten    --      0.2588                 0.2369                 1.4054

                      7                      8                      9
                      A                      A                      A
 Frequencies --    120.2379               126.0315               136.6731
 Red. masses --      1.2257                 1.7712                 1.8593
 Frc consts  --      0.0104                 0.0166                 0.0205
 IR Inten    --      0.2462                 0.0347                 0.4778

                     10                     11                     12
                      A                      A                      A
 Frequencies --    167.7143               198.9386               222.2736
 Red. masses --      2.4174                 4.5209                 2.9123
 Frc consts  --      0.0401                 0.1054                 0.0848
 IR Inten    --      0.2200                 5.1597                 1.6033

                     13                     14                     15
                      A                      A                      A
 Frequencies --    240.8862               259.4919               293.7684
 Red. masses --      1.6313                 2.1808                 2.2407
 Frc consts  --      0.0558                 0.0865                 0.1139
 IR Inten    --      0.0847                 1.1696                 5.5072

                     16                     17                     18
                      A                      A                      A
 Frequencies --    314.1748               341.4094               361.4786
 Red. masses --      1.9944                 3.0529                 1.9349
 Frc consts  --      0.1160                 0.2097                 0.1490
 IR Inten    --      4.9176                 1.4891                 5.9720

                     19                     20                     21
                      A                      A                      A
 Frequencies --    409.6812               433.8540               475.4930
 Red. masses --      2.0471                 2.3591                 3.1359
 Frc consts  --      0.2024                 0.2616                 0.4177
 IR Inten    --     10.6319                 1.0693                12.2108

                     22                     23                     24
                      A                      A                      A
 Frequencies --    550.2418               571.5375               590.5058
 Red. masses --      3.4114                 3.3199                 2.8163
 Frc consts  --      0.6085                 0.6389                 0.5786
 IR Inten    --     17.5861                 5.3184                28.2979

                     25                     26                     27
                      A                      A                      A
 Frequencies --    606.2300               615.7902               642.3045
 Red. masses --      2.8367                 2.9054                 3.0549
 Frc consts  --      0.6142                 0.6491                 0.7426
 IR Inten    --      2.0337                 7.1803                 3.3284

                     28                     29                     30
                      A                      A                      A
 Frequencies --    659.3665               671.6407               677.2957
 Red. masses --      3.2861                 3.5806                 3.6456
 Frc consts  --      0.8417                 0.9516                 0.9853
 IR Inten    --      8.5157                 1.6819                 7.4896

                     31                     32                     33
                      A                      A                      A
 Frequencies --    701.8791               744.2181               787.2227
 Red. masses --      1.3355                 3.0575                 2.1656
 Frc consts  --      0.3876                 0.9977                 0.7907
 IR Inten    --     36.0520                 6.1688                 2.9798

                     34                     35                     36
                      A                      A                      A
 Frequencies --    810.7976               847.1196               861.8437
 Red. masses --      1.5520                 2.3169                 1.9747
 Frc consts  --      0.6011                 0.9796                 0.8642
 IR Inten    --      5.7836                 6.7114                 3.6005

                     37                     38                     39
                      A                      A                      A
 Frequencies --    873.6372               883.2373               912.3656
 Red. masses --      2.2065                 2.5428                 2.0935
 Frc consts  --      0.9922                 1.1687                 1.0268
 IR Inten    --      4.1197                 3.2655                 4.5601

                     40                     41                     42
                      A                      A                      A
 Frequencies --    917.7325               919.6040               934.9439
 Red. masses --      1.5224                 2.1269                 2.5891
 Frc consts  --      0.7554                 1.0597                 1.3334
 IR Inten    --      2.6783                10.6384                 5.6632

                     43                     44                     45
                      A                      A                      A
 Frequencies --    961.4724               984.5754              1015.1410
 Red. masses --      2.3380                 1.9420                 2.0571
 Frc consts  --      1.2734                 1.1092                 1.2490
 IR Inten    --      2.1339                 3.0416                 3.6741

                     46                     47                     48
                      A                      A                      A
 Frequencies --   1031.0973              1037.5776              1050.2793
 Red. masses --      2.2931                 2.9615                 1.8564
 Frc consts  --      1.4364                 1.8785                 1.2065
 IR Inten    --      5.2771                 2.3281                 1.0852

                     49                     50                     51
                      A                      A                      A
 Frequencies --   1055.1532              1069.9010              1080.3607
 Red. masses --      1.8660                 2.5862                 1.4755
 Frc consts  --      1.2240                 1.7442                 1.0147
 IR Inten    --      8.4800                11.5989                 2.3743

                     52                     53                     54
                      A                      A                      A
 Frequencies --   1098.6633              1108.4598              1114.1794
 Red. masses --      2.1119                 2.0372                 2.0249
 Frc consts  --      1.5020                 1.4748                 1.4811
 IR Inten    --      4.8001                 1.0287                 4.4523

                     55                     56                     57
                      A                      A                      A
 Frequencies --   1126.0978              1145.3294              1171.3617
 Red. masses --      1.8010                 2.2255                 2.1934
 Frc consts  --      1.3456                 1.7201                 1.7731
 IR Inten    --      8.1115                29.9877                10.1068

                     58                     59                     60
                      A                      A                      A
 Frequencies --   1196.3811              1211.8116              1220.9568
 Red. masses --      1.6849                 1.5851                 2.2101
 Frc consts  --      1.4209                 1.3714                 1.9412
 IR Inten    --     14.7700                 9.8533                26.9220

                     61                     62                     63
                      A                      A                      A
 Frequencies --   1224.2787              1239.9977              1254.4604
 Red. masses --      1.5935                 1.2846                 1.5071
 Frc consts  --      1.4072                 1.1638                 1.3973
 IR Inten    --     19.9850                25.1128                 3.7070

                     64                     65                     66
                      A                      A                      A
 Frequencies --   1275.6667              1285.9394              1308.6750
 Red. masses --      1.2757                 1.6878                 1.2996
 Frc consts  --      1.2231                 1.6445                 1.3114
 IR Inten    --      3.3478                 8.6726                19.8239

                     67                     68                     69
                      A                      A                      A
 Frequencies --   1313.9253              1328.3439              1337.2485
 Red. masses --      1.2740                 1.3929                 1.4466
 Frc consts  --      1.2958                 1.4481                 1.5241
 IR Inten    --      8.7783                 0.5044                12.1877

                     70                     71                     72
                      A                      A                      A
 Frequencies --   1341.5330              1352.7034              1357.7843
 Red. masses --      4.1553                 1.4926                 1.3290
 Frc consts  --      4.4062                 1.6091                 1.4436
 IR Inten    --     41.0268                 9.1333                 5.2912

                     73                     74                     75
                      A                      A                      A
 Frequencies --   1368.1154              1381.7333              1386.1729
 Red. masses --      1.2958                 2.1123                 1.2968
 Frc consts  --      1.4290                 2.3760                 1.4681
 IR Inten    --     17.0838                12.3843                 4.3599

                     76                     77                     78
                      A                      A                      A
 Frequencies --   1395.0918              1399.0493              1415.6237
 Red. masses --      1.3995                 1.5310                 1.4157
 Frc consts  --      1.6048                 1.7656                 1.6715
 IR Inten    --      1.6797                40.8724                 6.8167

                     79                     80                     81
                      A                      A                      A
 Frequencies --   1430.9371              1445.8777              1448.3072
 Red. masses --      1.4351                 1.3434                 1.3084
 Frc consts  --      1.7313                 1.6546                 1.6170
 IR Inten    --      3.5115                 4.1833                 7.3438

                     82                     83                     84
                      A                      A                      A
 Frequencies --   1461.2367              1500.3648              1506.1655
 Red. masses --      1.8682                 1.2954                 1.0447
 Frc consts  --      2.3502                 1.7181                 1.3963
 IR Inten    --     74.4449                52.3623                 4.6162

                     85                     86                     87
                      A                      A                      A
 Frequencies --   1509.8145              1513.7359              1515.6517
 Red. masses --      1.1073                 1.0830                 1.2145
 Frc consts  --      1.4872                 1.4621                 1.6438
 IR Inten    --      0.2607                 3.6226                27.7963

                     88                     89                     90
                      A                      A                      A
 Frequencies --   1518.3004              1526.5184              1529.1158
 Red. masses --      1.0890                 1.1136                 1.0857
 Frc consts  --      1.4791                 1.5290                 1.4957
 IR Inten    --      2.4510                 6.6069                16.1893

                     91                     92                     93
                      A                      A                      A
 Frequencies --   1531.4624              1533.3861              1538.4885
 Red. masses --      1.1108                 1.2709                 1.0666
 Frc consts  --      1.5349                 1.7606                 1.4874
 IR Inten    --      8.8557                22.5346                 8.3548

                     94                     95                     96
                      A                      A                      A
 Frequencies --   1558.4210              1586.0860              1629.6954
 Red. masses --      1.0935                 6.5756                 5.2724
 Frc consts  --      1.5648                 9.7463                 8.2504
 IR Inten    --      1.5097                99.2322                 8.0796

                     97                     98                     99
                      A                      A                      A
 Frequencies --   3018.6975              3039.0973              3042.4139
 Red. masses --      1.0591                 1.0956                 1.0609
 Frc consts  --      5.6864                 5.9621                 5.7856
 IR Inten    --     89.0482                 9.2658                22.9082

                    100                    101                    102
                      A                      A                      A
 Frequencies --   3044.4969              3046.7892              3056.8979
 Red. masses --      1.0364                 1.0757                 1.0409
 Frc consts  --      5.6600                 5.8832                 5.7306
 IR Inten    --     41.2335                22.1722                19.9861

                    103                    104                    105
                      A                      A                      A
 Frequencies --   3057.3633              3061.4490              3064.9064
 Red. masses --      1.0716                 1.0620                 1.0670
 Frc consts  --      5.9019                 5.8645                 5.9054
 IR Inten    --     15.6516                34.2480                57.0249

                    106                    107                    108
                      A                      A                      A
 Frequencies --   3068.5647              3077.0405              3082.3015
 Red. masses --      1.0791                 1.1027                 1.0621
 Frc consts  --      5.9867                 6.1516                 5.9452
 IR Inten    --     59.1285                27.7209                70.2377

                    109                    110                    111
                      A                      A                      A
 Frequencies --   3088.3437              3096.7278              3104.2116
 Red. masses --      1.0840                 1.1012                 1.0983
 Frc consts  --      6.0914                 6.2218                 6.2357
 IR Inten    --     42.9837                20.6170                28.5570

                    112                    113                    114
                      A                      A                      A
 Frequencies --   3113.7481              3124.0648              3124.7169
 Red. masses --      1.1050                 1.1027                 1.1015
 Frc consts  --      6.3123                 6.3411                 6.3366
 IR Inten    --     60.2435                27.3558                27.8934

                    115                    116                    117
                      A                      A                      A
 Frequencies --   3127.1637              3130.5102              3135.9676
 Red. masses --      1.1005                 1.1015                 1.0984
 Frc consts  --      6.3409                 6.3604                 6.3645
 IR Inten    --      7.1212                23.5117                23.1241

                    118                    119                    120
                      A                      A                      A
 Frequencies --   3136.6751              3276.1511              3515.2076
 Red. masses --      1.1032                 1.0975                 1.0744
 Frc consts  --      6.3948                 6.9407                 7.8217
 IR Inten    --     45.8551                 2.2280                 2.3496

 - Thermochemistry -
 -------------------
 Temperature   298.150 Kelvin.  Pressure   1.00000 Atm.
 Atom     1 has atomic number  6 and mass  12.00000

 Molecular mass:   248.20010 amu.
 Principal axes and moments of inertia in atomic units:
                           1         2         3
     Eigenvalues --  2809.745645955.665577410.18146
           X            0.99994   0.00608   0.00892
           Y           -0.00607   0.99998  -0.00057
           Z           -0.00892   0.00051   0.99996
 This molecule is an asymmetric top.
 Rotational symmetry number  1.
 Warning -- assumption of classical behavior for rotation
           may cause significant error
 Rotational temperatures (Kelvin)      0.03083     0.01454     0.01169
 Rotational constants (GHZ):           0.64231     0.30303     0.24355
 Zero-point vibrational energy     991610.4 (Joules/Mol)
                                  237.00057 (Kcal/Mol)
 Warning -- explicit consideration of  26 degrees of freedom as
           vibrations may cause significant error
 Vibrational temperatures:     30.44    55.57    71.65    81.75    97.84
          (Kelvin)            152.63   173.00   181.33   196.64   241.30
                              286.23   319.80   346.58   373.35   422.67
                              452.03   491.21   520.09   589.44   624.22
                              684.13   791.68   822.32   849.61   872.23
                              885.98   924.13   948.68   966.34   974.48
                             1009.85  1070.76  1132.64  1166.56  1218.82
                             1240.00  1256.97  1270.78  1312.69  1320.41
                             1323.11  1345.18  1383.34  1416.58  1460.56
                             1483.52  1492.84  1511.12  1518.13  1539.35
                             1554.40  1580.73  1594.83  1603.06  1620.20
                             1647.87  1685.33  1721.33  1743.53  1756.68
                             1761.46  1784.08  1804.89  1835.40  1850.18
                             1882.89  1890.45  1911.19  1924.00  1930.17
                             1946.24  1953.55  1968.41  1988.01  1994.39
                             2007.23  2012.92  2036.77  2058.80  2080.30
                             2083.79  2102.39  2158.69  2167.04  2172.29
                             2177.93  2180.68  2184.50  2196.32  2200.06
                             2203.43  2206.20  2213.54  2242.22  2282.02
                             2344.77  4343.23  4372.58  4377.35  4380.35
                             4383.65  4398.19  4398.86  4404.74  4409.72
                             4414.98  4427.18  4434.74  4443.44  4455.50
                             4466.27  4479.99  4494.83  4495.77  4499.29
                             4504.11  4511.96  4512.98  4713.65  5057.60

 Zero-point correction=                           0.377684 (Hartree/Particle)
 Thermal correction to Energy=                    0.395455
 Thermal correction to Enthalpy=                  0.396399
 Thermal correction to Gibbs Free Energy=         0.330479
 Sum of electronic and zero-point Energies=           -766.642843
 Sum of electronic and thermal Energies=              -766.625073
 Sum of electronic and thermal Enthalpies=            -766.624129
 Sum of electronic and thermal Free Energies=         -766.690049

                     E (Thermal)             CV                S
                      KCal/Mol        Cal/Mol-Kelvin    Cal/Mol-Kelvin
 Total                  248.152             68.108            138.740
 Electronic               0.000              0.000              0.000
 Translational            0.889              2.981             42.428
 Rotational               0.889              2.981             33.183
 Vibrational            246.374             62.146             63.129
 Vibration     1          0.593              1.985              6.522
 Vibration     2          0.594              1.981              5.329
 Vibration     3          0.595              1.978              4.825
 Vibration     4          0.596              1.975              4.565
 Vibration     5          0.598              1.969              4.210
 Vibration     6          0.605              1.944              3.339
 Vibration     7          0.609              1.932              3.097
 Vibration     8          0.611              1.927              3.006
 Vibration     9          0.614              1.917              2.850
 Vibration    10          0.624              1.882              2.461
 Vibration    11          0.637              1.841              2.143
 Vibration    12          0.648              1.807              1.940
 Vibration    13          0.658              1.778              1.796
 Vibration    14          0.668              1.747              1.665
 Vibration    15          0.689              1.685              1.452
 Vibration    16          0.702              1.647              1.340
 Vibration    17          0.721              1.593              1.206
 Vibration    18          0.736              1.552              1.116
 Vibration    19          0.774              1.449              0.928
 Vibration    20          0.795              1.396              0.846
 Vibration    21          0.832              1.304              0.722
 Vibration    22          0.906              1.139              0.544
 Vibration    23          0.928              1.093              0.501
 Vibration    24          0.948              1.052              0.466
 Vibration    25          0.965              1.019              0.439
 Vibration    26          0.975              0.998              0.423

                           ! Non-Optimized Parameters !
 Normal termination of Gaussian 16 at Mon Dec 14 17:31:53 2020.

 ----------------------------------------------------------------------
 # B3LYP/6-311++G(d,p) empiricaldispersion=gd3bj scf=xqc pop=npa geom=c
 heck
 ----------------------------------------------------------------------

 ---------------------------------------
 CID_106566177_JID_8269_Energie_neutraal
 ---------------------------------------
 Structure from the checkpoint file:  "JID_8269.chk"
 Charge =  0 Multiplicity = 1

 SCF Done:  E(RB3LYP) =  -767.225461256     A.U. after   14 cycles
 Normal termination of Gaussian 16 at Mon Dec 14 17:43:03 2020.

 ----------------------------------------------------------------------
 # B3LYP/6-311++G(d,p) empiricaldispersion=gd3bj scf=xqc pop=npa geom=c
 heck
 ----------------------------------------------------------------------

 -------------------------------------
 CID_106566177_JID_8269_Energie_kation
 -------------------------------------
 Structure from the checkpoint file:  "JID_8269.chk"
 Charge =  1 Multiplicity = 2

 SCF Done:  E(UB3LYP) =  -766.974099408     A.U. after   23 cycles
 Normal termination of Gaussian 16 at Mon Dec 14 18:09:41 2020.
 Gaussian 16:  ES64L-G16RevA.03 25-Dec-2016

 ----------------------------------------------------------------------
 # B3LYP/6-311++G(d,p) empiricaldispersion=gd3bj scf=xqc pop=npa geom=c
 heck
 ----------------------------------------------------------------------

 ------------------------------------
 CID_106566177_JID_8269_Energie_anion
 ------------------------------------
 Structure from the checkpoint file:  "JID_8269.chk"
 Charge = -1 Multiplicity = 2

                         Standard orientation:
 ---------------------------------------------------------------------
 Center     Atomic      Atomic             Coordinates (Angstroms)
 Number     Number       Type             X           Y           Z
 ---------------------------------------------------------------------
      1          6           0       -1.750485   -2.450122   -1.193656
      2          6           0       -3.024845   -2.373139   -0.350457
      3          6           0       -2.855249   -1.512694    0.908933
      4          7           0       -2.406569   -0.161814    0.602293
      5          6           0       -3.110486    0.781127   -0.141302
      6          6           0       -2.222439    1.783837   -0.429625
      7          7           0       -0.986961    1.492753    0.128252
      8          6           0       -1.126741    0.324266    0.726315
      9          7           0       -0.144042   -0.425975    1.378194
     10          6           0        1.270554   -0.137936    1.110965
     11          6           0        1.802610    1.294339    1.401491
     12          6           0        2.246991    1.822266    0.018492
     13          7           0        2.580289    0.643588   -0.787567
     14          6           0        1.634461   -0.406472   -0.385023
     15          6           0        2.383954   -1.718001   -0.620544
     16          6           0        3.821288   -1.354186   -0.210611
     17          6           0        3.956653    0.115707   -0.660383
     18          6           0       -2.447305    3.047686   -1.194055
     19          1           0       -1.479932   -1.462608   -1.580763
     20          1           0       -1.886697   -3.121418   -2.048099
     21          1           0       -0.904742   -2.814970   -0.600534
     22          1           0       -3.847620   -1.971649   -0.955434
     23          1           0       -3.333473   -3.376830   -0.029559
     24          1           0       -3.795247   -1.457992    1.470291
     25          1           0       -2.099610   -1.957917    1.560020
     26          1           0       -4.159289    0.654955   -0.365527
     27          1           0       -0.325595   -0.507771    2.374477
     28          1           0        1.809313   -0.854993    1.739288
     29          1           0        1.040603    1.928412    1.860303
     30          1           0        2.658233    1.234474    2.084985
     31          1           0        1.405864    2.340899   -0.448378
     32          1           0        3.098835    2.507664    0.063511
     33          1           0        0.719757   -0.337932   -0.981801
     34          1           0        1.961059   -2.549325   -0.046971
     35          1           0        2.344219   -1.986312   -1.682538
     36          1           0        3.929893   -1.428450    0.878339
     37          1           0        4.576479   -2.007879   -0.657860
     38          1           0        4.550128    0.703422    0.052988
     39          1           0        4.467496    0.180759   -1.630909
     40          1           0       -2.258960    3.929032   -0.569124
     41          1           0       -1.768040    3.111126   -2.052637
     42          1           0       -3.475457    3.105365   -1.565499
 ---------------------------------------------------------------------

 SCF Done:  E(UB3LYP) =  -767.213662245     A.U. after   32 cycles

 The electronic state is 2-A.
 Alpha  occ. eigenvalues --  -14.25895 -14.21882 -14.19603 -14.18355 -10.15119
 Alpha  occ. eigenvalues --  -10.10904 -10.10160 -10.09651 -10.09083 -10.09051
 Alpha  occ. eigenvalues --  -10.08843 -10.08279 -10.07579 -10.07473 -10.07465
 Alpha  occ. eigenvalues --  -10.07096 -10.06139 -10.05810  -0.92089  -0.84281
 Alpha  occ. eigenvalues --   -0.81205  -0.78603  -0.69507  -0.68429  -0.67026
 Alpha  occ. eigenvalues --   -0.65114  -0.61851  -0.61139  -0.58696  -0.56075
 Alpha  occ. eigenvalues --   -0.51076  -0.49895  -0.48775  -0.48535  -0.47124
 Alpha  occ. eigenvalues --   -0.44471  -0.41874  -0.40459  -0.38471  -0.37745
 Alpha  occ. eigenvalues --   -0.37474  -0.36042  -0.35713  -0.34895  -0.33606
 Alpha  occ. eigenvalues --   -0.33138  -0.32529  -0.31734  -0.30659  -0.30407
 Alpha  occ. eigenvalues --   -0.29157  -0.28669  -0.28291  -0.26910  -0.26704
 Alpha  occ. eigenvalues --   -0.26320  -0.25570  -0.25469  -0.24751  -0.24407
 Alpha  occ. eigenvalues --   -0.24226  -0.22704  -0.21727  -0.17477  -0.17215
 Alpha  occ. eigenvalues --   -0.16220  -0.11673  -0.10061   0.04181
 Alpha virt. eigenvalues --    0.06030   0.06733   0.07018   0.07815   0.08078
 Alpha virt. eigenvalues --    0.08349   0.09018   0.09722   0.10034   0.10462
 Alpha virt. eigenvalues --    0.10527   0.10921   0.11084   0.11977   0.12375

  Beta  occ. eigenvalues --  -14.25896 -14.21855 -14.19603 -14.18351 -10.15120
  Beta  occ. eigenvalues --  -10.10869 -10.10145 -10.09644 -10.09082 -10.09048
  Beta  occ. eigenvalues --  -10.08831 -10.08276 -10.07573 -10.07458 -10.07441
  Beta  occ. eigenvalues --  -10.07086 -10.06126 -10.05798  -0.92081  -0.84268
  Beta  occ. eigenvalues --   -0.81168  -0.78589  -0.69487  -0.68393  -0.67009
  Beta  occ. eigenvalues --   -0.65093  -0.61831  -0.61104  -0.58669  -0.56046
  Beta  occ. eigenvalues --   -0.51027  -0.49858  -0.48737  -0.48512  -0.47100
  Beta  occ. eigenvalues --   -0.44436  -0.41825  -0.40433  -0.38439  -0.37710
  Beta  occ. eigenvalues --   -0.37433  -0.36016  -0.35680  -0.34871  -0.33589
  Beta  occ. eigenvalues --   -0.33119  -0.32505  -0.31715  -0.30636  -0.30388
  Beta  occ. eigenvalues --   -0.29144  -0.28649  -0.28268  -0.26889  -0.26684
  Beta  occ. eigenvalues --   -0.26297  -0.25533  -0.25440  -0.24727  -0.24384
  Beta  occ. eigenvalues --   -0.24198  -0.22688  -0.21701  -0.17465  -0.17197
  Beta  occ. eigenvalues --   -0.16206  -0.11665  -0.10045
  Beta virt. eigenvalues --    0.06268   0.06650   0.07277   0.07480   0.08263
  Beta virt. eigenvalues --    0.08389   0.08829   0.09481   0.09856   0.10234
  Beta virt. eigenvalues --    0.10533   0.10891   0.11161   0.11263   0.12126

 Mulliken charges and spin densities:
               1          2
     1  C   -0.150709  -0.293314
     2  C    0.319353  -0.667015
     3  C    0.408424  -0.546987
     4  N    0.184758   0.061368
     5  C   -0.706541   0.198267
     6  C    1.032551  -0.571598
     7  N    0.018663   0.054695
     8  C   -0.358738  -0.509939
     9  N   -0.432595   0.292139
    10  C   -0.036656  -0.310172
    11  C    0.650580  -0.883835
    12  C   -0.662726   0.178473
    13  N    0.306022  -0.000864
    14  C   -0.323513   0.181830
    15  C   -0.421747  -0.064093
    16  C    0.250637  -0.678925
    17  C   -0.162682  -0.077698
    18  C    0.252773  -0.640033
    19  H    0.153939  -0.006041
    20  H   -0.124484   0.275272
    21  H    0.253225  -0.116493
    22  H    0.085691   0.044255
    23  H   -0.554036   0.715723
    24  H   -0.560885   0.763355
    25  H   -0.174981   0.330689
    26  H   -0.412022   0.564521
    27  H   -0.347998   0.632836
    28  H   -0.393144   0.644461
    29  H    0.165157   0.026056
    30  H   -0.173817   0.325999
    31  H    0.209598  -0.023630
    32  H    0.050889   0.101886
    33  H    0.242641   0.108598
    34  H   -0.145581   0.304596
    35  H    0.133673   0.017864
    36  H   -0.054083   0.194687
    37  H    0.044562   0.122141
    38  H    0.056299   0.065361
    39  H    0.080707   0.050000
    40  H    0.095624   0.051246
    41  H    0.133521   0.013539
    42  H    0.067651   0.070779
 Sum of Mulliken charges =  -1.00000   1.00000

 Dipole moment (field-independent basis, Debye):
    X=              3.1369    Y=              4.3306    Z=             -4.6436  Tot=              7.0822
 Quadrupole moment (field-independent basis, Debye-Ang):
   XX=           -182.1132   YY=           -160.5052   ZZ=           -155.2609
   XY=            -10.2570   XZ=              1.9891   YZ=              7.6750

 Summary of Natural Population Analysis:

                                       Natural Population
                Natural  -----------------------------------------------
    Atom  No    Charge         Core      Valence    Rydberg      Total
 -----------------------------------------------------------------------
      C    1   -0.28830      0.99966     2.28328    0.00537     3.28830
      C    2   -0.19164      0.99964     2.18451    0.00750     3.19164
      C    3   -0.08219      0.99960     2.07077    0.01182     3.08219
      N    4   -0.21797      0.99962     2.70598    0.01237     3.71797
      C    5   -0.04285      0.99947     2.03224    0.01114     3.04285
      C    6    0.05293      0.99955     1.93414    0.01338     2.94707
      N    7   -0.28880      0.99967     2.77987    0.00927     3.78880
      C    8    0.28982      0.99958     1.69308    0.01752     2.71018
      N    9   -0.33794      0.99967     2.82510    0.01316     3.83794
      C   10   -0.01333      0.99957     1.99745    0.01632     3.01333
      C   11   -0.21032      0.99961     2.20260    0.00811     3.21032
      C   12   -0.08506      0.99962     2.07526    0.01018     3.08506
      N   13   -0.28220      0.99973     2.77215    0.01032     3.78220
      C   14   -0.00714      0.99958     1.99360    0.01397     3.00714
      C   15   -0.19242      0.99961     2.18408    0.00873     3.19242
      C   16   -0.20065      0.99964     2.19360    0.00741     3.20065
      C   17   -0.08423      0.99963     2.07350    0.01110     3.08423
      C   18   -0.29363      0.99963     2.28934    0.00466     3.29363
      H   19    0.09933      0.00000     0.39935    0.00133     0.40067
      H   20    0.09724      0.00000     0.40196    0.00080     0.40276
      H   21    0.10158      0.00000     0.39715    0.00127     0.39842
      H   22    0.09387      0.00000     0.40489    0.00124     0.40613
      H   23    0.10037      0.00000     0.39799    0.00164     0.39963
      H   24    0.10036      0.00000     0.39727    0.00237     0.39964
      H   25    0.10864      0.00000     0.38868    0.00268     0.39136
      H   26    0.10263      0.00000     0.39632    0.00104     0.39737
      H   27    0.19268      0.00000     0.30341    0.00391     0.30732
      H   28    0.09863      0.00000     0.39847    0.00290     0.40137
      H   29    0.10907      0.00000     0.38970    0.00123     0.39093
      H   30    0.09528      0.00000     0.40352    0.00120     0.40472
      H   31    0.10537      0.00000     0.39311    0.00153     0.39463
      H   32    0.08931      0.00000     0.40977    0.00092     0.41069
      H   33    0.10380      0.00000     0.39382    0.00238     0.39620
      H   34    0.10587      0.00000     0.39297    0.00117     0.39413
      H   35    0.09687      0.00000     0.40218    0.00094     0.40313
      H   36    0.09775      0.00000     0.40081    0.00144     0.40225
      H   37    0.09823      0.00000     0.40086    0.00091     0.40177
      H   38    0.08930      0.00000     0.40959    0.00110     0.41070
      H   39    0.08571      0.00000     0.41305    0.00124     0.41429
      H   40    0.10162      0.00000     0.39724    0.00114     0.39838
      H   41    0.10256      0.00000     0.39636    0.00108     0.39744
      H   42    0.09984      0.00000     0.39950    0.00066     0.40016
 =======================================================================
   * Total *    0.00000     17.99307    49.77850    0.22843    68.00000

 Normal termination of Gaussian 16 at Mon Dec 14 18:45:59 2020.
