 Gaussian 16, Revision A.03,

 -----------------------------------------------------------
 # opt freq B3LYP/6-31G(d) empiricaldispersion=gd3bj scf=xqc
 -----------------------------------------------------------

 --------------------------------
 CID_110875143_JID_10897_neutraal
 --------------------------------
 Symbolic Z-matrix:
 Charge =  0 Multiplicity = 1

 SCF Done:  E(RB3LYP) =  -906.413344531     A.U. after   15 cycles
 SCF Done:  E(RB3LYP) =  -906.420380154     A.U. after   13 cycles
 SCF Done:  E(RB3LYP) =  -906.421446601     A.U. after   12 cycles
 SCF Done:  E(RB3LYP) =  -906.422074864     A.U. after   12 cycles
 SCF Done:  E(RB3LYP) =  -906.422351646     A.U. after   12 cycles
 SCF Done:  E(RB3LYP) =  -906.422695176     A.U. after   12 cycles
 SCF Done:  E(RB3LYP) =  -906.422902511     A.U. after   12 cycles
 SCF Done:  E(RB3LYP) =  -906.423230584     A.U. after   12 cycles
 SCF Done:  E(RB3LYP) =  -906.423341029     A.U. after   11 cycles
 SCF Done:  E(RB3LYP) =  -906.423365299     A.U. after   11 cycles
 SCF Done:  E(RB3LYP) =  -906.423385383     A.U. after   10 cycles
 SCF Done:  E(RB3LYP) =  -906.423387538     A.U. after   10 cycles
 SCF Done:  E(RB3LYP) =  -906.423388698     A.U. after    8 cycles
 SCF Done:  E(RB3LYP) =  -906.423389469     A.U. after    9 cycles
 SCF Done:  E(RB3LYP) =  -906.423389945     A.U. after    8 cycles
 SCF Done:  E(RB3LYP) =  -906.423390147     A.U. after    7 cycles
 Optimization completed.
    -- Stationary point found.
 Normal termination of Gaussian 16 at Sun Dec 13 13:26:30 2020.

 --------------------------------------------------------------------
 #N Geom=AllCheck Guess=TCheck SCRF=Check GenChk RB3LYP/6-31G(d) Freq
 --------------------------------------------------------------------

 Structure from the checkpoint file:  "JID_10897.chk"
 --------------------------------
 CID_110875143_JID_10897_neutraal
 --------------------------------
 Charge =  0 Multiplicity = 1

 SCF Done:  E(RB3LYP) =  -906.423390148     A.U. after    1 cycles

  Exact polarizability: 334.841  -3.752 175.394   4.412   3.963  73.134
 Approx polarizability: 466.363 -11.823 316.277  13.445  12.414 114.006

                      1                      2                      3
                      A                      A                      A
 Frequencies --     22.4246                28.3104                50.5046
 Red. masses --      5.1020                 5.5281                 4.2023
 Frc consts  --      0.0015                 0.0026                 0.0063
 IR Inten    --      0.6061                 0.1638                 3.3043

                      4                      5                      6
                      A                      A                      A
 Frequencies --     57.3909                81.1471               115.8405
 Red. masses --      7.2880                 5.8468                 6.1098
 Frc consts  --      0.0141                 0.0227                 0.0483
 IR Inten    --      1.6018                 1.2592                 0.6027

                      7                      8                      9
                      A                      A                      A
 Frequencies --    149.4336               177.1447               186.7894
 Red. masses --      4.9923                 1.1319                 6.0245
 Frc consts  --      0.0657                 0.0209                 0.1238
 IR Inten    --      0.2266                 0.0577                 1.2286

                     10                     11                     12
                      A                      A                      A
 Frequencies --    201.4541               230.5843               282.9725
 Red. masses --      4.5539                 6.9810                 5.9222
 Frc consts  --      0.1089                 0.2187                 0.2794
 IR Inten    --      1.4696                 0.2071                 3.3765

                     13                     14                     15
                      A                      A                      A
 Frequencies --    300.1326               357.5209               393.0743
 Red. masses --      6.3556                 3.9116                 6.1130
 Frc consts  --      0.3373                 0.2946                 0.5565
 IR Inten    --      1.6542                 0.4896                 9.3178

                     16                     17                     18
                      A                      A                      A
 Frequencies --    410.9917               423.8507               482.6666
 Red. masses --      5.8509                 3.3703                 5.2586
 Frc consts  --      0.5823                 0.3567                 0.7218
 IR Inten    --      8.5869                 2.6997                12.4866

                     19                     20                     21
                      A                      A                      A
 Frequencies --    491.8373               509.6949               521.6982
 Red. masses --      1.6452                 2.9268                 1.5623
 Frc consts  --      0.2345                 0.4480                 0.2505
 IR Inten    --     54.7382                 1.3968                40.4863

                     22                     23                     24
                      A                      A                      A
 Frequencies --    531.6432               549.0452               557.5871
 Red. masses --      1.1927                 2.7477                 8.8385
 Frc consts  --      0.1986                 0.4880                 1.6190
 IR Inten    --     81.3842                10.0403                 0.6667

                     25                     26                     27
                      A                      A                      A
 Frequencies --    569.5461               633.9588               649.7518
 Red. masses --      2.5081                 4.4529                 2.2685
 Frc consts  --      0.4794                 1.0544                 0.5643
 IR Inten    --     17.5503                15.0110                59.5491

                     28                     29                     30
                      A                      A                      A
 Frequencies --    657.8789               670.5892               686.2743
 Red. masses --      4.7842                 4.6292                 5.3838
 Frc consts  --      1.2200                 1.2265                 1.4940
 IR Inten    --     15.3449                13.4360                19.0033

                     31                     32                     33
                      A                      A                      A
 Frequencies --    687.2899               725.1541               790.6370
 Red. masses --      7.0633                 4.2695                 4.2680
 Frc consts  --      1.9658                 1.3228                 1.5719
 IR Inten    --      3.9580                 5.2395                 5.8020

                     34                     35                     36
                      A                      A                      A
 Frequencies --    804.1785               806.8219               824.8051
 Red. masses --      4.0941                 8.0589                 1.3790
 Frc consts  --      1.5599                 3.0909                 0.5527
 IR Inten    --     27.7781                10.4862                12.9101

                     37                     38                     39
                      A                      A                      A
 Frequencies --    848.2524               851.5549               860.9844
 Red. masses --      1.5575                 5.0389                 1.5642
 Frc consts  --      0.6603                 2.1528                 0.6832
 IR Inten    --      9.7787                 4.4181                32.6577

                     40                     41                     42
                      A                      A                      A
 Frequencies --    920.9339               933.6822               939.2325
 Red. masses --      6.7872                 4.1922                 1.3155
 Frc consts  --      3.3915                 2.1532                 0.6837
 IR Inten    --     40.5039                 6.4512                 0.4646

                     43                     44                     45
                      A                      A                      A
 Frequencies --    960.2607               979.5774               981.5859
 Red. masses --      4.1864                 1.4096                 1.3174
 Frc consts  --      2.2744                 0.7969                 0.7479
 IR Inten    --     95.3623                 2.3606                 0.2139

                     46                     47                     48
                      A                      A                      A
 Frequencies --   1038.2660              1039.4719              1067.9657
 Red. masses --      1.6786                 2.4106                 1.7126
 Frc consts  --      1.0662                 1.5346                 1.1509
 IR Inten    --     29.7954                 8.7303                11.2406

                     49                     50                     51
                      A                      A                      A
 Frequencies --   1099.8445              1129.7984              1153.9647
 Red. masses --      3.3052                 5.0820                 1.3580
 Frc consts  --      2.3556                 3.8220                 1.0654
 IR Inten    --      2.7824                23.3344                10.5461

                     52                     53                     54
                      A                      A                      A
 Frequencies --   1204.2392              1218.8254              1261.4083
 Red. masses --      3.4573                 1.1373                 2.1518
 Frc consts  --      2.9541                 0.9954                 2.0173
 IR Inten    --      4.1614                 1.0203                51.1738

                     55                     56                     57
                      A                      A                      A
 Frequencies --   1275.1328              1289.7275              1322.6031
 Red. masses --      2.0840                 2.4315                 3.4053
 Frc consts  --      1.9965                 2.3830                 3.5097
 IR Inten    --     13.6216                52.7887               177.6185

                     58                     59                     60
                      A                      A                      A
 Frequencies --   1348.3560              1350.9509              1354.7757
 Red. masses --      3.3263                 1.6004                 3.4239
 Frc consts  --      3.5631                 1.7209                 3.7026
 IR Inten    --     74.3919                21.4491               358.3321

                     61                     62                     63
                      A                      A                      A
 Frequencies --   1363.8507              1390.7168              1423.4742
 Red. masses --      2.8479                 3.8716                 2.2076
 Frc consts  --      3.1211                 4.4118                 2.6356
 IR Inten    --     13.4271                27.7702               170.8686

                     64                     65                     66
                      A                      A                      A
 Frequencies --   1427.4339              1441.0402              1452.7942
 Red. masses --      1.5800                 2.6889                 2.4250
 Frc consts  --      1.8968                 3.2899                 3.0156
 IR Inten    --     42.8029                 1.5659                 9.1714

                     67                     68                     69
                      A                      A                      A
 Frequencies --   1488.4204              1502.8082              1507.5256
 Red. masses --      2.4012                 1.0708                 2.2983
 Frc consts  --      3.1342                 1.4248                 3.0774
 IR Inten    --     91.8820                11.6552                64.4502

                     70                     71                     72
                      A                      A                      A
 Frequencies --   1517.8672              1533.0025              1563.3500
 Red. masses --      1.1775                 3.6564                 2.5997
 Frc consts  --      1.5984                 5.0628                 3.7435
 IR Inten    --     14.8365               289.2318               255.2103

                     73                     74                     75
                      A                      A                      A
 Frequencies --   1582.7697              1629.9146              1640.9638
 Red. masses --      3.6149                 6.0970                 7.0802
 Frc consts  --      5.3356                 9.5433                11.2330
 IR Inten    --    255.6897               544.5480               123.1208

                     76                     77                     78
                      A                      A                      A
 Frequencies --   1670.5588              1678.9893              1794.9140
 Red. masses --      2.9622                 5.9012                 7.9816
 Frc consts  --      4.8706                 9.8014                15.1506
 IR Inten    --    463.7809                 1.1331               522.8310

                     79                     80                     81
                      A                      A                      A
 Frequencies --   3068.8015              3137.3440              3172.2207
 Red. masses --      1.0396                 1.0966                 1.0898
 Frc consts  --      5.7682                 6.3593                 6.4615
 IR Inten    --      3.2782                 8.2219                21.6200

                     82                     83                     84
                      A                      A                      A
 Frequencies --   3174.3285              3193.9072              3194.5550
 Red. masses --      1.1037                 1.0907                 1.0909
 Frc consts  --      6.5522                 6.5553                 6.5595
 IR Inten    --      9.7223                 7.6698                33.1414

                     85                     86                     87
                      A                      A                      A
 Frequencies --   3229.2644              3249.1968              3278.4704
 Red. masses --      1.0921                 1.0955                 1.0920
 Frc consts  --      6.7097                 6.8145                 6.9157
 IR Inten    --     10.2797                 5.5991                11.1111

                     88                     89                     90
                      A                      A                      A
 Frequencies --   3581.2058              3616.0494              3668.6288
 Red. masses --      1.0754                 1.0760                 1.0815
 Frc consts  --      8.1259                 8.2893                 8.5758
 IR Inten    --     25.0682                20.2730               117.8643

 - Thermochemistry -
 -------------------
 Temperature   298.150 Kelvin.  Pressure   1.00000 Atm.
 Atom     1 has atomic number  6 and mass  12.00000

 Molecular mass:   268.10726 amu.
 Principal axes and moments of inertia in atomic units:
                           1         2         3
     Eigenvalues --  1425.44700********************
           X            0.99999   0.00447  -0.00314
           Y           -0.00450   0.99996  -0.00804
           Z            0.00311   0.00805   0.99996
 This molecule is an asymmetric top.
 Rotational symmetry number  1.
 Warning -- assumption of classical behavior for rotation
           may cause significant error
 Rotational temperatures (Kelvin)      0.06076     0.00581     0.00539
 Rotational constants (GHZ):           1.26609     0.12100     0.11223
 Zero-point vibrational energy     653318.9 (Joules/Mol)
                                  156.14696 (Kcal/Mol)
 Warning -- explicit consideration of  25 degrees of freedom as
           vibrations may cause significant error
 Vibrational temperatures:     32.26    40.73    72.66    82.57   116.75
          (Kelvin)            166.67   215.00   254.87   268.75   289.85
                              331.76   407.13   431.82   514.39   565.55
                              591.33   609.83   694.45   707.64   733.34
                              750.61   764.92   789.95   802.24   819.45
                              912.13   934.85   946.54   964.83   987.40
                              988.86  1043.33  1137.55  1157.03  1160.84
                             1186.71  1220.45  1225.20  1238.76  1325.02
                             1343.36  1351.35  1381.60  1409.39  1412.28
                             1493.83  1495.57  1536.56  1582.43  1625.53
                             1660.30  1732.63  1753.62  1814.89  1834.63
                             1855.63  1902.93  1939.98  1943.72  1949.22
                             1962.28  2000.93  2048.06  2053.76  2073.34
                             2090.25  2141.51  2162.21  2168.99  2183.87
                             2205.65  2249.31  2277.25  2345.08  2360.98
                             2403.56  2415.69  2582.48  4415.32  4513.94
                             4564.12  4567.15  4595.32  4596.25  4646.19
                             4674.87  4716.99  5152.56  5202.69  5278.34

 Zero-point correction=                           0.248836 (Hartree/Particle)
 Thermal correction to Energy=                    0.265221
 Thermal correction to Enthalpy=                  0.266165
 Thermal correction to Gibbs Free Energy=         0.202614
 Sum of electronic and zero-point Energies=           -906.174554
 Sum of electronic and thermal Energies=              -906.158169
 Sum of electronic and thermal Enthalpies=            -906.157225
 Sum of electronic and thermal Free Energies=         -906.220776

                     E (Thermal)             CV                S
                      KCal/Mol        Cal/Mol-Kelvin    Cal/Mol-Kelvin
 Total                  166.429             63.322            133.754
 Electronic               0.000              0.000              0.000
 Translational            0.889              2.981             42.658
 Rotational               0.889              2.981             34.191
 Vibrational            164.651             57.360             56.905
 Vibration     1          0.593              1.985              6.407
 Vibration     2          0.593              1.984              5.944
 Vibration     3          0.595              1.977              4.798
 Vibration     4          0.596              1.975              4.545
 Vibration     5          0.600              1.962              3.863
 Vibration     6          0.608              1.936              3.169
 Vibration     7          0.618              1.903              2.679
 Vibration     8          0.628              1.870              2.358
 Vibration     9          0.632              1.858              2.259
 Vibration    10          0.638              1.838              2.120
 Vibration    11          0.652              1.794              1.874
 Vibration    12          0.682              1.705              1.516
 Vibration    13          0.693              1.673              1.416
 Vibration    14          0.733              1.560              1.133
 Vibration    15          0.760              1.485              0.988
 Vibration    16          0.775              1.446              0.923
 Vibration    17          0.786              1.418              0.879
 Vibration    18          0.839              1.288              0.703
 Vibration    19          0.848              1.268              0.679
 Vibration    20          0.865              1.229              0.634
 Vibration    21          0.877              1.202              0.606
 Vibration    22          0.887              1.180              0.584
 Vibration    23          0.904              1.142              0.546
 Vibration    24          0.913              1.123              0.529
 Vibration    25          0.926              1.097              0.505

                           ! Non-Optimized Parameters !
 Normal termination of Gaussian 16 at Sun Dec 13 13:39:28 2020.

 ----------------------------------------------------------------------
 # B3LYP/6-311++G(d,p) empiricaldispersion=gd3bj scf=xqc pop=npa geom=c
 heck
 ----------------------------------------------------------------------

 ----------------------------------------
 CID_110875143_JID_10897_Energie_neutraal
 ----------------------------------------
 Structure from the checkpoint file:  "JID_10897.chk"
 Charge =  0 Multiplicity = 1

 SCF Done:  E(RB3LYP) =  -906.669666042     A.U. after   15 cycles
 Normal termination of Gaussian 16 at Sun Dec 13 13:44:17 2020.

 ----------------------------------------------------------------------
 # B3LYP/6-311++G(d,p) empiricaldispersion=gd3bj scf=xqc pop=npa geom=c
 heck
 ----------------------------------------------------------------------

 --------------------------------------
 CID_110875143_JID_10897_Energie_kation
 --------------------------------------
 Structure from the checkpoint file:  "JID_10897.chk"
 Charge =  1 Multiplicity = 2

 SCF Done:  E(UB3LYP) =  -906.392364190     A.U. after   23 cycles
 Normal termination of Gaussian 16 at Sun Dec 13 13:53:54 2020.
 Gaussian 16:  ES64L-G16RevA.03 25-Dec-2016

 ----------------------------------------------------------------------
 # B3LYP/6-311++G(d,p) empiricaldispersion=gd3bj scf=xqc pop=npa geom=c
 heck
 ----------------------------------------------------------------------

 -------------------------------------
 CID_110875143_JID_10897_Energie_anion
 -------------------------------------
 Structure from the checkpoint file:  "JID_10897.chk"
 Charge = -1 Multiplicity = 2

                         Standard orientation:
 ---------------------------------------------------------------------
 Center     Atomic      Atomic             Coordinates (Angstroms)
 Number     Number       Type             X           Y           Z
 ---------------------------------------------------------------------
      1          6           0       -5.385970   -1.190140    1.114704
      2          6           0       -5.633076   -0.012636    0.190856
      3          8           0       -6.752580    0.437103   -0.004994
      4          7           0       -4.542626    0.565688   -0.434140
      5          6           0       -3.165812    0.259827   -0.349764
      6          6           0       -2.239841    1.299310   -0.200741
      7          6           0       -0.871115    1.057652   -0.149309
      8          6           0       -0.396853   -0.260540   -0.228320
      9          6           0       -1.321457   -1.304771   -0.382878
     10          6           0       -2.684409   -1.050347   -0.461313
     11          7           0        0.961675   -0.621315   -0.171760
     12          6           0        2.094289    0.129857   -0.026660
     13          7           0        2.025716    1.460200    0.097578
     14          6           0        3.176023    2.150081    0.239105
     15          7           0        4.422686    1.692587    0.276066
     16          6           0        4.466109    0.354715    0.149309
     17          6           0        3.362351   -0.508906   -0.006178
     18          6           0        3.933317   -1.812055   -0.095512
     19          7           0        5.253401   -1.763147   -0.004882
     20          7           0        5.564522   -0.444400    0.143287
     21          1           0       -6.205275   -1.216288    1.834950
     22          1           0       -4.427141   -1.128924    1.635400
     23          1           0       -5.406497   -2.127897    0.548126
     24          1           0       -4.796688    1.412035   -0.930737
     25          1           0       -2.600275    2.320819   -0.114679
     26          1           0       -0.166976    1.868115   -0.034646
     27          1           0       -0.968027   -2.330390   -0.466195
     28          1           0       -3.373201   -1.870097   -0.628142
     29          1           0        1.129334   -1.614312   -0.255236
     30          1           0        3.056936    3.226796    0.335460
     31          1           0        3.449966   -2.772569   -0.220213
     32          1           0        6.529515   -0.163673    0.233016
 ---------------------------------------------------------------------

 SCF Done:  E(UB3LYP) =  -906.683950788     A.U. after   32 cycles

 The electronic state is 2-A.
 Alpha  occ. eigenvalues --  -18.99314 -14.25951 -14.24691 -14.23681 -14.20502
 Alpha  occ. eigenvalues --  -14.16848 -14.16563 -10.17966 -10.11447 -10.10847
 Alpha  occ. eigenvalues --  -10.10281 -10.09767 -10.09441 -10.08832 -10.07381
 Alpha  occ. eigenvalues --  -10.07305 -10.07040 -10.06927 -10.05502 -10.05019
 Alpha  occ. eigenvalues --   -0.94698  -0.92704  -0.86368  -0.83572  -0.82612
 Alpha  occ. eigenvalues --   -0.75439  -0.73218  -0.69682  -0.66752  -0.65704
 Alpha  occ. eigenvalues --   -0.64400  -0.62937  -0.55740  -0.53121  -0.51858
 Alpha  occ. eigenvalues --   -0.50502  -0.49349  -0.47872  -0.45082  -0.43670
 Alpha  occ. eigenvalues --   -0.42872  -0.38994  -0.38162  -0.37187  -0.36285
 Alpha  occ. eigenvalues --   -0.34533  -0.34125  -0.33961  -0.33551  -0.32221
 Alpha  occ. eigenvalues --   -0.31827  -0.31548  -0.31023  -0.30564  -0.29775
 Alpha  occ. eigenvalues --   -0.28611  -0.28472  -0.26766  -0.24519  -0.24156
 Alpha  occ. eigenvalues --   -0.20116  -0.18661  -0.16917  -0.16714  -0.16303
 Alpha  occ. eigenvalues --   -0.15584  -0.14550  -0.13047  -0.12944  -0.09099
 Alpha  occ. eigenvalues --    0.03668
 Alpha virt. eigenvalues --    0.06595   0.07725   0.07965   0.08614   0.08939
 Alpha virt. eigenvalues --    0.09080   0.09450   0.10097   0.10943   0.11814
 Alpha virt. eigenvalues --    0.11880   0.12161   0.12580   0.12918   0.13155

  Beta  occ. eigenvalues --  -18.99242 -14.25930 -14.24733 -14.23759 -14.20105
  Beta  occ. eigenvalues --  -14.16922 -14.16261 -10.17889 -10.11485 -10.10337
  Beta  occ. eigenvalues --  -10.10125 -10.09546 -10.09268 -10.08838 -10.07317
  Beta  occ. eigenvalues --  -10.07311 -10.07007 -10.06946 -10.05448 -10.05044
  Beta  occ. eigenvalues --   -0.94567  -0.92406  -0.86059  -0.83451  -0.82321
  Beta  occ. eigenvalues --   -0.75106  -0.73084  -0.69443  -0.66391  -0.65616
  Beta  occ. eigenvalues --   -0.64279  -0.62709  -0.55263  -0.52929  -0.51645
  Beta  occ. eigenvalues --   -0.50372  -0.49190  -0.47736  -0.44925  -0.43590
  Beta  occ. eigenvalues --   -0.42759  -0.38869  -0.38021  -0.36926  -0.36108
  Beta  occ. eigenvalues --   -0.34430  -0.33861  -0.33443  -0.33394  -0.32146
  Beta  occ. eigenvalues --   -0.31771  -0.31485  -0.30939  -0.29845  -0.29652
  Beta  occ. eigenvalues --   -0.28465  -0.28268  -0.25931  -0.24412  -0.23289
  Beta  occ. eigenvalues --   -0.19272  -0.18237  -0.16830  -0.16306  -0.15981
  Beta  occ. eigenvalues --   -0.15211  -0.13907  -0.12868  -0.11819  -0.08370
  Beta virt. eigenvalues --    0.06558   0.07754   0.07985   0.08604   0.08799
  Beta virt. eigenvalues --    0.08956   0.09377   0.10052   0.10478   0.11004
  Beta virt. eigenvalues --    0.11853   0.12085   0.12252   0.12657   0.13079

 Mulliken charges and spin densities:
               1          2
     1  C   -0.451382  -0.009588
     2  C    0.084509   0.031351
     3  O   -0.368365   0.025122
     4  N   -0.196400  -0.012410
     5  C   -0.221329   0.069832
     6  C   -0.115020   0.013360
     7  C   -0.156391   0.054553
     8  C    0.061518   0.050398
     9  C   -0.193425   0.026836
    10  C   -0.318556   0.056619
    11  N    0.077034  -0.037484
    12  C   -0.046426   0.280783
    13  N   -0.258239  -0.036068
    14  C   -0.010255   0.126407
    15  N   -0.190097   0.133422
    16  C   -0.048673  -0.012397
    17  C   -0.162277   0.001284
    18  C   -0.413013   0.042226
    19  N   -0.268130   0.178364
    20  N   -0.105352  -0.004797
    21  H    0.162027  -0.001594
    22  H    0.171240   0.000773
    23  H    0.139211   0.019898
    24  H    0.257877   0.022802
    25  H    0.147300   0.002897
    26  H    0.269527  -0.001978
    27  H    0.093669   0.002979
    28  H    0.145141  -0.003588
    29  H    0.310633  -0.001558
    30  H    0.158914  -0.012036
    31  H    0.145660  -0.005750
    32  H    0.299072  -0.000657
 Sum of Mulliken charges =  -1.00000   1.00000

 Dipole moment (field-independent basis, Debye):
    X=             -2.1675    Y=             -2.3864    Z=              0.1195  Tot=              3.2260
 Quadrupole moment (field-independent basis, Debye-Ang):
   XX=           -241.6180   YY=           -128.4058   ZZ=           -125.0412
   XY=              8.1786   XZ=             -2.8949   YZ=             -1.0888

 Summary of Natural Population Analysis:

                                       Natural Population
                Natural  -----------------------------------------------
    Atom  No    Charge         Core      Valence    Rydberg      Total
 -----------------------------------------------------------------------
      C    1   -0.33522      0.99963     2.33141    0.00418     3.33522
      C    2    0.35060      0.99972     1.62888    0.02080     2.64940
      O    3   -0.32380      0.99988     3.31714    0.00678     4.32380
      N    4   -0.31738      0.99965     2.80732    0.01041     3.81738
      C    5    0.08427      0.99947     1.90654    0.00972     2.91573
      C    6   -0.10790      0.99954     2.10045    0.00790     3.10790
      C    7   -0.10491      0.99954     2.09669    0.00868     3.10491
      C    8    0.10346      0.99948     1.88707    0.00999     2.89654
      C    9   -0.10872      0.99955     2.10124    0.00793     3.10872
      C   10   -0.11401      0.99954     2.10635    0.00811     3.11401
      N   11   -0.28804      0.99961     2.77964    0.00879     3.78804
      C   12    0.30597      0.99943     1.68141    0.01320     2.69403
      N   13   -0.30851      0.99968     2.79852    0.01031     3.80851
      C   14    0.17170      0.99969     1.80839    0.02022     2.82830
      N   15   -0.24564      0.99967     2.73357    0.01240     3.74564
      C   16    0.18197      0.99950     1.80335    0.01519     2.81803
      C   17   -0.12337      0.99947     2.11645    0.00746     3.12337
      C   18   -0.01029      0.99964     1.99545    0.01521     3.01029
      N   19   -0.09914      0.99973     2.58435    0.01506     3.59914
      N   20   -0.18598      0.99965     2.67385    0.01248     3.68598
      H   21    0.10860      0.00000     0.39039    0.00102     0.39140
      H   22    0.11185      0.00000     0.38736    0.00079     0.38815
      H   23    0.10779      0.00000     0.39140    0.00082     0.39221
      H   24    0.19564      0.00000     0.30276    0.00160     0.30436
      H   25    0.09590      0.00000     0.40311    0.00099     0.40410
      H   26    0.12533      0.00000     0.37354    0.00113     0.37467
      H   27    0.09198      0.00000     0.40656    0.00146     0.40802
      H   28    0.09754      0.00000     0.40116    0.00130     0.40246
      H   29    0.18800      0.00000     0.31004    0.00196     0.31200
      H   30    0.07089      0.00000     0.42782    0.00129     0.42911
      H   31    0.08897      0.00000     0.40992    0.00111     0.41103
      H   32    0.19249      0.00000     0.30492    0.00259     0.30751
 =======================================================================
   * Total *    0.00004     19.99205    49.76704    0.24088    69.99996

 Normal termination of Gaussian 16 at Sun Dec 13 14:06:44 2020.
