 Gaussian 16, Revision A.03,

 -----------------------------------------------------------
 # opt freq B3LYP/6-31G(d) empiricaldispersion=gd3bj scf=xqc
 -----------------------------------------------------------

 ------------------------------
 CID_13799657_JID_3775_neutraal
 ------------------------------
 Symbolic Z-matrix:
 Charge =  0 Multiplicity = 1

 SCF Done:  E(RB3LYP) =  -926.855808034     A.U. after   15 cycles
 SCF Done:  E(RB3LYP) =  -926.864038266     A.U. after   13 cycles
 SCF Done:  E(RB3LYP) =  -926.865687255     A.U. after   13 cycles
 SCF Done:  E(RB3LYP) =  -926.866007511     A.U. after   12 cycles
 SCF Done:  E(RB3LYP) =  -926.866119745     A.U. after   12 cycles
 SCF Done:  E(RB3LYP) =  -926.866197320     A.U. after   12 cycles
 SCF Done:  E(RB3LYP) =  -926.866268734     A.U. after   12 cycles
 SCF Done:  E(RB3LYP) =  -926.866403415     A.U. after   13 cycles
 SCF Done:  E(RB3LYP) =  -926.866505684     A.U. after   12 cycles
 SCF Done:  E(RB3LYP) =  -926.866623426     A.U. after   12 cycles
 SCF Done:  E(RB3LYP) =  -926.866843966     A.U. after   10 cycles
 SCF Done:  E(RB3LYP) =  -926.866844133     A.U. after    8 cycles
 SCF Done:  E(RB3LYP) =  -926.866844500     A.U. after    8 cycles
 SCF Done:  E(RB3LYP) =  -926.866844583     A.U. after    8 cycles
 SCF Done:  E(RB3LYP) =  -926.866844640     A.U. after    7 cycles
 Optimization completed.
    -- Stationary point found.
 Normal termination of Gaussian 16 at Mon Dec 14 13:16:06 2020.

 --------------------------------------------------------------------
 #N Geom=AllCheck Guess=TCheck SCRF=Check GenChk RB3LYP/6-31G(d) Freq
 --------------------------------------------------------------------

 Structure from the checkpoint file:  "JID_3775.chk"
 ------------------------------
 CID_13799657_JID_3775_neutraal
 ------------------------------
 Charge =  0 Multiplicity = 1

 SCF Done:  E(RB3LYP) =  -926.866844640     A.U. after    1 cycles

  Exact polarizability: 220.327   5.170 125.588  -1.441  -2.084  55.565
 Approx polarizability: 325.195  14.770 244.657  -3.791  -5.565  89.173

                      1                      2                      3
                      A                      A                      A
 Frequencies --     30.2626                40.4735               114.5723
 Red. masses --      5.0333                 2.5254                 4.0210
 Frc consts  --      0.0027                 0.0024                 0.0311
 IR Inten    --      0.8380                 2.3086                 0.1738

                      4                      5                      6
                      A                      A                      A
 Frequencies --    142.5230               190.6740               198.3403
 Red. masses --      2.3799                 7.8646                 1.8190
 Frc consts  --      0.0285                 0.1685                 0.0422
 IR Inten    --      2.8225                 0.2795                 0.0834

                      7                      8                      9
                      A                      A                      A
 Frequencies --    238.1177               296.8205               309.6595
 Red. masses --      3.4828                 5.2325                 3.7697
 Frc consts  --      0.1163                 0.2716                 0.2130
 IR Inten    --      4.5239                 0.6380                10.0712

                     10                     11                     12
                      A                      A                      A
 Frequencies --    326.3419               395.8865               430.4260
 Red. masses --      4.7847                 8.3793                 3.1418
 Frc consts  --      0.3002                 0.7737                 0.3429
 IR Inten    --      1.6679                 0.4298                 1.9126

                     13                     14                     15
                      A                      A                      A
 Frequencies --    507.7429               514.4126               538.0877
 Red. masses --      6.6994                 4.6648                 2.6870
 Frc consts  --      1.0176                 0.7273                 0.4584
 IR Inten    --     22.6861                27.8165                50.7124

                     16                     17                     18
                      A                      A                      A
 Frequencies --    582.4837               614.5211               639.0137
 Red. masses --      3.9735                 6.7339                 4.1019
 Frc consts  --      0.7943                 1.4983                 0.9869
 IR Inten    --     17.0239                17.6430                74.1117

                     19                     20                     21
                      A                      A                      A
 Frequencies --    678.1542               725.7569               751.7027
 Red. masses --      6.6485                 6.9049                 4.2422
 Frc consts  --      1.8015                 2.1429                 1.4123
 IR Inten    --      8.0586                17.8742                 2.6195

                     22                     23                     24
                      A                      A                      A
 Frequencies --    781.5021               828.0574               882.5513
 Red. masses --      3.9620                 1.3413                 3.1679
 Frc consts  --      1.4257                 0.5419                 1.4538
 IR Inten    --     44.7165                19.7930                 3.0401

                     25                     26                     27
                      A                      A                      A
 Frequencies --    898.9815               935.0114               949.0595
 Red. masses --      1.6996                 1.3300                 1.7292
 Frc consts  --      0.8093                 0.6851                 0.9177
 IR Inten    --      4.7847                 1.8906                12.5492

                     28                     29                     30
                      A                      A                      A
 Frequencies --    961.5071              1064.7862              1082.5672
 Red. masses --      1.4224                 2.0767                 1.5456
 Frc consts  --      0.7748                 1.3873                 1.0672
 IR Inten    --      0.7361                12.7242                 1.3670

                     31                     32                     33
                      A                      A                      A
 Frequencies --   1104.8407              1146.8942              1172.1460
 Red. masses --      5.3497                 4.3166                 2.2962
 Frc consts  --      3.8475                 3.3453                 1.8588
 IR Inten    --     12.6022                71.7701                 2.6423

                     34                     35                     36
                      A                      A                      A
 Frequencies --   1223.1305              1285.0534              1308.9814
 Red. masses --      1.5571                 3.9377                 3.0530
 Frc consts  --      1.3725                 3.8312                 3.0821
 IR Inten    --      5.6801               119.2439               108.2434

                     37                     38                     39
                      A                      A                      A
 Frequencies --   1317.1384              1346.6789              1391.1913
 Red. masses --      8.2054                 1.9730                 1.3635
 Frc consts  --      8.3871                 2.1081                 1.5548
 IR Inten    --      0.9600                 2.8968                 3.8391

                     40                     41                     42
                      A                      A                      A
 Frequencies --   1438.7088              1469.5836              1488.2647
 Red. masses --      1.3678                 2.4649                 1.6461
 Frc consts  --      1.6681                 3.1364                 2.1481
 IR Inten    --      1.3967                35.0154               105.8211

                     43                     44                     45
                      A                      A                      A
 Frequencies --   1493.6176              1504.6918              1510.1830
 Red. masses --      2.2447                 1.0584                 1.1002
 Frc consts  --      2.9505                 1.4119                 1.4783
 IR Inten    --     14.7346                16.1327                28.2195

                     46                     47                     48
                      A                      A                      A
 Frequencies --   1577.4556              1597.9893              1640.5355
 Red. masses --      4.0099                 6.4694                 6.0698
 Frc consts  --      5.8789                 9.7334                 9.6250
 IR Inten    --    277.9129                85.2094               193.4918

                     49                     50                     51
                      A                      A                      A
 Frequencies --   1725.6682              3043.4198              3092.9364
 Red. masses --      5.6809                 1.0383                 1.1003
 Frc consts  --      9.9673                 5.6661                 6.2017
 IR Inten    --      4.7799                26.1021                15.2129

                     52                     53                     54
                      A                      A                      A
 Frequencies --   3120.4987              3156.4052              3182.0823
 Red. masses --      1.0874                 1.1002                 1.0880
 Frc consts  --      6.2385                 6.4579                 6.4911
 IR Inten    --     26.3263                14.0134                23.7114

                     55                     56                     57
                      A                      A                      A
 Frequencies --   3188.4527              3217.1576              3608.2580
 Red. masses --      1.0918                 1.0944                 1.0766
 Frc consts  --      6.5397                 6.6736                 8.2582
 IR Inten    --     12.5139                13.5895                71.7651

 - Thermochemistry -
 -------------------
 Temperature   298.150 Kelvin.  Pressure   1.00000 Atm.
 Atom     1 has atomic number  6 and mass  12.00000

 Molecular mass:   192.04697 amu.
 Principal axes and moments of inertia in atomic units:
                           1         2         3
     Eigenvalues --   777.871864806.382985557.26112
           X            0.99998   0.00674  -0.00032
           Y           -0.00674   0.99997  -0.00307
           Z            0.00030   0.00307   1.00000
 This molecule is an asymmetric top.
 Rotational symmetry number  1.
 Warning -- assumption of classical behavior for rotation
           may cause significant error
 Rotational temperatures (Kelvin)      0.11135     0.01802     0.01559
 Rotational constants (GHZ):           2.32010     0.37549     0.32475
 Zero-point vibrational energy     412723.4 (Joules/Mol)
                                   98.64326 (Kcal/Mol)
 Warning -- explicit consideration of  17 degrees of freedom as
           vibrations may cause significant error
 Vibrational temperatures:     43.54    58.23   164.84   205.06   274.34
          (Kelvin)            285.37   342.60   427.06   445.53   469.53
                              569.59   619.29   730.53   740.13   774.19
                              838.06   884.16   919.40   975.71  1044.20
                             1081.53  1124.41  1191.39  1269.79  1293.43
                             1345.27  1365.48  1383.39  1531.99  1557.57
                             1589.62  1650.12  1686.46  1759.81  1848.91
                             1883.33  1895.07  1937.57  2001.61  2069.98
                             2114.40  2141.28  2148.98  2164.92  2172.82
                             2269.61  2299.15  2360.36  2482.85  4378.80
                             4450.05  4489.70  4541.36  4578.31  4587.47
                             4628.77  5191.48

 Zero-point correction=                           0.157198 (Hartree/Particle)
 Thermal correction to Energy=                    0.168621
 Thermal correction to Enthalpy=                  0.169566
 Thermal correction to Gibbs Free Energy=         0.118362
 Sum of electronic and zero-point Energies=           -926.709647
 Sum of electronic and thermal Energies=              -926.698223
 Sum of electronic and thermal Enthalpies=            -926.697279
 Sum of electronic and thermal Free Energies=         -926.748483

                     E (Thermal)             CV                S
                      KCal/Mol        Cal/Mol-Kelvin    Cal/Mol-Kelvin
 Total                  105.812             42.620            107.767
 Electronic               0.000              0.000              0.000
 Translational            0.889              2.981             41.663
 Rotational               0.889              2.981             31.408
 Vibrational            104.034             36.658             34.696
 Vibration     1          0.594              1.984              5.812
 Vibration     2          0.594              1.981              5.236
 Vibration     3          0.608              1.937              3.190
 Vibration     4          0.616              1.911              2.770
 Vibration     5          0.634              1.853              2.221
 Vibration     6          0.637              1.842              2.148
 Vibration     7          0.656              1.782              1.817
 Vibration     8          0.690              1.680              1.435
 Vibration     9          0.699              1.655              1.364
 Vibration    10          0.710              1.623              1.278
 Vibration    11          0.763              1.479              0.978
 Vibration    12          0.792              1.404              0.857
 Vibration    13          0.863              1.233              0.639
 Vibration    14          0.869              1.218              0.623
 Vibration    15          0.893              1.166              0.569
 Vibration    16          0.939              1.069              0.481
 Vibration    17          0.974              1.001              0.425

                           ! Non-Optimized Parameters !
 Normal termination of Gaussian 16 at Mon Dec 14 13:20:22 2020.

 ----------------------------------------------------------------------
 # B3LYP/6-311++G(d,p) empiricaldispersion=gd3bj scf=xqc pop=npa geom=c
 heck
 ----------------------------------------------------------------------

 --------------------------------------
 CID_13799657_JID_3775_Energie_neutraal
 --------------------------------------
 Structure from the checkpoint file:  "JID_3775.chk"
 Charge =  0 Multiplicity = 1

 SCF Done:  E(RB3LYP) =  -927.032850759     A.U. after   16 cycles
 Normal termination of Gaussian 16 at Mon Dec 14 13:22:22 2020.

 ----------------------------------------------------------------------
 # B3LYP/6-311++G(d,p) empiricaldispersion=gd3bj scf=xqc pop=npa geom=c
 heck
 ----------------------------------------------------------------------

 ------------------------------------
 CID_13799657_JID_3775_Energie_kation
 ------------------------------------
 Structure from the checkpoint file:  "JID_3775.chk"
 Charge =  1 Multiplicity = 2

 SCF Done:  E(UB3LYP) =  -926.743909544     A.U. after   24 cycles
 Normal termination of Gaussian 16 at Mon Dec 14 13:26:39 2020.
 Gaussian 16:  ES64L-G16RevA.03 25-Dec-2016

 ----------------------------------------------------------------------
 # B3LYP/6-311++G(d,p) empiricaldispersion=gd3bj scf=xqc pop=npa geom=c
 heck
 ----------------------------------------------------------------------

 -----------------------------------
 CID_13799657_JID_3775_Energie_anion
 -----------------------------------
 Structure from the checkpoint file:  "JID_3775.chk"
 Charge = -1 Multiplicity = 2

                         Standard orientation:
 ---------------------------------------------------------------------
 Center     Atomic      Atomic             Coordinates (Angstroms)
 Number     Number       Type             X           Y           Z
 ---------------------------------------------------------------------
      1          6           0       -4.754369   -0.895400   -0.061997
      2          6           0       -3.400648   -0.324195    0.217207
      3          7           0       -3.107368    0.843688   -0.220479
      4          7           0       -1.864826    1.381217    0.018378
      5          6           0       -0.622840    0.796777    0.050707
      6          7           0        0.449058    1.533176    0.064630
      7          6           0        1.583483    0.745940    0.027017
      8          6           0        1.369275   -0.649329   -0.012571
      9         16           0       -0.357376   -0.977281    0.003874
     10          6           0        2.447639   -1.526779   -0.047579
     11          6           0        3.718752   -0.951433   -0.044283
     12          7           0        3.953443    0.371736   -0.012085
     13          6           0        2.909775    1.199933    0.021869
     14          1           0       -5.361052   -0.175542   -0.616417
     15          1           0       -5.265221   -1.155130    0.873999
     16          1           0       -4.672595   -1.819228   -0.649062
     17          1           0       -2.716196   -0.927071    0.818463
     18          1           0       -1.819873    2.357674   -0.243801
     19          1           0        2.321440   -2.603962   -0.076262
     20          1           0        4.598863   -1.590162   -0.068522
     21          1           0        3.114089    2.268122    0.044291
 ---------------------------------------------------------------------

 SCF Done:  E(UB3LYP) =  -927.031805732     A.U. after   33 cycles
 SCF Done:  E(UB3LYP) =  -927.031805732     a.u. after    1 cycles

 The electronic state is 2-A.
 Alpha  occ. eigenvalues --  -88.74836 -14.24368 -14.20286 -14.18053 -14.16720
 Alpha  occ. eigenvalues --  -10.12499 -10.08414 -10.07626 -10.06794 -10.06755
 Alpha  occ. eigenvalues --  -10.06039 -10.05645 -10.05480  -7.83424  -5.79736
 Alpha  occ. eigenvalues --   -5.79410  -5.78947  -0.88890  -0.83153  -0.80209
 Alpha  occ. eigenvalues --   -0.72053  -0.68652  -0.63441  -0.62569  -0.59922
 Alpha  occ. eigenvalues --   -0.52178  -0.48796  -0.47968  -0.43378  -0.40599
 Alpha  occ. eigenvalues --   -0.38856  -0.36713  -0.35350  -0.32273  -0.32084
 Alpha  occ. eigenvalues --   -0.30915  -0.30494  -0.28441  -0.27807  -0.27186
 Alpha  occ. eigenvalues --   -0.25965  -0.23259  -0.22527  -0.18564  -0.16330
 Alpha  occ. eigenvalues --   -0.15334  -0.14757  -0.13192  -0.12384  -0.08157
 Alpha  occ. eigenvalues --    0.05231
 Alpha virt. eigenvalues --    0.07769   0.08260   0.09469   0.09992   0.10343
 Alpha virt. eigenvalues --    0.10897   0.11086   0.11323   0.12027   0.13393
 Alpha virt. eigenvalues --    0.13497   0.14559   0.14713   0.15623   0.16194

  Beta  occ. eigenvalues --  -88.74810 -14.24460 -14.20065 -14.18118 -14.16695
  Beta  occ. eigenvalues --  -10.12082 -10.08393 -10.07567 -10.06642 -10.06613
  Beta  occ. eigenvalues --  -10.05689 -10.05583 -10.05501  -7.83401  -5.79706
  Beta  occ. eigenvalues --   -5.79404  -5.78871  -0.88601  -0.82916  -0.80046
  Beta  occ. eigenvalues --   -0.71743  -0.68488  -0.63128  -0.62329  -0.59762
  Beta  occ. eigenvalues --   -0.51808  -0.48597  -0.47763  -0.42996  -0.40297
  Beta  occ. eigenvalues --   -0.38679  -0.36595  -0.35181  -0.31968  -0.31661
  Beta  occ. eigenvalues --   -0.30573  -0.29985  -0.28227  -0.27667  -0.26845
  Beta  occ. eigenvalues --   -0.25750  -0.22918  -0.22038  -0.18034  -0.15895
  Beta  occ. eigenvalues --   -0.14948  -0.13918  -0.13201  -0.11868  -0.07492
  Beta virt. eigenvalues --    0.07749   0.08326   0.09617   0.09882   0.10334
  Beta virt. eigenvalues --    0.10474   0.10981   0.11166   0.11860   0.12982
  Beta virt. eigenvalues --    0.13461   0.13859   0.14506   0.14889   0.15790

 Mulliken charges and spin densities:
               1          2
     1  C   -0.193063  -0.391062
     2  C   -0.152316   0.396047
     3  N   -0.087889   0.071987
     4  N   -0.090022  -0.045232
     5  C   -0.060817   0.135793
     6  N   -0.024015   0.022321
     7  C   -0.749004  -0.005957
     8  C    1.461854  -0.596883
     9  S   -0.740321   0.209284
    10  C    0.117460   0.567063
    11  C   -0.258144  -0.187966
    12  N   -0.103462  -0.030515
    13  C   -0.569996   0.131765
    14  H    0.105096   0.016587
    15  H    0.077983   0.046574
    16  H   -0.061614   0.209234
    17  H    0.009737   0.037682
    18  H    0.209337   0.080969
    19  H   -0.130962   0.303000
    20  H    0.118024   0.001411
    21  H    0.122133   0.027898
 Sum of Mulliken charges =  -1.00000   1.00000

 Dipole moment (field-independent basis, Debye):
    X=             -1.0440    Y=             -1.0357    Z=              0.4870  Tot=              1.5491
 Quadrupole moment (field-independent basis, Debye-Ang):
   XX=           -145.7649   YY=            -98.9825   ZZ=            -94.9851
   XY=             -3.8473   XZ=             -2.6332   YZ=             -1.9681

 Summary of Natural Population Analysis:

                                       Natural Population
                Natural  -----------------------------------------------
    Atom  No    Charge         Core      Valence    Rydberg      Total
 -----------------------------------------------------------------------
      C    1   -0.30599      0.99966     2.30136    0.00498     3.30599
      C    2    0.08650      0.99967     1.89908    0.01475     2.91350
      N    3   -0.12960      0.99964     2.61609    0.01387     3.62960
      N    4   -0.22536      0.99962     2.71195    0.01378     3.72536
      C    5    0.21138      0.99957     1.77084    0.01821     2.78862
      N    6   -0.28182      0.99962     2.76966    0.01253     3.78182
      C    7    0.05373      0.99942     1.93474    0.01212     2.94627
      C    8   -0.09412      0.99940     2.08408    0.01064     3.09412
      S    9    0.16148      4.99946     2.81986    0.01921     7.83852
      C   10   -0.12685      0.99949     2.11705    0.01030     3.12685
      C   11    0.03097      0.99960     1.95333    0.01610     2.96903
      N   12   -0.25265      0.99972     2.74234    0.01059     3.75265
      C   13    0.04315      0.99955     1.94106    0.01625     2.95685
      H   14    0.10195      0.00000     0.39629    0.00176     0.39805
      H   15    0.09625      0.00000     0.40233    0.00142     0.40375
      H   16    0.10100      0.00000     0.39684    0.00216     0.39900
      H   17    0.07203      0.00000     0.42570    0.00227     0.42797
      H   18    0.19186      0.00000     0.30442    0.00372     0.30814
      H   19    0.10013      0.00000     0.39829    0.00158     0.39987
      H   20    0.08088      0.00000     0.41763    0.00149     0.41912
      H   21    0.08507      0.00000     0.41295    0.00198     0.41493
 =======================================================================
   * Total *   -0.00000     16.99442    32.81589    0.18969    50.00000

 Normal termination of Gaussian 16 at Mon Dec 14 13:32:32 2020.
