 Gaussian 16, Revision A.03,

 -----------------------------------------------------------
 # opt freq B3LYP/6-31G(d) empiricaldispersion=gd3bj scf=xqc
 -----------------------------------------------------------

 -------------------------------
 CID_134895081_JID_8157_neutraal
 -------------------------------
 Symbolic Z-matrix:
 Charge =  0 Multiplicity = 1

 SCF Done:  E(RB3LYP) =  -1205.30396654     A.U. after   14 cycles
 SCF Done:  E(RB3LYP) =  -1205.30859816     A.U. after   12 cycles
 SCF Done:  E(RB3LYP) =  -1205.30925278     A.U. after   12 cycles
 SCF Done:  E(RB3LYP) =  -1205.30935354     A.U. after   11 cycles
 SCF Done:  E(RB3LYP) =  -1205.30946939     A.U. after   11 cycles
 SCF Done:  E(RB3LYP) =  -1205.30927785     A.U. after   13 cycles
 SCF Done:  E(RB3LYP) =  -1205.30975345     A.U. after   12 cycles
 SCF Done:  E(RB3LYP) =  -1205.30918453     A.U. after   13 cycles
 SCF Done:  E(RB3LYP) =  -1205.30982934     A.U. after   12 cycles
 SCF Done:  E(RB3LYP) =  -1205.31009403     A.U. after   11 cycles
 SCF Done:  E(RB3LYP) =  -1205.31036754     A.U. after   11 cycles
 SCF Done:  E(RB3LYP) =  -1205.31037593     A.U. after   10 cycles
 SCF Done:  E(RB3LYP) =  -1205.31037589     A.U. after    9 cycles
 SCF Done:  E(RB3LYP) =  -1205.31037602     A.U. after    8 cycles
 SCF Done:  E(RB3LYP) =  -1205.31037606     A.U. after    9 cycles
 Optimization completed.
    -- Stationary point found.
 Normal termination of Gaussian 16 at Fri Dec 11 20:02:21 2020.

 --------------------------------------------------------------------
 #N Geom=AllCheck Guess=TCheck SCRF=Check GenChk RB3LYP/6-31G(d) Freq
 --------------------------------------------------------------------

 Structure from the checkpoint file:  "JID_8157.chk"
 -------------------------------
 CID_134895081_JID_8157_neutraal
 -------------------------------
 Charge =  0 Multiplicity = 1

 SCF Done:  E(RB3LYP) =  -1205.31037606     A.U. after    1 cycles

  Exact polarizability: 188.025 -24.595 151.702 -13.919 -10.065 135.990
 Approx polarizability: 245.103 -39.463 235.756 -20.395 -28.709 240.247

                      1                      2                      3
                      A                      A                      A
 Frequencies --     12.1731                31.1941                52.1185
 Red. masses --      4.8656                 4.3864                 4.3033
 Frc consts  --      0.0004                 0.0025                 0.0069
 IR Inten    --      0.6754                 0.1388                 0.5853

                      4                      5                      6
                      A                      A                      A
 Frequencies --     72.8546                91.3864               126.8359
 Red. masses --      5.0943                 3.9701                 4.6312
 Frc consts  --      0.0159                 0.0195                 0.0439
 IR Inten    --      1.3528                 3.9881                 2.5062

                      7                      8                      9
                      A                      A                      A
 Frequencies --    154.4927               182.2092               210.6486
 Red. masses --      4.6574                 4.2675                 5.0987
 Frc consts  --      0.0655                 0.0835                 0.1333
 IR Inten    --      3.4946                 1.2892                 0.3679

                     10                     11                     12
                      A                      A                      A
 Frequencies --    234.4213               251.4444               260.7375
 Red. masses --      3.5407                 1.6824                 2.2595
 Frc consts  --      0.1146                 0.0627                 0.0905
 IR Inten    --      2.4234                 4.2494                 4.8024

                     13                     14                     15
                      A                      A                      A
 Frequencies --    287.6922               329.9591               342.2798
 Red. masses --      2.3156                 2.5937                 3.1249
 Frc consts  --      0.1129                 0.1664                 0.2157
 IR Inten    --      1.9791                 6.7043                 0.2938

                     16                     17                     18
                      A                      A                      A
 Frequencies --    348.9670               379.6036               410.3543
 Red. masses --      2.6030                 3.2109                 3.4646
 Frc consts  --      0.1868                 0.2726                 0.3437
 IR Inten    --      1.9877                 1.4624                 7.8407

                     19                     20                     21
                      A                      A                      A
 Frequencies --    420.7822               427.5493               429.5566
 Red. masses --      3.4054                 3.3280                 3.1991
 Frc consts  --      0.3552                 0.3584                 0.3478
 IR Inten    --     19.6538                 2.1301                13.8858

                     22                     23                     24
                      A                      A                      A
 Frequencies --    454.7304               514.3664               524.6307
 Red. masses --      4.5619                 5.3699                 3.2966
 Frc consts  --      0.5558                 0.8371                 0.5346
 IR Inten    --      3.4785                12.7176                 1.9007

                     25                     26                     27
                      A                      A                      A
 Frequencies --    530.7873               600.0848               636.8010
 Red. masses --      3.8158                 3.5949                 4.4986
 Frc consts  --      0.6334                 0.7627                 1.0748
 IR Inten    --     12.3359                17.6477                 6.7989

                     28                     29                     30
                      A                      A                      A
 Frequencies --    654.2488               681.1360               701.0459
 Red. masses --      6.7112                 2.5092                 2.0329
 Frc consts  --      1.6925                 0.6859                 0.5887
 IR Inten    --      1.3780                10.3959                21.9898

                     31                     32                     33
                      A                      A                      A
 Frequencies --    719.7398               765.3042               820.5835
 Red. masses --      3.7283                 4.3510                 2.7107
 Frc consts  --      1.1379                 1.5014                 1.0754
 IR Inten    --      1.7683                 8.4539                 6.2483

                     34                     35                     36
                      A                      A                      A
 Frequencies --    826.2415               845.3660               852.5991
 Red. masses --      1.4183                 1.9382                 2.6689
 Frc consts  --      0.5705                 0.8161                 1.1431
 IR Inten    --     17.6322                22.6630                39.0991

                     37                     38                     39
                      A                      A                      A
 Frequencies --    861.2246               907.4364               938.8398
 Red. masses --      2.8838                 2.3226                 1.6849
 Frc consts  --      1.2602                 1.1268                 0.8750
 IR Inten    --     18.9584                14.8079                 1.3011

                     40                     41                     42
                      A                      A                      A
 Frequencies --    941.6481               961.7327               969.0628
 Red. masses --      1.4473                 1.8352                 1.3247
 Frc consts  --      0.7561                 1.0001                 0.7329
 IR Inten    --      1.6769                18.4250                 2.4174

                     43                     44                     45
                      A                      A                      A
 Frequencies --    977.9476              1024.0126              1034.7848
 Red. masses --      2.3533                 2.1752                 1.9616
 Frc consts  --      1.3260                 1.3439                 1.2375
 IR Inten    --      6.6448                 5.0941                 3.5148

                     46                     47                     48
                      A                      A                      A
 Frequencies --   1037.3943              1071.3998              1081.2372
 Red. masses --      2.4834                 2.4554                 6.4239
 Frc consts  --      1.5746                 1.6606                 4.4248
 IR Inten    --      0.7043                 8.8059                68.2293

                     49                     50                     51
                      A                      A                      A
 Frequencies --   1100.1195              1106.5581              1128.0065
 Red. masses --      4.2537                 1.5517                 3.9947
 Frc consts  --      3.0332                 1.1195                 2.9948
 IR Inten    --    277.5289                88.0124                56.1411

                     52                     53                     54
                      A                      A                      A
 Frequencies --   1147.8751              1174.9046              1186.4768
 Red. masses --      1.2870                 1.6828                 1.2714
 Frc consts  --      0.9992                 1.3686                 1.0545
 IR Inten    --      4.5390                 9.6157                 0.7238

                     55                     56                     57
                      A                      A                      A
 Frequencies --   1187.0008              1208.2845              1209.6564
 Red. masses --      1.0750                 1.3128                 1.1648
 Frc consts  --      0.8924                 1.1293                 1.0042
 IR Inten    --      2.0349                17.6093                24.2482

                     58                     59                     60
                      A                      A                      A
 Frequencies --   1219.9221              1240.2643              1277.2741
 Red. masses --      1.3837                 2.8929                 1.4251
 Frc consts  --      1.2133                 2.6219                 1.3699
 IR Inten    --      8.0733                11.5534                 8.1373

                     61                     62                     63
                      A                      A                      A
 Frequencies --   1293.1040              1302.6435              1312.6676
 Red. masses --      2.1061                 4.1432                 1.9821
 Frc consts  --      2.0749                 4.1422                 2.0123
 IR Inten    --     47.1744               317.5134               100.0889

                     64                     65                     66
                      A                      A                      A
 Frequencies --   1330.9168              1348.6715              1357.4688
 Red. masses --      1.3358                 1.4140                 1.4972
 Frc consts  --      1.3941                 1.5154                 1.6256
 IR Inten    --      1.4783                12.9153                20.3947

                     67                     68                     69
                      A                      A                      A
 Frequencies --   1373.2047              1376.7701              1395.8968
 Red. masses --      1.9093                 2.5413                 1.3186
 Frc consts  --      2.1212                 2.8381                 1.5138
 IR Inten    --     12.3927                17.2899                31.9013

                     70                     71                     72
                      A                      A                      A
 Frequencies --   1400.3512              1409.7256              1433.1320
 Red. masses --      1.3290                 1.5234                 1.4230
 Frc consts  --      1.5355                 1.7837                 1.7220
 IR Inten    --     25.1270                 4.5444                20.8193

                     73                     74                     75
                      A                      A                      A
 Frequencies --   1472.8529              1474.3844              1487.3030
 Red. masses --      2.6650                 1.0922                 1.0947
 Frc consts  --      3.4062                 1.3988                 1.4267
 IR Inten    --      1.1759                 5.1695                 8.7402

                     76                     77                     78
                      A                      A                      A
 Frequencies --   1500.1597              1500.7814              1516.2048
 Red. masses --      1.1962                 1.0902                 1.0926
 Frc consts  --      1.5861                 1.4467                 1.4799
 IR Inten    --     12.6190                 6.7323                 8.0108

                     79                     80                     81
                      A                      A                      A
 Frequencies --   1518.1680              1521.5640              1534.9726
 Red. masses --      1.0884                 1.0476                 1.0628
 Frc consts  --      1.4781                 1.4290                 1.4753
 IR Inten    --      9.7531                 5.7701                38.8673

                     82                     83                     84
                      A                      A                      A
 Frequencies --   1569.2685              1637.6337              1678.4501
 Red. masses --      2.4815                 6.4308                 5.7659
 Frc consts  --      3.6005                10.1613                 9.5705
 IR Inten    --     84.8099                16.8922                73.7990

                     85                     86                     87
                      A                      A                      A
 Frequencies --   2998.3267              3016.9901              3027.5699
 Red. masses --      1.0842                 1.0643                 1.0349
 Frc consts  --      5.7427                 5.7076                 5.5889
 IR Inten    --     36.9849                59.5702                53.8685

                     88                     89                     90
                      A                      A                      A
 Frequencies --   3074.9620              3077.4585              3080.1373
 Red. masses --      1.0612                 1.0998                 1.0630
 Frc consts  --      5.9117                 6.1369                 5.9420
 IR Inten    --     16.3921                29.3772                19.9936

                     91                     92                     93
                      A                      A                      A
 Frequencies --   3087.0039              3099.1766              3103.8761
 Red. masses --      1.1067                 1.0595                 1.0613
 Frc consts  --      6.2140                 5.9959                 6.0241
 IR Inten    --     41.7901                 2.4440                 4.3552

                     94                     95                     96
                      A                      A                      A
 Frequencies --   3121.9021              3125.7776              3162.0720
 Red. masses --      1.1034                 1.1016                 1.1069
 Frc consts  --      6.3363                 6.3412                 6.5205
 IR Inten    --      9.9671                12.5530                 2.8723

                     97                     98                     99
                      A                      A                      A
 Frequencies --   3163.6741              3170.2951              3175.3470
 Red. masses --      1.0997                 1.1044                 1.0893
 Frc consts  --      6.4852                 6.5400                 6.4709
 IR Inten    --     25.5185                 1.2642                13.5032

                    100                    101                    102
                      A                      A                      A
 Frequencies --   3191.1478              3219.6078              3230.4670
 Red. masses --      1.0887                 1.0934                 1.0910
 Frc consts  --      6.5320                 6.6781                 6.7081
 IR Inten    --      7.8540                 4.4102                10.5773

 - Thermochemistry -
 -------------------
 Temperature   298.150 Kelvin.  Pressure   1.00000 Atm.
 Atom     1 has atomic number  6 and mass  12.00000

 Molecular mass:   270.09258 amu.
 Principal axes and moments of inertia in atomic units:
                           1         2         3
     Eigenvalues --  2664.511528634.224299950.54291
           X            0.99975  -0.02082  -0.00860
           Y            0.02080   0.99978  -0.00305
           Z            0.00867   0.00287   0.99996
 This molecule is an asymmetric top.
 Rotational symmetry number  1.
 Warning -- assumption of classical behavior for rotation
           may cause significant error
 Rotational temperatures (Kelvin)      0.03251     0.01003     0.00870
 Rotational constants (GHZ):           0.67733     0.20902     0.18137
 Zero-point vibrational energy     789834.9 (Joules/Mol)
                                  188.77506 (Kcal/Mol)
 Warning -- explicit consideration of  26 degrees of freedom as
           vibrations may cause significant error
 Vibrational temperatures:     17.51    44.88    74.99   104.82   131.48
          (Kelvin)            182.49   222.28   262.16   303.08   337.28
                              361.77   375.14   413.92   474.74   492.46
                              502.09   546.16   590.41   605.41   615.15
                              618.04   654.26   740.06   754.83   763.68
                              863.39   916.21   941.32   980.00  1008.65
                             1035.55  1101.10  1180.64  1188.78  1216.29
                             1226.70  1239.11  1305.60  1350.78  1354.82
                             1383.72  1394.27  1407.05  1473.33  1488.82
                             1492.58  1541.51  1555.66  1582.83  1592.09
                             1622.95  1651.54  1690.43  1707.08  1707.83
                             1738.45  1740.43  1755.20  1784.46  1837.71
                             1860.49  1874.21  1888.64  1914.89  1940.44
                             1953.09  1975.74  1980.87  2008.38  2014.79
                             2028.28  2061.96  2119.11  2121.31  2139.90
                             2158.40  2159.29  2181.48  2184.31  2189.19
                             2208.48  2257.83  2356.19  2414.92  4313.92
                             4340.78  4356.00  4424.18  4427.78  4431.63
                             4441.51  4459.02  4465.79  4491.72  4497.30
                             4549.52  4551.82  4561.35  4568.62  4591.35
                             4632.30  4647.92

 Zero-point correction=                           0.300832 (Hartree/Particle)
 Thermal correction to Energy=                    0.317661
 Thermal correction to Enthalpy=                  0.318605
 Thermal correction to Gibbs Free Energy=         0.254462
 Sum of electronic and zero-point Energies=          -1205.009544
 Sum of electronic and thermal Energies=             -1204.992715
 Sum of electronic and thermal Enthalpies=           -1204.991771
 Sum of electronic and thermal Free Energies=        -1205.055914

                     E (Thermal)             CV                S
                      KCal/Mol        Cal/Mol-Kelvin    Cal/Mol-Kelvin
 Total                  199.335             65.455            134.999
 Electronic               0.000              0.000              0.000
 Translational            0.889              2.981             42.680
 Rotational               0.889              2.981             33.792
 Vibrational            197.558             59.493             58.527
 Vibration     1          0.593              1.987              7.620
 Vibration     2          0.594              1.983              5.752
 Vibration     3          0.596              1.977              4.735
 Vibration     4          0.599              1.967              4.075
 Vibration     5          0.602              1.955              3.630
 Vibration     6          0.611              1.926              2.993
 Vibration     7          0.620              1.898              2.616
 Vibration     8          0.630              1.864              2.306
 Vibration     9          0.643              1.825              2.038
 Vibration    10          0.654              1.788              1.845
 Vibration    11          0.663              1.760              1.720
 Vibration    12          0.669              1.745              1.657
 Vibration    13          0.685              1.697              1.487
 Vibration    14          0.713              1.616              1.260
 Vibration    15          0.721              1.591              1.202
 Vibration    16          0.726              1.577              1.171
 Vibration    17          0.750              1.514              1.041
 Vibration    18          0.775              1.448              0.925
 Vibration    19          0.783              1.425              0.889
 Vibration    20          0.789              1.410              0.867
 Vibration    21          0.791              1.406              0.860
 Vibration    22          0.813              1.350              0.782
 Vibration    23          0.869              1.218              0.623
 Vibration    24          0.880              1.195              0.599
 Vibration    25          0.886              1.182              0.585
 Vibration    26          0.958              1.032              0.450

                           ! Non-Optimized Parameters !
 Normal termination of Gaussian 16 at Fri Dec 11 20:18:24 2020.

 ----------------------------------------------------------------------
 # B3LYP/6-311++G(d,p) empiricaldispersion=gd3bj scf=xqc pop=npa geom=c
 heck
 ----------------------------------------------------------------------

 ---------------------------------------
 CID_134895081_JID_8157_Energie_neutraal
 ---------------------------------------
 Structure from the checkpoint file:  "JID_8157.chk"
 Charge =  0 Multiplicity = 1

 SCF Done:  E(RB3LYP) =  -1205.56331114     A.U. after   15 cycles
 Normal termination of Gaussian 16 at Fri Dec 11 20:24:55 2020.

 ----------------------------------------------------------------------
 # B3LYP/6-311++G(d,p) empiricaldispersion=gd3bj scf=xqc pop=npa geom=c
 heck
 ----------------------------------------------------------------------

 -------------------------------------
 CID_134895081_JID_8157_Energie_kation
 -------------------------------------
 Structure from the checkpoint file:  "JID_8157.chk"
 Charge =  1 Multiplicity = 2

 SCF Done:  E(UB3LYP) =  -1205.25976590     A.U. after   26 cycles
 Normal termination of Gaussian 16 at Fri Dec 11 20:40:57 2020.
 Gaussian 16:  ES64L-G16RevA.03 25-Dec-2016

 ----------------------------------------------------------------------
 # B3LYP/6-311++G(d,p) empiricaldispersion=gd3bj scf=xqc pop=npa geom=c
 heck
 ----------------------------------------------------------------------

 ------------------------------------
 CID_134895081_JID_8157_Energie_anion
 ------------------------------------
 Structure from the checkpoint file:  "JID_8157.chk"
 Charge = -1 Multiplicity = 2

                         Standard orientation:
 ---------------------------------------------------------------------
 Center     Atomic      Atomic             Coordinates (Angstroms)
 Number     Number       Type             X           Y           Z
 ---------------------------------------------------------------------
      1          6           0        5.363175   -1.483835   -0.744533
      2          8           0        4.419480   -1.423893    0.312793
      3          6           0        3.469249   -0.449177    0.266573
      4          6           0        2.559163   -0.436075    1.335937
      5          6           0        1.553112    0.516596    1.379882
      6          6           0        1.416617    1.474508    0.362332
      7          6           0        2.328516    1.451748   -0.690660
      8          6           0        3.354635    0.503493   -0.750374
      9          6           0        0.301022    2.491384    0.428061
     10          8           0       -0.993176    1.914552    0.595254
     11          6           0       -1.702165    1.597689   -0.602122
     12          6           0       -3.158978    1.384748   -0.175665
     13          6           0       -3.319324    0.211180    0.794774
     14         16           0       -2.789953   -1.338393    0.018133
     15          8           0       -2.716193   -2.392934    1.041827
     16          8           0       -3.606374   -1.528172   -1.196923
     17          6           0       -1.115110   -0.896140   -0.507283
     18          6           0       -1.128051    0.380399   -1.350055
     19          1           0        6.020213   -2.323222   -0.512317
     20          1           0        5.956875   -0.562395   -0.805734
     21          1           0        4.872986   -1.661655   -1.710644
     22          1           0        2.666762   -1.182914    2.115701
     23          1           0        0.849925    0.517916    2.208575
     24          1           0        2.241963    2.183666   -1.490863
     25          1           0        4.043576    0.515053   -1.586377
     26          1           0        0.432276    3.138995    1.302806
     27          1           0        0.318377    3.134174   -0.464573
     28          1           0       -1.659212    2.464667   -1.280309
     29          1           0       -3.776260    1.210275   -1.062736
     30          1           0       -3.518352    2.295652    0.314431
     31          1           0       -4.361716    0.048567    1.083310
     32          1           0       -2.711447    0.342275    1.692760
     33          1           0       -0.513338   -0.784102    0.396170
     34          1           0       -0.750869   -1.759496   -1.071316
     35          1           0       -1.729348    0.213121   -2.250631
     36          1           0       -0.104238    0.588190   -1.673180
 ---------------------------------------------------------------------

 SCF Done:  E(UB3LYP) =  -1205.55722086     A.U. after   33 cycles
 SCF Done:  E(UB3LYP) =  -1205.55722086     a.u. after    1 cycles

 The electronic state is 2-A.
 Alpha  occ. eigenvalues --  -88.95518 -19.06974 -19.04610 -19.02824 -19.02606
 Alpha  occ. eigenvalues --  -10.15051 -10.14878 -10.13725 -10.13487 -10.12778
 Alpha  occ. eigenvalues --  -10.12248 -10.10411 -10.09843 -10.09135 -10.09096
 Alpha  occ. eigenvalues --  -10.08995 -10.08813 -10.08637  -8.02063  -5.98328
 Alpha  occ. eigenvalues --   -5.98211  -5.98152  -1.01829  -0.98635  -0.95861
 Alpha  occ. eigenvalues --   -0.91534  -0.77472  -0.75878  -0.70136  -0.69107
 Alpha  occ. eigenvalues --   -0.67002  -0.66115  -0.62714  -0.58139  -0.56886
 Alpha  occ. eigenvalues --   -0.53606  -0.53013  -0.50101  -0.47539  -0.45253
 Alpha  occ. eigenvalues --   -0.43379  -0.41843  -0.41634  -0.40571  -0.39617
 Alpha  occ. eigenvalues --   -0.38845  -0.38462  -0.37953  -0.37046  -0.36230
 Alpha  occ. eigenvalues --   -0.35253  -0.34435  -0.34197  -0.33460  -0.32872
 Alpha  occ. eigenvalues --   -0.30771  -0.30435  -0.29815  -0.29473  -0.27986
 Alpha  occ. eigenvalues --   -0.27491  -0.26978  -0.24651  -0.24507  -0.23778
 Alpha  occ. eigenvalues --   -0.23572  -0.23282  -0.21654  -0.20011  -0.18562
 Alpha  occ. eigenvalues --   -0.17365  -0.13952   0.03585
 Alpha virt. eigenvalues --    0.05288   0.06428   0.06539   0.06969   0.07538
 Alpha virt. eigenvalues --    0.07872   0.08069   0.08876   0.09257   0.09707
 Alpha virt. eigenvalues --    0.09784   0.10462   0.10555   0.11272   0.12278

  Beta  occ. eigenvalues --  -88.95518 -19.06963 -19.04605 -19.02823 -19.02603
  Beta  occ. eigenvalues --  -10.15052 -10.14858 -10.13702 -10.13440 -10.12773
  Beta  occ. eigenvalues --  -10.12246 -10.10395 -10.09828 -10.09111 -10.09078
  Beta  occ. eigenvalues --  -10.08994 -10.08802 -10.08602  -8.02063  -5.98328
  Beta  occ. eigenvalues --   -5.98211  -5.98153  -1.01826  -0.98611  -0.95851
  Beta  occ. eigenvalues --   -0.91530  -0.77438  -0.75855  -0.70116  -0.69075
  Beta  occ. eigenvalues --   -0.66955  -0.66075  -0.62659  -0.58090  -0.56854
  Beta  occ. eigenvalues --   -0.53562  -0.52965  -0.50063  -0.47502  -0.45205
  Beta  occ. eigenvalues --   -0.43337  -0.41820  -0.41611  -0.40547  -0.39584
  Beta  occ. eigenvalues --   -0.38830  -0.38426  -0.37916  -0.37017  -0.36191
  Beta  occ. eigenvalues --   -0.35236  -0.34412  -0.34160  -0.33434  -0.32829
  Beta  occ. eigenvalues --   -0.30743  -0.30405  -0.29785  -0.29433  -0.27952
  Beta  occ. eigenvalues --   -0.27456  -0.26944  -0.24614  -0.24495  -0.23740
  Beta  occ. eigenvalues --   -0.23551  -0.23257  -0.21646  -0.19997  -0.18536
  Beta  occ. eigenvalues --   -0.17259  -0.13898
  Beta virt. eigenvalues --    0.05807   0.06279   0.06645   0.07053   0.07298
  Beta virt. eigenvalues --    0.07786   0.08284   0.08486   0.09224   0.09763
  Beta virt. eigenvalues --    0.09849   0.09987   0.10780   0.10832   0.11698

 Mulliken charges and spin densities:
               1          2
     1  C    0.763928  -1.093412
     2  O   -0.187644   0.046703
     3  C   -0.464897  -0.274574
     4  C   -0.833506   0.551386
     5  C   -0.073226   0.311561
     6  C    0.436865   0.385845
     7  C   -0.364885  -0.170315
     8  C    0.681115  -0.522742
     9  C    1.446381  -2.102979
    10  O    0.021621   0.010290
    11  C   -0.446906   0.267314
    12  C    0.139921  -0.691333
    13  C   -0.633792  -0.087471
    14  S    0.757572  -0.124514
    15  O   -0.144953   0.008227
    16  O   -0.222267   0.001577
    17  C   -0.925303   0.034074
    18  C    0.454257  -0.608682
    19  H   -0.293454   0.463274
    20  H   -0.250986   0.411641
    21  H   -0.238896   0.398782
    22  H    0.106122   0.076901
    23  H    0.078215   0.105601
    24  H   -0.910282   1.088009
    25  H   -0.504044   0.720905
    26  H   -0.067865   0.249938
    27  H    0.072026   0.113183
    28  H   -0.600285   0.799036
    29  H    0.207908  -0.012195
    30  H   -0.260320   0.468164
    31  H    0.199077   0.052980
    32  H    0.228421   0.014640
    33  H    0.260136  -0.024496
    34  H    0.192797   0.058719
    35  H    0.010778   0.224655
    36  H    0.366370  -0.150692
 Sum of Mulliken charges =  -1.00000   1.00000

 Dipole moment (field-independent basis, Debye):
    X=             -4.2431    Y=             -0.6026    Z=              4.5666  Tot=              6.2627
 Quadrupole moment (field-independent basis, Debye-Ang):
   XX=           -216.0071   YY=           -173.5184   ZZ=           -153.9131
   XY=             -4.7759   XZ=              9.8345   YZ=              7.3843

 Summary of Natural Population Analysis:

                                       Natural Population
                Natural  -----------------------------------------------
    Atom  No    Charge         Core      Valence    Rydberg      Total
 -----------------------------------------------------------------------
      C    1   -0.10131      0.99960     2.09275    0.00896     3.10131
      O    2   -0.27216      0.99986     3.26274    0.00957     4.27216
      C    3    0.16126      0.99939     1.82522    0.01413     2.83874
      C    4   -0.11640      0.99952     2.10812    0.00876     3.11640
      C    5   -0.09186      0.99951     2.08373    0.00861     3.09186
      C    6   -0.05543      0.99949     2.04509    0.01085     3.05543
      C    7   -0.08834      0.99952     2.07778    0.01104     3.08834
      C    8   -0.13826      0.99952     2.12899    0.00975     3.13826
      C    9   -0.01292      0.99952     2.00015    0.01325     3.01292
      O   10   -0.31288      0.99988     3.30294    0.01006     4.31288
      C   11    0.07070      0.99953     1.91407    0.01569     2.92930
      C   12   -0.20760      0.99959     2.19686    0.01115     3.20760
      C   13   -0.29187      0.99958     2.28029    0.01201     3.29187
      S   14    1.01916      4.99925     1.88741    0.09418     6.98084
      O   15   -0.46901      0.99991     3.46399    0.00511     4.46901
      O   16   -0.47513      0.99991     3.46968    0.00554     4.47513
      C   17   -0.29320      0.99958     2.28106    0.01256     3.29320
      C   18   -0.21850      0.99959     2.20898    0.00992     3.21850
      H   19    0.09355      0.00000     0.40531    0.00113     0.40645
      H   20    0.08714      0.00000     0.41110    0.00176     0.41286
      H   21    0.08723      0.00000     0.41096    0.00181     0.41277
      H   22    0.10517      0.00000     0.39361    0.00123     0.39483
      H   23    0.10316      0.00000     0.39576    0.00108     0.39684
      H   24    0.10485      0.00000     0.39294    0.00221     0.39515
      H   25    0.11031      0.00000     0.38742    0.00227     0.38969
      H   26    0.09412      0.00000     0.40468    0.00119     0.40588
      H   27    0.08820      0.00000     0.40973    0.00208     0.41180
      H   28    0.09312      0.00000     0.40420    0.00268     0.40688
      H   29    0.11042      0.00000     0.38851    0.00106     0.38958
      H   30    0.11114      0.00000     0.38742    0.00145     0.38886
      H   31    0.11654      0.00000     0.38230    0.00116     0.38346
      H   32    0.11909      0.00000     0.37958    0.00133     0.38091
      H   33    0.12196      0.00000     0.37635    0.00169     0.37804
      H   34    0.11971      0.00000     0.37925    0.00104     0.38029
      H   35    0.11124      0.00000     0.38760    0.00116     0.38876
      H   36    0.11680      0.00000     0.38163    0.00158     0.38320
 =======================================================================
   * Total *    0.00000     21.99275    49.70821    0.29904    72.00000

 Normal termination of Gaussian 16 at Fri Dec 11 21:00:23 2020.
