 Gaussian 16, Revision A.03,

 -----------------------------------------------------------
 # opt freq B3LYP/6-31G(d) empiricaldispersion=gd3bj scf=xqc
 -----------------------------------------------------------

 -------------------------------
 CID_143015994_JID_3610_neutraal
 -------------------------------
 Symbolic Z-matrix:
 Charge =  0 Multiplicity = 1

 SCF Done:  E(RB3LYP) =  -571.815291771     A.U. after   15 cycles
 SCF Done:  E(RB3LYP) =  -571.818154950     A.U. after   13 cycles
 SCF Done:  E(RB3LYP) =  -571.818718493     A.U. after   13 cycles
 SCF Done:  E(RB3LYP) =  -571.819149221     A.U. after   12 cycles
 SCF Done:  E(RB3LYP) =  -571.819281578     A.U. after   11 cycles
 SCF Done:  E(RB3LYP) =  -571.819409832     A.U. after   12 cycles
 SCF Done:  E(RB3LYP) =  -571.819444664     A.U. after   10 cycles
 SCF Done:  E(RB3LYP) =  -571.819517256     A.U. after   11 cycles
 SCF Done:  E(RB3LYP) =  -571.819609597     A.U. after   11 cycles
 SCF Done:  E(RB3LYP) =  -571.819673400     A.U. after   11 cycles
 SCF Done:  E(RB3LYP) =  -571.820111384     A.U. after    9 cycles
 SCF Done:  E(RB3LYP) =  -571.820111492     A.U. after    8 cycles
 SCF Done:  E(RB3LYP) =  -571.820111581     A.U. after    8 cycles
 SCF Done:  E(RB3LYP) =  -571.820111626     A.U. after    8 cycles
 SCF Done:  E(RB3LYP) =  -571.820111650     A.U. after    7 cycles
 Optimization completed.
    -- Stationary point found.
 Normal termination of Gaussian 16 at Wed Dec  9 23:51:38 2020.

 --------------------------------------------------------------------
 #N Geom=AllCheck Guess=TCheck SCRF=Check GenChk RB3LYP/6-31G(d) Freq
 --------------------------------------------------------------------

 Structure from the checkpoint file:  "JID_3610.chk"
 -------------------------------
 CID_143015994_JID_3610_neutraal
 -------------------------------
 Charge =  0 Multiplicity = 1

 SCF Done:  E(RB3LYP) =  -571.820111650     A.U. after    2 cycles

  Exact polarizability: 225.116  -8.783 122.365  -1.066   0.595  49.192
 Approx polarizability: 332.960 -26.067 202.516  -0.766   1.526  74.417

                      1                      2                      3
                      A                      A                      A
 Frequencies --     15.7395                48.6447                82.7287
 Red. masses --      4.9778                 2.7697                 5.5036
 Frc consts  --      0.0007                 0.0039                 0.0222
 IR Inten    --      2.5283                 0.2823                 3.4183

                      4                      5                      6
                      A                      A                      A
 Frequencies --     88.0412               156.8266               192.5045
 Red. masses --      1.2567                 5.1074                 4.5228
 Frc consts  --      0.0057                 0.0740                 0.0988
 IR Inten    --      0.5756                 1.6977                 1.6615

                      7                      8                      9
                      A                      A                      A
 Frequencies --    209.5027               233.6275               284.9971
 Red. masses --      4.2819                 4.7238                 2.7763
 Frc consts  --      0.1107                 0.1519                 0.1329
 IR Inten    --      1.8482                 1.5376                21.4979

                     10                     11                     12
                      A                      A                      A
 Frequencies --    329.0715               343.9140               382.5228
 Red. masses --      1.2752                 6.8548                 2.7649
 Frc consts  --      0.0814                 0.4777                 0.2384
 IR Inten    --     93.4749                 1.6139                 5.1169

                     13                     14                     15
                      A                      A                      A
 Frequencies --    392.6729               470.1311               509.1141
 Red. masses --      2.8428                 3.2904                 4.1904
 Frc consts  --      0.2583                 0.4285                 0.6399
 IR Inten    --      7.8851                 1.4787                 5.9457

                     16                     17                     18
                      A                      A                      A
 Frequencies --    542.5848               561.4952               564.4591
 Red. masses --      5.0747                 4.5610                 7.0023
 Frc consts  --      0.8802                 0.8472                 1.3145
 IR Inten    --      1.0948                 0.0809                 0.4469

                     19                     20                     21
                      A                      A                      A
 Frequencies --    586.7521               616.9958               635.8249
 Red. masses --      1.7012                 6.4897                 5.9663
 Frc consts  --      0.3451                 1.4556                 1.4211
 IR Inten    --     87.1038                 4.6330                 6.2011

                     22                     23                     24
                      A                      A                      A
 Frequencies --    709.5938               750.9616               780.2918
 Red. masses --      4.6684                 1.2483                 5.1473
 Frc consts  --      1.3849                 0.4148                 1.8465
 IR Inten    --      0.1956                67.0924                 1.2609

                     25                     26                     27
                      A                      A                      A
 Frequencies --    824.5146               836.6510               901.7207
 Red. masses --      3.8329                 1.4420                 2.6639
 Frc consts  --      1.5352                 0.5947                 1.2762
 IR Inten    --      5.1494                 0.5976                 8.8686

                     28                     29                     30
                      A                      A                      A
 Frequencies --    905.5899               948.6764               953.5978
 Red. masses --      1.7163                 1.3227                 1.2280
 Frc consts  --      0.8293                 0.7013                 0.6579
 IR Inten    --      4.8322                15.3468                 0.6155

                     31                     32                     33
                      A                      A                      A
 Frequencies --   1034.3860              1065.3432              1082.1031
 Red. masses --      1.6539                 1.3709                 2.1993
 Frc consts  --      1.0426                 0.9167                 1.5173
 IR Inten    --      4.2817                 0.0311                 0.6566

                     34                     35                     36
                      A                      A                      A
 Frequencies --   1134.1229              1194.7690              1203.9502
 Red. masses --      1.9015                 1.1012                 1.4469
 Frc consts  --      1.4410                 0.9262                 1.2357
 IR Inten    --     60.4697                 2.9675                52.5084

                     37                     38                     39
                      A                      A                      A
 Frequencies --   1235.6165              1259.0751              1299.3468
 Red. masses --      2.7550                 2.3359                 3.2285
 Frc consts  --      2.4782                 2.1817                 3.2115
 IR Inten    --      7.4727                81.7342                23.5519

                     40                     41                     42
                      A                      A                      A
 Frequencies --   1332.0493              1373.4932              1383.5221
 Red. masses --      2.2391                 2.3914                 1.6842
 Frc consts  --      2.3408                 2.6580                 1.8994
 IR Inten    --     61.7693               405.4736                28.1287

                     43                     44                     45
                      A                      A                      A
 Frequencies --   1392.9779              1441.4153              1483.1089
 Red. masses --      1.9934                 1.3253                 1.9564
 Frc consts  --      2.2789                 1.6224                 2.5354
 IR Inten    --     27.6759                 0.9834                15.0845

                     46                     47                     48
                      A                      A                      A
 Frequencies --   1520.6080              1522.1104              1561.6900
 Red. masses --      1.2447                 1.0425                 1.7921
 Frc consts  --      1.6957                 1.4230                 2.5752
 IR Inten    --     31.6328                 8.3005                 5.1372

                     49                     50                     51
                      A                      A                      A
 Frequencies --   1568.6947              1663.3288              1667.8715
 Red. masses --      2.8845                 5.4562                 6.2166
 Frc consts  --      4.1821                 8.8939                10.1888
 IR Inten    --    135.4305                13.7421               137.3336

                     52                     53                     54
                      A                      A                      A
 Frequencies --   1710.6739              2320.7260              3019.7544
 Red. masses --      3.5836                12.6492                 1.0421
 Frc consts  --      6.1788                40.1384                 5.5987
 IR Inten    --    587.9420               161.2688                30.0148

                     55                     56                     57
                      A                      A                      A
 Frequencies --   3064.3772              3152.0983              3168.1029
 Red. masses --      1.1017                 1.0950                 1.0889
 Frc consts  --      6.0954                 6.4103                 6.4393
 IR Inten    --     27.0332                 6.5651                18.0814

                     58                     59                     60
                      A                      A                      A
 Frequencies --   3175.4050              3205.4109              3221.2072
 Red. masses --      1.0889                 1.0896                 1.0970
 Frc consts  --      6.4688                 6.5959                 6.7066
 IR Inten    --      9.4134                 9.5919                18.2236

                     61                     62                     63
                      A                      A                      A
 Frequencies --   3297.7132              3602.0299              3755.1098
 Red. masses --      1.0922                 1.0747                 1.0660
 Frc consts  --      6.9983                 8.2155                 8.8563
 IR Inten    --     17.5893                14.8428                53.8730

 - Thermochemistry -
 -------------------
 Temperature   298.150 Kelvin.  Pressure   1.00000 Atm.
 Atom     1 has atomic number  6 and mass  12.00000

 Molecular mass:   174.07931 amu.
 Principal axes and moments of inertia in atomic units:
                           1         2         3
     Eigenvalues --   917.945334631.119995500.30777
           X            0.99983   0.01804  -0.00341
           Y           -0.01805   0.99984  -0.00177
           Z            0.00338   0.00183   0.99999
 This molecule is an asymmetric top.
 Rotational symmetry number  1.
 Warning -- assumption of classical behavior for rotation
           may cause significant error
 Rotational temperatures (Kelvin)      0.09436     0.01870     0.01575
 Rotational constants (GHZ):           1.96607     0.38970     0.32812
 Zero-point vibrational energy     478338.4 (Joules/Mol)
                                  114.32563 (Kcal/Mol)
 Warning -- explicit consideration of  20 degrees of freedom as
           vibrations may cause significant error
 Vibrational temperatures:     22.65    69.99   119.03   126.67   225.64
          (Kelvin)            276.97   301.43   336.14   410.05   473.46
                              494.82   550.36   564.97   676.41   732.50
                              780.66   807.87   812.13   844.21   887.72
                              914.81  1020.95  1080.47  1122.67  1186.29
                             1203.75  1297.37  1302.94  1364.93  1372.01
                             1488.25  1532.79  1556.91  1631.75  1719.01
                             1732.22  1777.78  1811.53  1869.47  1916.52
                             1976.15  1990.58  2004.18  2073.88  2133.86
                             2187.82  2189.98  2246.92  2257.00  2393.16
                             2399.70  2461.28  3339.01  4344.75  4408.96
                             4535.17  4558.19  4568.70  4611.87  4634.60
                             4744.67  5182.52  5402.77

 Zero-point correction=                           0.182189 (Hartree/Particle)
 Thermal correction to Energy=                    0.194745
 Thermal correction to Enthalpy=                  0.195689
 Thermal correction to Gibbs Free Energy=         0.141718
 Sum of electronic and zero-point Energies=           -571.637922
 Sum of electronic and thermal Energies=              -571.625367
 Sum of electronic and thermal Enthalpies=            -571.624422
 Sum of electronic and thermal Free Energies=         -571.678393

                     E (Thermal)             CV                S
                      KCal/Mol        Cal/Mol-Kelvin    Cal/Mol-Kelvin
 Total                  122.204             46.466            113.591
 Electronic               0.000              0.000              0.000
 Translational            0.889              2.981             41.370
 Rotational               0.889              2.981             31.525
 Vibrational            120.427             40.504             40.695
 Vibration     1          0.593              1.986              7.110
 Vibration     2          0.595              1.978              4.872
 Vibration     3          0.600              1.961              3.825
 Vibration     4          0.601              1.958              3.703
 Vibration     5          0.620              1.895              2.588
 Vibration     6          0.634              1.850              2.204
 Vibration     7          0.642              1.826              2.048
 Vibration     8          0.654              1.789              1.851
 Vibration     9          0.683              1.702              1.503
 Vibration    10          0.712              1.617              1.265
 Vibration    11          0.723              1.588              1.194
 Vibration    12          0.752              1.507              1.029
 Vibration    13          0.760              1.486              0.990
 Vibration    14          0.827              1.316              0.737
 Vibration    15          0.864              1.230              0.636
 Vibration    16          0.898              1.156              0.560
 Vibration    17          0.917              1.115              0.521
 Vibration    18          0.920              1.108              0.515
 Vibration    19          0.944              1.060              0.473
 Vibration    20          0.977              0.996              0.421

 Optimization completed.
    -- Stationary point found.
 Normal termination of Gaussian 16 at Wed Dec  9 23:56:50 2020.

 ----------------------------------------------------------------------
 # B3LYP/6-311++G(d,p) empiricaldispersion=gd3bj scf=xqc pop=npa geom=c
 heck
 ----------------------------------------------------------------------

 ---------------------------------------
 CID_143015994_JID_3610_Energie_neutraal
 ---------------------------------------
 Structure from the checkpoint file:  "JID_3610.chk"
 Charge =  0 Multiplicity = 1

 SCF Done:  E(RB3LYP) =  -571.986739118     A.U. after   16 cycles
 Normal termination of Gaussian 16 at Wed Dec  9 23:59:15 2020.

 ----------------------------------------------------------------------
 # B3LYP/6-311++G(d,p) empiricaldispersion=gd3bj scf=xqc pop=npa geom=c
 heck
 ----------------------------------------------------------------------

 -------------------------------------
 CID_143015994_JID_3610_Energie_kation
 -------------------------------------
 Structure from the checkpoint file:  "JID_3610.chk"
 Charge =  1 Multiplicity = 2

 SCF Done:  E(UB3LYP) =  -571.715703339     A.U. after   20 cycles
 Normal termination of Gaussian 16 at Thu Dec 10 00:03:42 2020.
 Gaussian 16:  ES64L-G16RevA.03 25-Dec-2016

 ----------------------------------------------------------------------
 # B3LYP/6-311++G(d,p) empiricaldispersion=gd3bj scf=xqc pop=npa geom=c
 heck
 ----------------------------------------------------------------------

 ------------------------------------
 CID_143015994_JID_3610_Energie_anion
 ------------------------------------
 Structure from the checkpoint file:  "JID_3610.chk"
 Charge = -1 Multiplicity = 2

                         Standard orientation:
 ---------------------------------------------------------------------
 Center     Atomic      Atomic             Coordinates (Angstroms)
 Number     Number       Type             X           Y           Z
 ---------------------------------------------------------------------
      1          6           0       -2.993602   -1.802273    0.250979
      2          6           0       -2.663101   -0.344520    0.010156
      3          6           0       -1.388148    0.126085   -0.045208
      4          7           0       -0.291213   -0.678850    0.112981
      5          6           0        1.073627   -0.370430    0.023494
      6          6           0        1.976073   -1.434603   -0.117422
      7          6           0        3.350466   -1.228315   -0.184620
      8          6           0        3.857377    0.067901   -0.121002
      9          6           0        2.975961    1.138530    0.018541
     10          6           0        1.598491    0.936976    0.099770
     11          8           0        0.727037    1.983895    0.262231
     12          6           0       -3.726659    0.580510   -0.167942
     13          7           0       -4.619504    1.317716   -0.312162
     14          1           0       -2.592007   -2.154264    1.211503
     15          1           0       -2.585458   -2.447811   -0.539942
     16          1           0       -4.073990   -1.957699    0.271672
     17          1           0       -1.182973    1.172483   -0.211345
     18          1           0       -0.481216   -1.667203    0.214198
     19          1           0        1.578041   -2.445039   -0.179205
     20          1           0        4.016454   -2.078278   -0.292957
     21          1           0        4.925355    0.251300   -0.178008
     22          1           0        3.356617    2.156731    0.075629
     23          1           0        1.234985    2.807399    0.324392
 ---------------------------------------------------------------------

 SCF Done:  E(UB3LYP) =  -571.982666857     A.U. after   33 cycles
 SCF Done:  E(UB3LYP) =  -571.982666857     a.u. after    1 cycles

 The electronic state is 2-A.
 Alpha  occ. eigenvalues --  -19.06128 -14.26521 -14.19385 -10.14445 -10.12670
 Alpha  occ. eigenvalues --  -10.12357 -10.09830 -10.09370 -10.08557 -10.08046
 Alpha  occ. eigenvalues --  -10.07803 -10.07715 -10.07575  -0.97295  -0.87200
 Alpha  occ. eigenvalues --   -0.79343  -0.75917  -0.71149  -0.65437  -0.64803
 Alpha  occ. eigenvalues --   -0.60569  -0.55180  -0.53935  -0.49855  -0.46083
 Alpha  occ. eigenvalues --   -0.45329  -0.41597  -0.39073  -0.37406  -0.36090
 Alpha  occ. eigenvalues --   -0.34484  -0.33832  -0.33010  -0.32276  -0.30525
 Alpha  occ. eigenvalues --   -0.29194  -0.28292  -0.26904  -0.25946  -0.25465
 Alpha  occ. eigenvalues --   -0.25297  -0.24023  -0.22276  -0.16906  -0.14366
 Alpha  occ. eigenvalues --   -0.10214   0.03815
 Alpha virt. eigenvalues --    0.05494   0.06137   0.06905   0.08215   0.08341
 Alpha virt. eigenvalues --    0.09190   0.09962   0.10553   0.10879   0.11410
 Alpha virt. eigenvalues --    0.12399   0.13407   0.13592   0.13729   0.14357

  Beta  occ. eigenvalues --  -19.06077 -14.26517 -14.19352 -10.14451 -10.12623
  Beta  occ. eigenvalues --  -10.12288 -10.09826 -10.09351 -10.08524 -10.07995
  Beta  occ. eigenvalues --  -10.07751 -10.07719 -10.07524  -0.97202  -0.87138
  Beta  occ. eigenvalues --   -0.79291  -0.75831  -0.71066  -0.65326  -0.64720
  Beta  occ. eigenvalues --   -0.60475  -0.55091  -0.53813  -0.49765  -0.45992
  Beta  occ. eigenvalues --   -0.45229  -0.41533  -0.38997  -0.37336  -0.36020
  Beta  occ. eigenvalues --   -0.34378  -0.33726  -0.32929  -0.32217  -0.30476
  Beta  occ. eigenvalues --   -0.29141  -0.28187  -0.26835  -0.25873  -0.25404
  Beta  occ. eigenvalues --   -0.25167  -0.23879  -0.22241  -0.16606  -0.14223
  Beta  occ. eigenvalues --   -0.10062
  Beta virt. eigenvalues --    0.06306   0.06624   0.06990   0.07593   0.08382
  Beta virt. eigenvalues --    0.08875   0.09633   0.10399   0.10735   0.11191
  Beta virt. eigenvalues --    0.11685   0.12882   0.13590   0.13626   0.13740

 Mulliken charges and spin densities:
               1          2
     1  C    0.684772  -1.427658
     2  C    1.002363   0.515145
     3  C   -0.372599   0.201494
     4  N   -0.010967   0.057475
     5  C    1.762773  -1.533777
     6  C   -1.913958   1.797771
     7  C   -0.144951  -0.218043
     8  C    0.964130  -1.207314
     9  C   -1.429947   1.294253
    10  C    1.573193  -1.655512
    11  O   -0.254094   0.006983
    12  C   -0.916648  -0.503331
    13  N   -0.286750   0.024304
    14  H   -0.259895   0.428039
    15  H   -0.049909   0.199747
    16  H    0.030449   0.163149
    17  H    0.349716  -0.058733
    18  H    0.304978   0.018594
    19  H   -0.701008   0.822053
    20  H   -0.146880   0.307050
    21  H    0.046136   0.095055
    22  H   -1.046076   1.201701
    23  H   -0.184828   0.471553
 Sum of Mulliken charges =  -1.00000   1.00000

 Dipole moment (field-independent basis, Debye):
    X=              1.0609    Y=             -2.7840    Z=             -0.9544  Tot=              3.1284
 Quadrupole moment (field-independent basis, Debye-Ang):
   XX=           -157.5153   YY=           -126.9910   ZZ=            -98.2203
   XY=              1.5015   XZ=             -2.4464   YZ=              0.9235

 Summary of Natural Population Analysis:

                                       Natural Population
                Natural  -----------------------------------------------
    Atom  No    Charge         Core      Valence    Rydberg      Total
 -----------------------------------------------------------------------
      C    1   -0.29660      0.99964     2.29028    0.00667     3.29660
      C    2   -0.13520      0.99944     2.12747    0.00829     3.13520
      C    3    0.06444      0.99948     1.92495    0.01113     2.93556
      N    4   -0.28157      0.99966     2.77253    0.00938     3.78157
      C    5    0.06333      0.99944     1.92483    0.01239     2.93667
      C    6   -0.10214      0.99954     2.09278    0.00981     3.10214
      C    7   -0.11169      0.99956     2.10228    0.00984     3.11169
      C    8   -0.09710      0.99957     2.08754    0.00999     3.09710
      C    9   -0.12507      0.99953     2.11507    0.01047     3.12507
      C   10    0.14476      0.99936     1.84256    0.01331     2.85524
      O   11   -0.34622      0.99988     3.33904    0.00730     4.34622
      C   12    0.14942      0.99963     1.83264    0.01831     2.85058
      N   13   -0.20462      0.99979     2.69402    0.01081     3.70462
      H   14    0.10485      0.00000     0.39345    0.00170     0.39515
      H   15    0.10110      0.00000     0.39771    0.00119     0.39890
      H   16    0.10919      0.00000     0.38979    0.00102     0.39081
      H   17    0.11679      0.00000     0.38143    0.00178     0.38321
      H   18    0.19653      0.00000     0.30012    0.00334     0.30347
      H   19    0.10104      0.00000     0.39731    0.00164     0.39896
      H   20    0.10085      0.00000     0.39817    0.00099     0.39915
      H   21    0.10016      0.00000     0.39890    0.00094     0.39984
      H   22    0.10423      0.00000     0.39249    0.00328     0.39577
      H   23    0.24350      0.00000     0.24825    0.00825     0.25650
 =======================================================================
   * Total *    0.00000     12.99453    32.84363    0.16184    46.00000

 Normal termination of Gaussian 16 at Thu Dec 10 00:10:55 2020.
