 Gaussian 16, Revision A.03,

 -----------------------------------------------------------
 # opt freq B3LYP/6-31G(d) empiricaldispersion=gd3bj scf=xqc
 -----------------------------------------------------------

 ------------------------------
 CID_69141863_JID_3032_neutraal
 ------------------------------
 Symbolic Z-matrix:
 Charge =  0 Multiplicity = 1

 SCF Done:  E(RB3LYP) =  -594.138303717     A.U. after   15 cycles
 SCF Done:  E(RB3LYP) =  -594.134666659     A.U. after   13 cycles
 SCF Done:  E(RB3LYP) =  -594.141135638     A.U. after   12 cycles
 SCF Done:  E(RB3LYP) =  -594.138078142     A.U. after   13 cycles
 SCF Done:  E(RB3LYP) =  -594.140911918     A.U. after   13 cycles
 SCF Done:  E(RB3LYP) =  -594.142940632     A.U. after   11 cycles
 SCF Done:  E(RB3LYP) =  -594.143762386     A.U. after   12 cycles
 SCF Done:  E(RB3LYP) =  -594.144298919     A.U. after   12 cycles
 SCF Done:  E(RB3LYP) =  -594.144272652     A.U. after   11 cycles
 SCF Done:  E(RB3LYP) =  -594.144340822     A.U. after   11 cycles
 SCF Done:  E(RB3LYP) =  -594.144471807     A.U. after    9 cycles
 SCF Done:  E(RB3LYP) =  -594.144478646     A.U. after   10 cycles
 SCF Done:  E(RB3LYP) =  -594.144479562     A.U. after    9 cycles
 SCF Done:  E(RB3LYP) =  -594.144479676     A.U. after    7 cycles
 Optimization completed.
    -- Stationary point found.
 Normal termination of Gaussian 16 at Wed Dec  9 22:24:13 2020.

 --------------------------------------------------------------------
 #N Geom=AllCheck Guess=TCheck SCRF=Check GenChk RB3LYP/6-31G(d) Freq
 --------------------------------------------------------------------

 Structure from the checkpoint file:  "JID_3032.chk"
 ------------------------------
 CID_69141863_JID_3032_neutraal
 ------------------------------
 Charge =  0 Multiplicity = 1

 SCF Done:  E(RB3LYP) =  -594.144479676     A.U. after    1 cycles

  Exact polarizability: 135.820  -5.151 133.050   3.568   2.049  68.920
 Approx polarizability: 203.174  -1.433 209.754  12.488   6.821 108.037

                      1                      2                      3
                      A                      A                      A
 Frequencies --     56.6704                94.2563                99.6153
 Red. masses --      8.0022                 3.7864                 3.7633
 Frc consts  --      0.0151                 0.0198                 0.0220
 IR Inten    --      1.6481                 0.4715                 1.4590

                      4                      5                      6
                      A                      A                      A
 Frequencies --    169.7670               201.7441               230.4836
 Red. masses --      3.4844                 3.7461                 1.2407
 Frc consts  --      0.0592                 0.0898                 0.0388
 IR Inten    --      1.3928                 0.1866                 0.8250

                      7                      8                      9
                      A                      A                      A
 Frequencies --    256.6768               294.2123               311.3739
 Red. masses --      3.0413                 3.8212                 1.1955
 Frc consts  --      0.1181                 0.1949                 0.0683
 IR Inten    --      3.7655                 3.6949                40.3488

                     10                     11                     12
                      A                      A                      A
 Frequencies --    321.2106               345.5512               371.2080
 Red. masses --      3.5132                 1.3925                 2.2275
 Frc consts  --      0.2136                 0.0980                 0.1808
 IR Inten    --      1.7302                13.3957                 2.4841

                     13                     14                     15
                      A                      A                      A
 Frequencies --    392.0656               411.7426               424.7380
 Red. masses --      3.3460                 2.9007                 2.7022
 Frc consts  --      0.3030                 0.2897                 0.2872
 IR Inten    --      4.7830                 0.7519                 4.8101

                     16                     17                     18
                      A                      A                      A
 Frequencies --    497.8491               557.1092               561.8545
 Red. masses --      3.1145                 3.6398                 3.2084
 Frc consts  --      0.4548                 0.6656                 0.5967
 IR Inten    --      7.6534                 2.1399                 6.2941

                     19                     20                     21
                      A                      A                      A
 Frequencies --    578.4201               619.1754               643.1472
 Red. masses --      3.5321                 1.2904                 4.9362
 Frc consts  --      0.6963                 0.2915                 1.2030
 IR Inten    --      4.5416                57.5736                34.1757

                     22                     23                     24
                      A                      A                      A
 Frequencies --    706.0783               747.5116               777.4211
 Red. masses --      4.3181                 3.4197                 1.6740
 Frc consts  --      1.2684                 1.1258                 0.5961
 IR Inten    --     18.4564                47.0300                37.6823

                     25                     26                     27
                      A                      A                      A
 Frequencies --    789.2012               809.5997               860.6908
 Red. masses --      3.8262                 3.5316                 2.7473
 Frc consts  --      1.4041                 1.3638                 1.1991
 IR Inten    --     20.7583                11.1015                33.5971

                     28                     29                     30
                      A                      A                      A
 Frequencies --    897.0488               936.3777               942.3553
 Red. masses --      1.4730                 1.4901                 1.6631
 Frc consts  --      0.6984                 0.7698                 0.8701
 IR Inten    --      9.5617                 9.9967                97.5885

                     31                     32                     33
                      A                      A                      A
 Frequencies --    968.4959               976.0683               995.4905
 Red. masses --      1.3658                 1.6075                 1.2853
 Frc consts  --      0.7548                 0.9023                 0.7505
 IR Inten    --      0.4531                 5.7103                 0.2079

                     34                     35                     36
                      A                      A                      A
 Frequencies --   1037.4246              1082.4352              1085.9252
 Red. masses --      1.3326                 4.2462                 2.9478
 Frc consts  --      0.8450                 2.9313                 2.0481
 IR Inten    --      5.0461                37.9864                 4.8991

                     37                     38                     39
                      A                      A                      A
 Frequencies --   1117.3807              1146.1624              1165.8897
 Red. masses --      2.2503                 1.7704                 2.0054
 Frc consts  --      1.6553                 1.3703                 1.6061
 IR Inten    --     58.0700                34.3706                 9.4308

                     40                     41                     42
                      A                      A                      A
 Frequencies --   1208.6805              1212.9105              1227.6921
 Red. masses --      1.1394                 2.2855                 1.7788
 Frc consts  --      0.9808                 1.9810                 1.5796
 IR Inten    --      8.8755                18.1669               178.0831

                     43                     44                     45
                      A                      A                      A
 Frequencies --   1259.4442              1325.6802              1334.1757
 Red. masses --      2.3221                 1.5445                 6.0514
 Frc consts  --      2.1702                 1.5993                 6.3465
 IR Inten    --     19.2813                 1.0938                12.1664

                     46                     47                     48
                      A                      A                      A
 Frequencies --   1373.6383              1378.6398              1423.3656
 Red. masses --      2.5672                 1.9140                 1.2491
 Frc consts  --      2.8540                 2.1434                 1.4910
 IR Inten    --     89.0574                24.7877                 4.2070

                     49                     50                     51
                      A                      A                      A
 Frequencies --   1444.4814              1488.9642              1511.6957
 Red. masses --      1.2245                 2.1643                 1.0803
 Frc consts  --      1.5054                 2.8271                 1.4546
 IR Inten    --      9.8929                10.0564                 1.0832

                     52                     53                     54
                      A                      A                      A
 Frequencies --   1524.9770              1532.0217              1535.7155
 Red. masses --      1.2076                 1.0752                 1.7597
 Frc consts  --      1.6546                 1.4868                 2.4451
 IR Inten    --      1.5638                 0.6771                 6.3225

                     55                     56                     57
                      A                      A                      A
 Frequencies --   1554.4161              1628.4255              1661.8064
 Red. masses --      1.0679                 5.4284                 5.3582
 Frc consts  --      1.5202                 8.4812                 8.7183
 IR Inten    --      3.5327                 0.8591                13.7741

                     58                     59                     60
                      A                      A                      A
 Frequencies --   1707.8955              1822.8171              3050.6277
 Red. masses --      1.0913                 9.6246                 1.0408
 Frc consts  --      1.8754                18.8416                 5.7067
 IR Inten    --     28.2041               290.5097                14.7232

                     61                     62                     63
                      A                      A                      A
 Frequencies --   3059.4317              3108.4793              3120.7466
 Red. masses --      1.0382                 1.1017                 1.1000
 Frc consts  --      5.7253                 6.2719                 6.3121
 IR Inten    --     31.1882                11.5110                54.4491

                     64                     65                     66
                      A                      A                      A
 Frequencies --   3148.8358              3171.4752              3191.5523
 Red. masses --      1.1033                 1.0942                 1.0869
 Frc consts  --      6.4451                 6.4843                 6.5232
 IR Inten    --     20.1159                21.7249                 5.1933

                     67                     68                     69
                      A                      A                      A
 Frequencies --   3208.3745              3225.2013              3251.5227
 Red. masses --      1.0922                 1.0944                 1.0900
 Frc consts  --      6.6241                 6.7071                 6.7898
 IR Inten    --     16.9962                 9.8246                 8.4819

                     70                     71                     72
                      A                      A                      A
 Frequencies --   3464.0846              3579.1341              3677.3747
 Red. masses --      1.0536                 1.0868                 1.0638
 Frc consts  --      7.4492                 8.2027                 8.4762
 IR Inten    --     15.6829                19.2797                65.7265

 - Thermochemistry -
 -------------------
 Temperature   298.150 Kelvin.  Pressure   1.00000 Atm.
 Atom     1 has atomic number  6 and mass  12.00000

 Molecular mass:   179.09463 amu.
 Principal axes and moments of inertia in atomic units:
                           1         2         3
     Eigenvalues --  1912.704522099.580913466.79608
           X            0.99776  -0.06544  -0.01409
           Y            0.06537   0.99785  -0.00510
           Z            0.01439   0.00416   0.99989
 This molecule is an asymmetric top.
 Rotational symmetry number  1.
 Warning -- assumption of classical behavior for rotation
           may cause significant error
 Rotational temperatures (Kelvin)      0.04528     0.04125     0.02498
 Rotational constants (GHZ):           0.94355     0.85957     0.52058
 Zero-point vibrational energy     573577.8 (Joules/Mol)
                                  137.08837 (Kcal/Mol)
 Warning -- explicit consideration of  20 degrees of freedom as
           vibrations may cause significant error
 Vibrational temperatures:     81.54   135.61   143.32   244.26   290.26
          (Kelvin)            331.61   369.30   423.31   448.00   462.15
                              497.17   534.09   564.10   592.41   611.10
                              716.29   801.56   808.38   832.22   890.86
                              925.35  1015.89  1075.50  1118.54  1135.48
                             1164.83  1238.34  1290.65  1347.24  1355.84
                             1393.45  1404.34  1432.29  1492.62  1557.38
                             1562.40  1607.66  1649.07  1677.46  1739.02
                             1745.11  1766.38  1812.06  1907.36  1919.58
                             1976.36  1983.56  2047.91  2078.29  2142.29
                             2174.99  2194.10  2204.24  2209.55  2236.46
                             2342.94  2390.97  2457.28  2622.63  4389.17
                             4401.84  4472.41  4490.06  4530.47  4563.05
                             4591.93  4616.14  4640.35  4678.22  4984.05
                             5149.58  5290.92

 Zero-point correction=                           0.218464 (Hartree/Particle)
 Thermal correction to Energy=                    0.230715
 Thermal correction to Enthalpy=                  0.231659
 Thermal correction to Gibbs Free Energy=         0.180770
 Sum of electronic and zero-point Energies=           -593.926015
 Sum of electronic and thermal Energies=              -593.913765
 Sum of electronic and thermal Enthalpies=            -593.912820
 Sum of electronic and thermal Free Energies=         -593.963710

                     E (Thermal)             CV                S
                      KCal/Mol        Cal/Mol-Kelvin    Cal/Mol-Kelvin
 Total                  144.776             48.410            107.106
 Electronic               0.000              0.000              0.000
 Translational            0.889              2.981             41.455
 Rotational               0.889              2.981             31.010
 Vibrational            142.998             42.449             34.641
 Vibration     1          0.596              1.975              4.570
 Vibration     2          0.603              1.953              3.570
 Vibration     3          0.604              1.949              3.462
 Vibration     4          0.625              1.880              2.438
 Vibration     5          0.639              1.837              2.117
 Vibration     6          0.652              1.794              1.875
 Vibration     7          0.666              1.751              1.684
 Vibration     8          0.689              1.685              1.450
 Vibration     9          0.700              1.652              1.355
 Vibration    10          0.707              1.633              1.304
 Vibration    11          0.724              1.584              1.186
 Vibration    12          0.743              1.531              1.075
 Vibration    13          0.760              1.487              0.992
 Vibration    14          0.776              1.445              0.920
 Vibration    15          0.787              1.416              0.876
 Vibration    16          0.853              1.255              0.664
 Vibration    17          0.913              1.124              0.530
 Vibration    18          0.918              1.114              0.520
 Vibration    19          0.935              1.078              0.488
 Vibration    20          0.979              0.991              0.418

 Optimization completed.
    -- Stationary point found.
 Normal termination of Gaussian 16 at Wed Dec  9 22:31:06 2020.

 ----------------------------------------------------------------------
 # B3LYP/6-311++G(d,p) empiricaldispersion=gd3bj scf=xqc pop=npa geom=c
 heck
 ----------------------------------------------------------------------

 --------------------------------------
 CID_69141863_JID_3032_Energie_neutraal
 --------------------------------------
 Structure from the checkpoint file:  "JID_3032.chk"
 Charge =  0 Multiplicity = 1

 SCF Done:  E(RB3LYP) =  -594.324440083     A.U. after   16 cycles
 Normal termination of Gaussian 16 at Wed Dec  9 22:33:47 2020.

 ----------------------------------------------------------------------
 # B3LYP/6-311++G(d,p) empiricaldispersion=gd3bj scf=xqc pop=npa geom=c
 heck
 ----------------------------------------------------------------------

 ------------------------------------
 CID_69141863_JID_3032_Energie_kation
 ------------------------------------
 Structure from the checkpoint file:  "JID_3032.chk"
 Charge =  1 Multiplicity = 2

 SCF Done:  E(UB3LYP) =  -594.003962333     A.U. after   33 cycles
 SCF Done:  E(UB3LYP) =  -594.003962557     a.u. after    3 cycles
 Normal termination of Gaussian 16 at Wed Dec  9 22:53:32 2020.
 Gaussian 16:  ES64L-G16RevA.03 25-Dec-2016

 ----------------------------------------------------------------------
 # B3LYP/6-311++G(d,p) empiricaldispersion=gd3bj scf=xqc pop=npa geom=c
 heck
 ----------------------------------------------------------------------

 -----------------------------------
 CID_69141863_JID_3032_Energie_anion
 -----------------------------------
 Structure from the checkpoint file:  "JID_3032.chk"
 Charge = -1 Multiplicity = 2

                         Standard orientation:
 ---------------------------------------------------------------------
 Center     Atomic      Atomic             Coordinates (Angstroms)
 Number     Number       Type             X           Y           Z
 ---------------------------------------------------------------------
      1          6           0       -2.509964   -1.516617    0.355171
      2          6           0       -1.630721   -0.287574    0.058039
      3          6           0       -1.868547    0.712487    1.217653
      4          6           0       -0.130939   -0.657155   -0.036954
      5          6           0        0.239395   -2.007237   -0.105844
      6          6           0        1.568014   -2.427069   -0.124416
      7          6           0        2.595258   -1.492131   -0.047639
      8          6           0        2.265678   -0.145238    0.023318
      9          6           0        0.928678    0.284895   -0.001425
     10          6           0        0.820346    1.774581    0.022544
     11          8           0        1.509085    2.503344    0.704598
     12          8           0       -0.062011    2.294394   -0.878186
     13          7           0       -2.068085    0.201655   -1.264685
     14          1           0       -2.212538   -2.021304    1.279598
     15          1           0       -2.489905   -2.227475   -0.474186
     16          1           0       -3.547538   -1.185106    0.476088
     17          1           0       -1.522693    0.300979    2.172901
     18          1           0       -1.372534    1.670851    1.062022
     19          1           0       -2.942842    0.913206    1.306571
     20          1           0       -0.530633   -2.765820   -0.138341
     21          1           0        1.792266   -3.488368   -0.185040
     22          1           0        3.635582   -1.802664   -0.041120
     23          1           0        3.043082    0.607822    0.091957
     24          1           0       -0.000868    3.262881   -0.771995
     25          1           0       -3.054309    0.456447   -1.204056
     26          1           0       -1.560259    1.051405   -1.495593
 ---------------------------------------------------------------------

 SCF Done:  E(UB3LYP) =  -594.320593582     A.U. after   33 cycles
 SCF Done:  E(UB3LYP) =  -594.320593582     a.u. after    1 cycles

 The electronic state is 2-A.
 Alpha  occ. eigenvalues --  -19.02966 -18.95826 -14.16142 -10.14291 -10.09083
 Alpha  occ. eigenvalues --  -10.04372 -10.04302 -10.03671 -10.03547 -10.03494
 Alpha  occ. eigenvalues --  -10.03480 -10.03417 -10.02807  -0.96605  -0.87170
 Alpha  occ. eigenvalues --   -0.77026  -0.71725  -0.64289  -0.62414  -0.60093
 Alpha  occ. eigenvalues --   -0.56824  -0.52054  -0.48818  -0.44933  -0.43378
 Alpha  occ. eigenvalues --   -0.39303  -0.36769  -0.34226  -0.34023  -0.33529
 Alpha  occ. eigenvalues --   -0.32940  -0.31367  -0.30053  -0.29169  -0.27885
 Alpha  occ. eigenvalues --   -0.26940  -0.26160  -0.25138  -0.24818  -0.22994
 Alpha  occ. eigenvalues --   -0.22543  -0.20715  -0.19873  -0.18768  -0.14509
 Alpha  occ. eigenvalues --   -0.12164  -0.11826  -0.11703   0.05342
 Alpha virt. eigenvalues --    0.07512   0.08598   0.08921   0.10146   0.10619
 Alpha virt. eigenvalues --    0.10985   0.11650   0.12251   0.12944   0.13349
 Alpha virt. eigenvalues --    0.13833   0.14706   0.15619   0.15912   0.16950

  Beta  occ. eigenvalues --  -19.02900 -18.95596 -14.16116 -10.14030 -10.09094
  Beta  occ. eigenvalues --  -10.04287 -10.04181 -10.03550 -10.03547 -10.03512
  Beta  occ. eigenvalues --  -10.03478 -10.03337 -10.02527  -0.96318  -0.86818
  Beta  occ. eigenvalues --   -0.76949  -0.71428  -0.64147  -0.61931  -0.59909
  Beta  occ. eigenvalues --   -0.56776  -0.51467  -0.48725  -0.44698  -0.43188
  Beta  occ. eigenvalues --   -0.39208  -0.36585  -0.34023  -0.33854  -0.33311
  Beta  occ. eigenvalues --   -0.32545  -0.31139  -0.29836  -0.28881  -0.27655
  Beta  occ. eigenvalues --   -0.26756  -0.26105  -0.25033  -0.24731  -0.22595
  Beta  occ. eigenvalues --   -0.22129  -0.20571  -0.19758  -0.17896  -0.14158
  Beta  occ. eigenvalues --   -0.11853  -0.11282  -0.10476
  Beta virt. eigenvalues --    0.07730   0.08846   0.09255   0.10238   0.10404
  Beta virt. eigenvalues --    0.10830   0.11049   0.11817   0.12324   0.13085
  Beta virt. eigenvalues --    0.13412   0.13808   0.14910   0.15686   0.16752

 Mulliken charges and spin densities:
               1          2
     1  C   -0.231657  -0.470342
     2  C   -0.660843   1.125170
     3  C   -0.276840  -0.600966
     4  C    0.937198  -0.479936
     5  C   -0.345659  -0.029837
     6  C    0.025314  -0.101084
     7  C   -0.602364   0.189570
     8  C   -0.400926  -0.041790
     9  C    0.251251   0.331308
    10  C    0.549929  -0.415666
    11  O   -0.343660   0.093893
    12  O   -0.207256   0.013845
    13  N   -0.328991  -0.056131
    14  H    0.051667   0.073713
    15  H    0.114580   0.035722
    16  H   -0.083619   0.212177
    17  H    0.122336   0.003488
    18  H   -0.261738   0.459325
    19  H   -0.155234   0.278259
    20  H    0.035224   0.056788
    21  H    0.114160  -0.012298
    22  H    0.092925   0.008100
    23  H    0.173215  -0.015708
    24  H    0.017589   0.262928
    25  H    0.104764   0.104088
    26  H    0.308635  -0.024616
 Sum of Mulliken charges =  -1.00000   1.00000

 Dipole moment (field-independent basis, Debye):
    X=             -0.1576    Y=             -2.5229    Z=             -0.5228  Tot=              2.5813
 Quadrupole moment (field-independent basis, Debye-Ang):
   XX=           -107.9500   YY=           -109.1943   ZZ=            -97.9490
   XY=             -1.3007   XZ=             -1.9403   YZ=             -6.6941

 Summary of Natural Population Analysis:

                                       Natural Population
                Natural  -----------------------------------------------
    Atom  No    Charge         Core      Valence    Rydberg      Total
 -----------------------------------------------------------------------
      C    1   -0.28650      0.99964     2.28087    0.00600     3.28650
      C    2    0.04422      0.99957     1.94379    0.01242     2.95578
      C    3   -0.29001      0.99962     2.28334    0.00705     3.29001
      C    4    0.03541      0.99946     1.95293    0.01221     2.96459
      C    5   -0.12063      0.99953     2.11309    0.00801     3.12063
      C    6   -0.04994      0.99957     2.04093    0.00944     3.04994
      C    7   -0.11816      0.99956     2.10972    0.00887     3.11816
      C    8   -0.06582      0.99954     2.05849    0.00779     3.06582
      C    9   -0.05182      0.99941     2.04057    0.01183     3.05182
      C   10    0.43144      0.99966     1.54324    0.02566     2.56856
      O   11   -0.30212      0.99987     3.29669    0.00556     4.30212
      O   12   -0.36137      0.99987     3.35445    0.00704     4.36137
      N   13   -0.42649      0.99975     2.91636    0.01038     3.92649
      H   14    0.10028      0.00000     0.39893    0.00080     0.39972
      H   15    0.10248      0.00000     0.39645    0.00107     0.39752
      H   16    0.09495      0.00000     0.40418    0.00087     0.40505
      H   17    0.09915      0.00000     0.40006    0.00080     0.40085
      H   18    0.10643      0.00000     0.39192    0.00165     0.39357
      H   19    0.09193      0.00000     0.40689    0.00119     0.40807
      H   20    0.09553      0.00000     0.40292    0.00155     0.40447
      H   21    0.08675      0.00000     0.41202    0.00123     0.41325
      H   22    0.09137      0.00000     0.40767    0.00096     0.40863
      H   23    0.10140      0.00000     0.39747    0.00113     0.39860
      H   24    0.23764      0.00000     0.25786    0.00451     0.26236
      H   25    0.16404      0.00000     0.33443    0.00153     0.33596
      H   26    0.18985      0.00000     0.30805    0.00210     0.31015
 =======================================================================
   * Total *   -0.00000     12.99504    34.85332    0.15164    48.00000

 Normal termination of Gaussian 16 at Wed Dec  9 23:01:16 2020.
