 Gaussian 16, Revision A.03,

 -----------------------------------------------------------
 # opt freq B3LYP/6-31G(d) empiricaldispersion=gd3bj scf=xqc
 -----------------------------------------------------------

 ------------------------------
 CID_84656189_JID_3779_neutraal
 ------------------------------
 Symbolic Z-matrix:
 Charge =  0 Multiplicity = 1

 SCF Done:  E(RB3LYP) =  -558.224248722     A.U. after   14 cycles
 SCF Done:  E(RB3LYP) =  -558.227366181     A.U. after   12 cycles
 SCF Done:  E(RB3LYP) =  -558.227558943     A.U. after   11 cycles
 SCF Done:  E(RB3LYP) =  -558.227578364     A.U. after   10 cycles
 SCF Done:  E(RB3LYP) =  -558.227581060     A.U. after    8 cycles
 SCF Done:  E(RB3LYP) =  -558.227581736     A.U. after    7 cycles
 Optimization completed.
    -- Stationary point found.
 Normal termination of Gaussian 16 at Sun Dec 13 19:59:38 2020.

 --------------------------------------------------------------------
 #N Geom=AllCheck Guess=TCheck SCRF=Check GenChk RB3LYP/6-31G(d) Freq
 --------------------------------------------------------------------

 Structure from the checkpoint file:  "JID_3779.chk"
 ------------------------------
 CID_84656189_JID_3779_neutraal
 ------------------------------
 Charge =  0 Multiplicity = 1

 SCF Done:  E(RB3LYP) =  -558.227581737     A.U. after    1 cycles

  Exact polarizability: 158.651   1.793 128.215  11.057  -3.285  75.921
 Approx polarizability: 221.655   6.684 203.018  30.958  -2.138 120.858

                      1                      2                      3
                      A                      A                      A
 Frequencies --     75.7057               101.0198               143.7019
 Red. masses --      3.7071                 3.1416                 3.3439
 Frc consts  --      0.0125                 0.0189                 0.0407
 IR Inten    --      1.8173                 0.8194                 2.6571

                      4                      5                      6
                      A                      A                      A
 Frequencies --    184.1247               225.5046               268.4669
 Red. masses --      2.8693                 2.9449                 1.0458
 Frc consts  --      0.0573                 0.0882                 0.0444
 IR Inten    --      1.3925                 1.0831                21.2891

                      7                      8                      9
                      A                      A                      A
 Frequencies --    283.1946               292.9738               335.4205
 Red. masses --      2.5029                 3.6126                 2.8020
 Frc consts  --      0.1183                 0.1827                 0.1857
 IR Inten    --      3.6310                 0.7889                 0.2247

                     10                     11                     12
                      A                      A                      A
 Frequencies --    350.5673               397.2124               437.3468
 Red. masses --      2.5183                 3.8189                 2.2211
 Frc consts  --      0.1823                 0.3550                 0.2503
 IR Inten    --      1.6732                 1.2449                 3.7161

                     13                     14                     15
                      A                      A                      A
 Frequencies --    468.0175               483.6218               491.1797
 Red. masses --      3.8490                 2.4254                 2.6457
 Frc consts  --      0.4967                 0.3342                 0.3761
 IR Inten    --      6.4461                 3.5757                 3.8591

                     16                     17                     18
                      A                      A                      A
 Frequencies --    556.8064               589.1893               621.5308
 Red. masses --      4.2106                 2.8286                 2.5695
 Frc consts  --      0.7691                 0.5785                 0.5848
 IR Inten    --     10.0163                31.9415                79.4870

                     19                     20                     21
                      A                      A                      A
 Frequencies --    674.4052               730.1534               742.7083
 Red. masses --      1.7603                 3.7020                 3.5902
 Frc consts  --      0.4717                 1.1628                 1.1668
 IR Inten    --    258.7482                 4.7147                 0.9474

                     22                     23                     24
                      A                      A                      A
 Frequencies --    759.3077               789.5565               824.8798
 Red. masses --      2.7168                 2.8146                 1.5174
 Frc consts  --      0.9229                 1.0338                 0.6083
 IR Inten    --     11.1810                 1.2246                13.3434

                     25                     26                     27
                      A                      A                      A
 Frequencies --    830.5906               865.6609               880.1948
 Red. masses --      1.8764                 1.5818                 2.0376
 Frc consts  --      0.7627                 0.6984                 0.9301
 IR Inten    --     14.1267                21.4806                 4.0174

                     28                     29                     30
                      A                      A                      A
 Frequencies --    898.8275               930.1636               958.0168
 Red. masses --      2.0258                 1.3168                 2.6326
 Frc consts  --      0.9643                 0.6712                 1.4236
 IR Inten    --      9.2103                 0.6282                 5.1540

                     31                     32                     33
                      A                      A                      A
 Frequencies --    981.7771              1019.6609              1024.9302
 Red. masses --      2.0300                 2.5044                 2.0659
 Frc consts  --      1.1529                 1.5341                 1.2786
 IR Inten    --      2.6707                19.7879                17.2072

                     34                     35                     36
                      A                      A                      A
 Frequencies --   1078.9500              1110.2105              1122.4400
 Red. masses --      3.2168                 1.8162                 1.9847
 Frc consts  --      2.2064                 1.3190                 1.4733
 IR Inten    --     41.2404                 4.6463                15.1577

                     37                     38                     39
                      A                      A                      A
 Frequencies --   1135.9941              1155.0587              1189.8956
 Red. masses --      1.5894                 1.7267                 1.5220
 Frc consts  --      1.2085                 1.3573                 1.2696
 IR Inten    --      2.1185                12.7222                 1.6174

                     40                     41                     42
                      A                      A                      A
 Frequencies --   1210.1510              1243.4841              1257.1574
 Red. masses --      1.4165                 1.3439                 1.8539
 Frc consts  --      1.2222                 1.2243                 1.7263
 IR Inten    --      0.9634                22.9165               147.1753

                     43                     44                     45
                      A                      A                      A
 Frequencies --   1284.5508              1303.3740              1306.7113
 Red. masses --      1.3050                 1.2689                 1.5905
 Frc consts  --      1.2687                 1.2700                 1.6001
 IR Inten    --      2.2494                17.4898                 1.3290

                     46                     47                     48
                      A                      A                      A
 Frequencies --   1325.4733              1345.1980              1374.4999
 Red. masses --      1.1839                 3.0967                 3.0702
 Frc consts  --      1.2255                 3.3016                 3.4175
 IR Inten    --     14.0291                 6.3366                 3.4509

                     49                     50                     51
                      A                      A                      A
 Frequencies --   1389.4399              1393.5832              1406.2631
 Red. masses --      1.4031                 1.3307                 1.4216
 Frc consts  --      1.5960                 1.5226                 1.6564
 IR Inten    --      3.9350                 2.5392                 4.5177

                     52                     53                     54
                      A                      A                      A
 Frequencies --   1415.6101              1433.8700              1495.1636
 Red. masses --      1.4682                 1.3007                 2.7057
 Frc consts  --      1.7335                 1.5756                 3.5637
 IR Inten    --      0.4316                23.0525                10.2376

                     55                     56                     57
                      A                      A                      A
 Frequencies --   1509.3269              1510.1165              1517.6023
 Red. masses --      1.0914                 1.1650                 1.1040
 Frc consts  --      1.4649                 1.5653                 1.4981
 IR Inten    --      8.8491                 3.4837                14.5391

                     58                     59                     60
                      A                      A                      A
 Frequencies --   1520.6640              1527.2949              1557.4173
 Red. masses --      1.1236                 1.1330                 2.6132
 Frc consts  --      1.5308                 1.5571                 3.7345
 IR Inten    --      2.9881                 2.8602               138.5002

                     61                     62                     63
                      A                      A                      A
 Frequencies --   1645.6862              1672.9754              1695.7441
 Red. masses --      6.6257                 3.7314                 1.2903
 Frc consts  --     10.5725                 6.1532                 2.1860
 IR Inten    --      2.4932                14.5997                92.1554

                     64                     65                     66
                      A                      A                      A
 Frequencies --   3013.3130              3025.4576              3031.3452
 Red. masses --      1.0677                 1.0610                 1.0634
 Frc consts  --      5.7120                 5.7220                 5.7572
 IR Inten    --     51.5022                15.2170                30.1616

                     67                     68                     69
                      A                      A                      A
 Frequencies --   3043.0690              3048.8165              3065.8669
 Red. masses --      1.0672                 1.0657                 1.0937
 Frc consts  --      5.8226                 5.8365                 6.0572
 IR Inten    --     32.8241                23.1098                61.2100

                     70                     71                     72
                      A                      A                      A
 Frequencies --   3072.5853              3077.9259              3097.0700
 Red. masses --      1.1019                 1.0989                 1.1017
 Frc consts  --      6.1292                 6.1340                 6.2264
 IR Inten    --     58.4201                11.3788                18.2761

                     73                     74                     75
                      A                      A                      A
 Frequencies --   3102.2961              3162.0367              3177.1316
 Red. masses --      1.0975                 1.0894                 1.0881
 Frc consts  --      6.2235                 6.4178                 6.4713
 IR Inten    --     86.6075                21.5227                19.9356

                     76                     77                     78
                      A                      A                      A
 Frequencies --   3203.7457              3540.6208              3637.7901
 Red. masses --      1.0935                 1.0481                 1.0973
 Frc consts  --      6.6125                 7.7414                 8.5555
 IR Inten    --     12.6463                 8.1364                 5.9513

 - Thermochemistry -
 -------------------
 Temperature   298.150 Kelvin.  Pressure   1.00000 Atm.
 Atom     1 has atomic number  6 and mass  12.00000

 Molecular mass:   177.11536 amu.
 Principal axes and moments of inertia in atomic units:
                           1         2         3
     Eigenvalues --  1238.640803058.647593767.99401
           X            0.99996  -0.00543  -0.00667
           Y            0.00527   0.99970  -0.02379
           Z            0.00679   0.02375   0.99969
 This molecule is an asymmetric top.
 Rotational symmetry number  1.
 Warning -- assumption of classical behavior for rotation
           may cause significant error
 Rotational temperatures (Kelvin)      0.06993     0.02832     0.02299
 Rotational constants (GHZ):           1.45703     0.59005     0.47897
 Zero-point vibrational energy     643886.4 (Joules/Mol)
                                  153.89254 (Kcal/Mol)
 Warning -- explicit consideration of  17 degrees of freedom as
           vibrations may cause significant error
 Vibrational temperatures:    108.92   145.34   206.76   264.91   324.45
          (Kelvin)            386.26   407.45   421.52   482.60   504.39
                              571.50   629.24   673.37   695.82   706.70
                              801.12   847.71   894.24   970.32  1050.53
                             1068.59  1092.47  1136.00  1186.82  1195.03
                             1245.49  1266.40  1293.21  1338.30  1378.37
                             1412.56  1467.06  1474.65  1552.37  1597.35
                             1614.94  1634.44  1661.87  1711.99  1741.14
                             1789.10  1808.77  1848.18  1875.26  1880.07
                             1907.06  1935.44  1977.60  1999.09  2005.06
                             2023.30  2036.75  2063.02  2151.21  2171.58
                             2172.72  2183.49  2187.90  2197.44  2240.78
                             2367.78  2407.04  2439.80  4335.49  4352.96
                             4361.43  4378.30  4386.57  4411.10  4420.76
                             4428.45  4455.99  4463.51  4549.47  4571.18
                             4609.48  5094.16  5233.97

 Zero-point correction=                           0.245243 (Hartree/Particle)
 Thermal correction to Energy=                    0.256546
 Thermal correction to Enthalpy=                  0.257491
 Thermal correction to Gibbs Free Energy=         0.208746
 Sum of electronic and zero-point Energies=           -557.982338
 Sum of electronic and thermal Energies=              -557.971035
 Sum of electronic and thermal Enthalpies=            -557.970091
 Sum of electronic and thermal Free Energies=         -558.018835

                     E (Thermal)             CV                S
                      KCal/Mol        Cal/Mol-Kelvin    Cal/Mol-Kelvin
 Total                  160.985             46.260            102.591
 Electronic               0.000              0.000              0.000
 Translational            0.889              2.981             41.422
 Rotational               0.889              2.981             31.035
 Vibrational            159.208             40.299             30.134
 Vibration     1          0.599              1.965              3.999
 Vibration     2          0.604              1.948              3.435
 Vibration     3          0.616              1.909              2.754
 Vibration     4          0.631              1.861              2.286
 Vibration     5          0.650              1.802              1.914
 Vibration     6          0.673              1.731              1.606
 Vibration     7          0.682              1.705              1.514
 Vibration     8          0.688              1.687              1.457
 Vibration     9          0.717              1.605              1.234
 Vibration    10          0.727              1.574              1.164
 Vibration    11          0.764              1.476              0.973
 Vibration    12          0.798              1.389              0.835
 Vibration    13          0.825              1.321              0.743
 Vibration    14          0.840              1.286              0.700
 Vibration    15          0.847              1.270              0.681
 Vibration    16          0.912              1.125              0.530
 Vibration    17          0.946              1.055              0.469

                           ! Non-Optimized Parameters !
 Normal termination of Gaussian 16 at Sun Dec 13 20:07:13 2020.

 ----------------------------------------------------------------------
 # B3LYP/6-311++G(d,p) empiricaldispersion=gd3bj scf=xqc pop=npa geom=c
 heck
 ----------------------------------------------------------------------

 --------------------------------------
 CID_84656189_JID_3779_Energie_neutraal
 --------------------------------------
 Structure from the checkpoint file:  "JID_3779.chk"
 Charge =  0 Multiplicity = 1

 SCF Done:  E(RB3LYP) =  -558.383207968     A.U. after   15 cycles
 Normal termination of Gaussian 16 at Sun Dec 13 20:10:43 2020.

 ----------------------------------------------------------------------
 # B3LYP/6-311++G(d,p) empiricaldispersion=gd3bj scf=xqc pop=npa geom=c
 heck
 ----------------------------------------------------------------------

 ------------------------------------
 CID_84656189_JID_3779_Energie_kation
 ------------------------------------
 Structure from the checkpoint file:  "JID_3779.chk"
 Charge =  1 Multiplicity = 2

 SCF Done:  E(UB3LYP) =  -558.112089903     A.U. after   21 cycles
 Normal termination of Gaussian 16 at Sun Dec 13 20:17:22 2020.
 Gaussian 16:  ES64L-G16RevA.03 25-Dec-2016

 ----------------------------------------------------------------------
 # B3LYP/6-311++G(d,p) empiricaldispersion=gd3bj scf=xqc pop=npa geom=c
 heck
 ----------------------------------------------------------------------

 -----------------------------------
 CID_84656189_JID_3779_Energie_anion
 -----------------------------------
 Structure from the checkpoint file:  "JID_3779.chk"
 Charge = -1 Multiplicity = 2

                         Standard orientation:
 ---------------------------------------------------------------------
 Center     Atomic      Atomic             Coordinates (Angstroms)
 Number     Number       Type             X           Y           Z
 ---------------------------------------------------------------------
      1          6           0       -2.848059    0.763367    0.512687
      2          6           0       -1.815112    1.860194    0.205411
      3          6           0       -0.799835    1.566006   -0.919431
      4          6           0        0.302647    0.605488   -0.540722
      5          6           0        0.079954   -0.776939   -0.564557
      6          6           0        1.095824   -1.664154   -0.214142
      7          6           0        2.345404   -1.188209    0.173654
      8          6           0        2.593452    0.192063    0.210612
      9          6           0        1.562203    1.069688   -0.156618
     10          7           0        3.828658    0.687520    0.655157
     11          8           0       -1.158577   -1.245790   -0.966872
     12          6           0       -2.010913   -1.646287    0.111189
     13          6           0       -2.296862   -0.539778    1.124463
     14          1           0       -3.408646    0.528544   -0.402819
     15          1           0       -3.575609    1.195043    1.211592
     16          1           0       -2.367875    2.766861   -0.074977
     17          1           0       -1.265306    2.106393    1.124350
     18          1           0       -0.341369    2.515576   -1.220414
     19          1           0       -1.338856    1.177584   -1.790737
     20          1           0        0.902975   -2.732066   -0.259259
     21          1           0        3.133836   -1.885621    0.446407
     22          1           0        1.747034    2.142452   -0.139283
     23          1           0        4.057928    1.605987    0.294235
     24          1           0        4.602535    0.048213    0.517833
     25          1           0       -1.578345   -2.519176    0.623171
     26          1           0       -2.938376   -1.963842   -0.376645
     27          1           0       -1.390425   -0.326731    1.704322
     28          1           0       -3.023715   -0.954166    1.835821
 ---------------------------------------------------------------------

 SCF Done:  E(UB3LYP) =  -558.368243736     A.U. after   33 cycles
 SCF Done:  E(UB3LYP) =  -558.368243736     a.u. after    1 cycles

 The electronic state is 2-A.
 Alpha  occ. eigenvalues --  -19.03262 -14.20680 -10.12269 -10.11048 -10.10713
 Alpha  occ. eigenvalues --  -10.07548 -10.07079 -10.07032 -10.07001 -10.06966
 Alpha  occ. eigenvalues --  -10.06939 -10.06539 -10.06248  -0.94975  -0.81102
 Alpha  occ. eigenvalues --   -0.73993  -0.70868  -0.67369  -0.64013  -0.60867
 Alpha  occ. eigenvalues --   -0.58750  -0.53346  -0.49809  -0.49171  -0.46009
 Alpha  occ. eigenvalues --   -0.41746  -0.40677  -0.39717  -0.37701  -0.37031
 Alpha  occ. eigenvalues --   -0.34715  -0.34399  -0.32888  -0.32189  -0.30894
 Alpha  occ. eigenvalues --   -0.30333  -0.28965  -0.27574  -0.26536  -0.25183
 Alpha  occ. eigenvalues --   -0.24593  -0.23760  -0.22530  -0.22488  -0.19535
 Alpha  occ. eigenvalues --   -0.17196  -0.14610  -0.09942   0.04452
 Alpha virt. eigenvalues --    0.05876   0.06894   0.08064   0.08222   0.08549
 Alpha virt. eigenvalues --    0.08988   0.10002   0.10473   0.10668   0.10938
 Alpha virt. eigenvalues --    0.11500   0.12212   0.13037   0.13835   0.13910

  Beta  occ. eigenvalues --  -19.03261 -14.20611 -10.12259 -10.11048 -10.10708
  Beta  occ. eigenvalues --  -10.07547 -10.07068 -10.07017 -10.06989 -10.06959
  Beta  occ. eigenvalues --  -10.06922 -10.06521 -10.06222  -0.94970  -0.81025
  Beta  occ. eigenvalues --   -0.73959  -0.70840  -0.67338  -0.63976  -0.60823
  Beta  occ. eigenvalues --   -0.58715  -0.53302  -0.49763  -0.49134  -0.45955
  Beta  occ. eigenvalues --   -0.41703  -0.40636  -0.39656  -0.37669  -0.36990
  Beta  occ. eigenvalues --   -0.34681  -0.34365  -0.32848  -0.32154  -0.30855
  Beta  occ. eigenvalues --   -0.30303  -0.28931  -0.27538  -0.26510  -0.25157
  Beta  occ. eigenvalues --   -0.24566  -0.23732  -0.22498  -0.22463  -0.19495
  Beta  occ. eigenvalues --   -0.17178  -0.14567  -0.09893
  Beta virt. eigenvalues --    0.06584   0.07420   0.07561   0.08388   0.08830
  Beta virt. eigenvalues --    0.09108   0.09260   0.10363   0.10733   0.10920
  Beta virt. eigenvalues --    0.11341   0.11756   0.12418   0.13447   0.13978

 Mulliken charges and spin densities:
               1          2
     1  C    0.191060  -0.588111
     2  C    0.455645  -0.804405
     3  C    0.931246  -1.091141
     4  C    0.782261   0.756401
     5  C   -1.731693   0.366752
     6  C   -0.018922  -0.093148
     7  C    0.762395  -0.671712
     8  C    0.122538  -0.714829
     9  C   -0.032620  -0.199091
    10  N   -0.284582  -0.010060
    11  O   -0.106629   0.011064
    12  C    0.414635  -0.715435
    13  C   -0.569233   0.365620
    14  H    0.101480   0.037253
    15  H   -0.358723   0.514313
    16  H   -0.090424   0.235578
    17  H    0.085061   0.056668
    18  H   -0.060247   0.232841
    19  H    0.124009   0.050663
    20  H   -0.009951   0.179268
    21  H   -0.380580   0.540018
    22  H   -0.351740   0.504093
    23  H   -0.337166   0.583895
    24  H   -0.361145   0.609372
    25  H    0.017118   0.096860
    26  H   -0.115750   0.267524
    27  H    0.196947  -0.068524
    28  H   -0.374987   0.548273
 Sum of Mulliken charges =  -1.00000   1.00000

 Dipole moment (field-independent basis, Debye):
    X=             -4.6939    Y=             -2.0713    Z=             -1.4276  Tot=              5.3255
 Quadrupole moment (field-independent basis, Debye-Ang):
   XX=           -171.0597   YY=           -117.0669   ZZ=           -108.0571
   XY=             -4.9848   XZ=              2.3058   YZ=             -0.5154

 Summary of Natural Population Analysis:

                                       Natural Population
                Natural  -----------------------------------------------
    Atom  No    Charge         Core      Valence    Rydberg      Total
 -----------------------------------------------------------------------
      C    1   -0.19191      0.99962     2.18281    0.00947     3.19191
      C    2   -0.18129      0.99961     2.17377    0.00790     3.18129
      C    3   -0.19859      0.99959     2.18939    0.00961     3.19859
      C    4   -0.02201      0.99946     2.01249    0.01007     3.02201
      C    5    0.12928      0.99930     1.85815    0.01327     2.87072
      C    6   -0.10944      0.99951     2.10066    0.00926     3.10944
      C    7   -0.12361      0.99952     2.11400    0.01009     3.12361
      C    8    0.08476      0.99949     1.90442    0.01133     2.91524
      C    9   -0.11657      0.99948     2.10741    0.00968     3.11657
      N   10   -0.39614      0.99972     2.88557    0.01085     3.89614
      O   11   -0.29763      0.99987     3.28909    0.00867     4.29763
      C   12   -0.00394      0.99955     1.99170    0.01269     3.00394
      C   13   -0.21055      0.99962     2.20260    0.00833     3.21055
      H   14    0.09372      0.00000     0.40490    0.00138     0.40628
      H   15    0.09998      0.00000     0.39863    0.00139     0.40002
      H   16    0.09653      0.00000     0.40237    0.00109     0.40347
      H   17    0.09409      0.00000     0.40460    0.00131     0.40591
      H   18    0.10115      0.00000     0.39773    0.00111     0.39885
      H   19    0.10488      0.00000     0.39374    0.00138     0.39512
      H   20    0.10175      0.00000     0.39723    0.00102     0.39825
      H   21    0.10036      0.00000     0.39855    0.00109     0.39964
      H   22    0.09919      0.00000     0.39914    0.00167     0.40081
      H   23    0.18758      0.00000     0.30610    0.00632     0.31242
      H   24    0.18703      0.00000     0.30638    0.00659     0.31297
      H   25    0.08040      0.00000     0.41843    0.00117     0.41960
      H   26    0.08692      0.00000     0.41176    0.00132     0.41308
      H   27    0.10072      0.00000     0.39783    0.00145     0.39928
      H   28    0.10333      0.00000     0.39528    0.00140     0.39667
 =======================================================================
   * Total *   -0.00000     12.99435    34.84474    0.16091    48.00000

 Normal termination of Gaussian 16 at Sun Dec 13 20:28:05 2020.
