 Gaussian 16, Revision A.03,

 -----------------------------------------------------------
 # opt freq B3LYP/6-31G(d) empiricaldispersion=gd3bj scf=xqc
 -----------------------------------------------------------

 -------------------------------
 CID_114129256_JID_8061_neutraal
 -------------------------------
 Symbolic Z-matrix:
 Charge =  0 Multiplicity = 1

 SCF Done:  E(RB3LYP) =  -1521.89769665     A.U. after   15 cycles
 SCF Done:  E(RB3LYP) =  -1521.90430103     A.U. after   13 cycles
 SCF Done:  E(RB3LYP) =  -1521.90000654     A.U. after   13 cycles
 SCF Done:  E(RB3LYP) =  -1521.90659408     A.U. after   12 cycles
 SCF Done:  E(RB3LYP) =  -1521.90725452     A.U. after   13 cycles
 SCF Done:  E(RB3LYP) =  -1521.90755595     A.U. after   13 cycles
 SCF Done:  E(RB3LYP) =  -1521.90788589     A.U. after   13 cycles
 SCF Done:  E(RB3LYP) =  -1521.90910964     A.U. after   12 cycles
 SCF Done:  E(RB3LYP) =  -1521.90937565     A.U. after   12 cycles
 SCF Done:  E(RB3LYP) =  -1521.90940102     A.U. after   12 cycles
 SCF Done:  E(RB3LYP) =  -1521.91048866     A.U. after    9 cycles
 SCF Done:  E(RB3LYP) =  -1521.91048984     A.U. after    9 cycles
 SCF Done:  E(RB3LYP) =  -1521.91049002     A.U. after    8 cycles
 SCF Done:  E(RB3LYP) =  -1521.91049010     A.U. after    7 cycles
 SCF Done:  E(RB3LYP) =  -1521.91049013     A.U. after    7 cycles
 Optimization completed.
    -- Stationary point found.
 Normal termination of Gaussian 16 at Fri Dec 11 19:02:16 2020.

 --------------------------------------------------------------------
 #N Geom=AllCheck Guess=TCheck SCRF=Check GenChk RB3LYP/6-31G(d) Freq
 --------------------------------------------------------------------

 Structure from the checkpoint file:  "JID_8061.chk"
 -------------------------------
 CID_114129256_JID_8061_neutraal
 -------------------------------
 Charge =  0 Multiplicity = 1

 SCF Done:  E(RB3LYP) =  -1521.91049013     A.U. after    1 cycles

  Exact polarizability: 226.641 -10.996 185.036 -17.827  -1.313 128.265
 Approx polarizability: 294.536  -4.846 307.094 -39.244  -2.724 209.121

                      1                      2                      3
                      A                      A                      A
 Frequencies --     19.6753                22.7307                28.2136
 Red. masses --      6.2080                 4.4787                 4.1169
 Frc consts  --      0.0014                 0.0014                 0.0019
 IR Inten    --      0.1768                 0.0631                 0.4920

                      4                      5                      6
                      A                      A                      A
 Frequencies --     54.0361                70.8253                77.9263
 Red. masses --      4.0553                 4.8671                 3.8994
 Frc consts  --      0.0070                 0.0144                 0.0140
 IR Inten    --      2.7667                 3.3104                 1.9285

                      7                      8                      9
                      A                      A                      A
 Frequencies --     89.7899               108.1700               131.0764
 Red. masses --      3.9226                 3.3619                 1.2381
 Frc consts  --      0.0186                 0.0232                 0.0125
 IR Inten    --      1.0509                 0.3940                 4.1311

                     10                     11                     12
                      A                      A                      A
 Frequencies --    139.1566               148.3405               180.4452
 Red. masses --      4.2600                 3.4546                 1.4250
 Frc consts  --      0.0486                 0.0448                 0.0273
 IR Inten    --      2.8928                 7.0959                 1.2649

                     13                     14                     15
                      A                      A                      A
 Frequencies --    193.1971               214.6102               222.6059
 Red. masses --      2.0678                 3.5582                 3.9655
 Frc consts  --      0.0455                 0.0966                 0.1158
 IR Inten    --      1.0708                 5.3871                 5.7286

                     16                     17                     18
                      A                      A                      A
 Frequencies --    252.3283               276.4037               285.1821
 Red. masses --      2.9669                 6.1871                 3.7993
 Frc consts  --      0.1113                 0.2785                 0.1821
 IR Inten    --      0.8650                 5.2234                 1.8942

                     19                     20                     21
                      A                      A                      A
 Frequencies --    308.9198               320.8204               359.9463
 Red. masses --      2.2506                 3.8262                 2.6747
 Frc consts  --      0.1265                 0.2320                 0.2042
 IR Inten    --      0.8753                 3.8216                 3.1426

                     22                     23                     24
                      A                      A                      A
 Frequencies --    391.9981               401.6611               440.0149
 Red. masses --      4.5374                 2.7334                 2.9200
 Frc consts  --      0.4108                 0.2598                 0.3331
 IR Inten    --      5.1265                 0.7889                 7.2670

                     25                     26                     27
                      A                      A                      A
 Frequencies --    461.0993               467.4475               537.7000
 Red. masses --      1.3638                 1.8404                 3.1188
 Frc consts  --      0.1708                 0.2369                 0.5313
 IR Inten    --     18.6526                13.8438                 5.1386

                     28                     29                     30
                      A                      A                      A
 Frequencies --    549.9464               577.5681               587.2337
 Red. masses --      4.4309                 4.0990                 8.2256
 Frc consts  --      0.7896                 0.8056                 1.6712
 IR Inten    --     20.1522                13.2781                12.3781

                     31                     32                     33
                      A                      A                      A
 Frequencies --    600.8152               645.7844               649.1724
 Red. masses --      4.4884                 3.6358                 3.8395
 Frc consts  --      0.9546                 0.8933                 0.9533
 IR Inten    --     36.7600                31.2555                63.7813

                     34                     35                     36
                      A                      A                      A
 Frequencies --    662.9269               714.1248               728.4991
 Red. masses --      2.2431                 2.7348                 2.1211
 Frc consts  --      0.5808                 0.8217                 0.6632
 IR Inten    --     74.5417                20.6746               109.9676

                     37                     38                     39
                      A                      A                      A
 Frequencies --    737.5886               755.6650               779.8305
 Red. masses --      1.9218                 1.6945                 2.1564
 Frc consts  --      0.6160                 0.5701                 0.7726
 IR Inten    --     25.4702                36.7058                26.0530

                     40                     41                     42
                      A                      A                      A
 Frequencies --    795.5030               798.2473               834.1001
 Red. masses --      3.6857                 5.6481                 2.8410
 Frc consts  --      1.3742                 2.1205                 1.1646
 IR Inten    --     17.8496                38.4441                73.6082

                     43                     44                     45
                      A                      A                      A
 Frequencies --    858.7859               890.5208               897.2714
 Red. masses --      1.9745                 2.3301                 1.9817
 Frc consts  --      0.8580                 1.0887                 0.9400
 IR Inten    --     35.3343                14.8961                 2.4055

                     46                     47                     48
                      A                      A                      A
 Frequencies --    949.1404               989.5404              1013.0213
 Red. masses --      1.6932                 1.1892                 1.6292
 Frc consts  --      0.8987                 0.6861                 0.9851
 IR Inten    --      2.9433                 7.7510                10.6772

                     49                     50                     51
                      A                      A                      A
 Frequencies --   1016.2248              1019.3151              1052.6418
 Red. masses --      1.4858                 1.8782                 2.1921
 Frc consts  --      0.9040                 1.1498                 1.4311
 IR Inten    --      9.3509                 0.5633                31.1573

                     52                     53                     54
                      A                      A                      A
 Frequencies --   1092.3677              1109.5124              1131.4788
 Red. masses --      1.9780                 2.4819                 2.0798
 Frc consts  --      1.3906                 1.8001                 1.5688
 IR Inten    --      3.8627                 1.7567                 0.1369

                     55                     56                     57
                      A                      A                      A
 Frequencies --   1155.5380              1161.3080              1172.4010
 Red. masses --      2.1154                 1.4506                 2.1551
 Frc consts  --      1.6642                 1.1527                 1.7453
 IR Inten    --     19.3577                33.2372               134.8911

                     58                     59                     60
                      A                      A                      A
 Frequencies --   1182.3832              1196.9191              1206.4793
 Red. masses --      1.7855                 1.2928                 1.4901
 Frc consts  --      1.4707                 1.0912                 1.2779
 IR Inten    --      1.5523                 6.6971                 6.9292

                     61                     62                     63
                      A                      A                      A
 Frequencies --   1252.8887              1293.2294              1322.2105
 Red. masses --      1.4857                 1.3949                 1.4566
 Frc consts  --      1.3741                 1.3745                 1.5003
 IR Inten    --     22.7412                27.0283                88.5835

                     64                     65                     66
                      A                      A                      A
 Frequencies --   1341.9437              1352.3538              1384.3262
 Red. masses --      1.7019                 1.1401                 1.4075
 Frc consts  --      1.8057                 1.2285                 1.5892
 IR Inten    --     31.5915                13.2648                26.0271

                     67                     68                     69
                      A                      A                      A
 Frequencies --   1390.0743              1397.8157              1415.6416
 Red. masses --      1.2464                 1.4123                 1.8003
 Frc consts  --      1.4190                 1.6258                 2.1257
 IR Inten    --      6.5460                11.3997                21.0319

                     70                     71                     72
                      A                      A                      A
 Frequencies --   1420.3489              1424.5096              1436.1317
 Red. masses --      1.6430                 1.9994                 1.7923
 Frc consts  --      1.9529                 2.3904                 2.1780
 IR Inten    --     45.8556               142.3674                36.2905

                     73                     74                     75
                      A                      A                      A
 Frequencies --   1467.2503              1475.9154              1490.8706
 Red. masses --      1.9837                 2.0812                 1.0862
 Frc consts  --      2.5162                 2.6711                 1.4225
 IR Inten    --     66.2515                95.9097                 4.2247

                     76                     77                     78
                      A                      A                      A
 Frequencies --   1497.9382              1501.3193              1508.3787
 Red. masses --      1.0553                 1.2921                 1.0979
 Frc consts  --      1.3951                 1.7159                 1.4718
 IR Inten    --      6.5824                13.3111                 8.3449

                     79                     80                     81
                      A                      A                      A
 Frequencies --   1516.6132              1521.4853              1530.0073
 Red. masses --      1.0525                 1.0813                 1.0799
 Frc consts  --      1.4264                 1.4748                 1.4894
 IR Inten    --     14.4071                 8.5654                29.8567

                     82                     83                     84
                      A                      A                      A
 Frequencies --   1532.4328              1534.7337              1543.8601
 Red. masses --      1.0928                 1.0885                 1.0744
 Frc consts  --      1.5120                 1.5105                 1.5088
 IR Inten    --     17.1009                 3.4538                 6.1853

                     85                     86                     87
                      A                      A                      A
 Frequencies --   1582.3687              1630.0522              1664.1779
 Red. masses --      4.0475                 2.8444                 1.2854
 Frc consts  --      5.9710                 4.4529                 2.0975
 IR Inten    --    139.0258               510.9682               190.1849

                     88                     89                     90
                      A                      A                      A
 Frequencies --   1711.6938              3021.4711              3036.9431
 Red. masses --      5.3534                 1.0697                 1.0492
 Frc consts  --      9.2413                 5.7537                 5.7016
 IR Inten    --    326.4670                39.8312                73.5362

                     91                     92                     93
                      A                      A                      A
 Frequencies --   3052.6306              3056.4161              3061.0221
 Red. masses --      1.0610                 1.0623                 1.0385
 Frc consts  --      5.8252                 5.8467                 5.7332
 IR Inten    --     13.2367                18.0565                16.0766

                     94                     95                     96
                      A                      A                      A
 Frequencies --   3062.7762              3066.0219              3085.8066
 Red. masses --      1.0565                 1.0624                 1.0934
 Frc consts  --      5.8391                 5.8841                 6.1345
 IR Inten    --     16.0437                29.9321                10.8797

                     97                     98                     99
                      A                      A                      A
 Frequencies --   3089.2655              3096.9840              3112.0415
 Red. masses --      1.0986                 1.1034                 1.1032
 Frc consts  --      6.1773                 6.2355                 6.2949
 IR Inten    --     24.8862                52.7946                48.8251

                    100                    101                    102
                      A                      A                      A
 Frequencies --   3114.7823              3120.1961              3142.1465
 Red. masses --      1.1027                 1.0927                 1.1045
 Frc consts  --      6.3031                 6.2678                 6.4251
 IR Inten    --     25.8117                28.1538                12.1744

                    103                    104                    105
                      A                      A                      A
 Frequencies --   3156.0423              3191.0172              3461.5960
 Red. masses --      1.1051                 1.0987                 1.0763
 Frc consts  --      6.4853                 6.5918                 7.5985
 IR Inten    --     12.3956                 1.9154                96.9360

                    106                    107                    108
                      A                      A                      A
 Frequencies --   3531.4982              3534.6221              3646.7572
 Red. masses --      1.0720                 1.0496                 1.0992
 Frc consts  --      7.8771                 7.7258                 8.6126
 IR Inten    --     19.5995                16.8907                32.8587

 - Thermochemistry -
 -------------------
 Temperature   298.150 Kelvin.  Pressure   1.00000 Atm.
 Atom     1 has atomic number  6 and mass  12.00000

 Molecular mass:   288.10786 amu.
 Principal axes and moments of inertia in atomic units:
                           1         2         3
     Eigenvalues --  2737.13162********************
           X            0.99984  -0.01772  -0.00245
           Y            0.01768   0.99972  -0.01580
           Z            0.00273   0.01575   0.99987
 This molecule is an asymmetric top.
 Rotational symmetry number  1.
 Warning -- assumption of classical behavior for rotation
           may cause significant error
 Rotational temperatures (Kelvin)      0.03164     0.00707     0.00624
 Rotational constants (GHZ):           0.65935     0.14733     0.12992
 Zero-point vibrational energy     840357.4 (Joules/Mol)
                                  200.85024 (Kcal/Mol)
 Warning -- explicit consideration of  31 degrees of freedom as
           vibrations may cause significant error
 Vibrational temperatures:     28.31    32.70    40.59    77.75   101.90
          (Kelvin)            112.12   129.19   155.63   188.59   200.22
                              213.43   259.62   277.97   308.78   320.28
                              363.04   397.68   410.31   444.47   461.59
                              517.88   564.00   577.90   633.08   663.42
                              672.55   773.63   791.25   830.99   844.90
                              864.44   929.14   934.01   953.80  1027.47
                             1048.15  1061.23  1087.23  1122.00  1144.55
                             1148.50  1200.08  1235.60  1281.26  1290.97
                             1365.60  1423.73  1457.51  1462.12  1466.57
                             1514.52  1571.67  1596.34  1627.95  1662.56
                             1670.86  1686.82  1701.19  1722.10  1735.85
                             1802.63  1860.67  1902.37  1930.76  1945.74
                             1991.74  2000.01  2011.15  2036.79  2043.57
                             2049.55  2066.27  2111.05  2123.51  2145.03
                             2155.20  2160.06  2170.22  2182.07  2189.08
                             2201.34  2204.83  2208.14  2221.27  2276.68
                             2345.28  2394.38  2462.75  4347.22  4369.48
                             4392.05  4397.50  4404.13  4406.65  4411.32
                             4439.79  4444.76  4455.87  4477.53  4481.48
                             4489.27  4520.85  4540.84  4591.16  4980.46
                             5081.04  5085.53  5246.87

 Zero-point correction=                           0.320075 (Hartree/Particle)
 Thermal correction to Energy=                    0.340335
 Thermal correction to Enthalpy=                  0.341279
 Thermal correction to Gibbs Free Energy=         0.268481
 Sum of electronic and zero-point Energies=          -1521.590415
 Sum of electronic and thermal Energies=             -1521.570155
 Sum of electronic and thermal Enthalpies=           -1521.569211
 Sum of electronic and thermal Free Energies=        -1521.642010

                     E (Thermal)             CV                S
                      KCal/Mol        Cal/Mol-Kelvin    Cal/Mol-Kelvin
 Total                  213.564             74.139            153.218
 Electronic               0.000              0.000              0.000
 Translational            0.889              2.981             42.872
 Rotational               0.889              2.981             34.498
 Vibrational            211.786             68.177             75.848
 Vibration     1          0.593              1.986              6.667
 Vibration     2          0.593              1.985              6.380
 Vibration     3          0.593              1.984              5.951
 Vibration     4          0.596              1.976              4.664
 Vibration     5          0.598              1.968              4.130
 Vibration     6          0.599              1.964              3.942
 Vibration     7          0.602              1.956              3.665
 Vibration     8          0.606              1.943              3.301
 Vibration     9          0.612              1.922              2.930
 Vibration    10          0.615              1.914              2.815
 Vibration    11          0.618              1.904              2.693
 Vibration    12          0.629              1.866              2.324
 Vibration    13          0.635              1.849              2.197
 Vibration    14          0.645              1.819              2.004
 Vibration    15          0.648              1.807              1.938
 Vibration    16          0.664              1.759              1.714
 Vibration    17          0.678              1.717              1.556
 Vibration    18          0.683              1.701              1.502
 Vibration    19          0.698              1.657              1.368
 Vibration    20          0.706              1.634              1.306
 Vibration    21          0.734              1.555              1.122
 Vibration    22          0.759              1.487              0.993
 Vibration    23          0.767              1.467              0.957
 Vibration    24          0.800              1.383              0.827
 Vibration    25          0.819              1.336              0.763
 Vibration    26          0.825              1.322              0.745
 Vibration    27          0.893              1.167              0.570
 Vibration    28          0.905              1.140              0.544
 Vibration    29          0.934              1.080              0.490
 Vibration    30          0.944              1.059              0.472
 Vibration    31          0.959              1.030              0.448

 Optimization completed.
    -- Stationary point found.
 Normal termination of Gaussian 16 at Fri Dec 11 19:17:59 2020.

 ----------------------------------------------------------------------
 # B3LYP/6-311++G(d,p) empiricaldispersion=gd3bj scf=xqc pop=npa geom=c
 heck
 ----------------------------------------------------------------------

 ---------------------------------------
 CID_114129256_JID_8061_Energie_neutraal
 ---------------------------------------
 Structure from the checkpoint file:  "JID_8061.chk"
 Charge =  0 Multiplicity = 1

 SCF Done:  E(RB3LYP) =  -1522.17783466     A.U. after   16 cycles
 Normal termination of Gaussian 16 at Fri Dec 11 19:26:33 2020.

 ----------------------------------------------------------------------
 # B3LYP/6-311++G(d,p) empiricaldispersion=gd3bj scf=xqc pop=npa geom=c
 heck
 ----------------------------------------------------------------------

 -------------------------------------
 CID_114129256_JID_8061_Energie_kation
 -------------------------------------
 Structure from the checkpoint file:  "JID_8061.chk"
 Charge =  1 Multiplicity = 2

 SCF Done:  E(UB3LYP) =  -1521.90531965     A.U. after   30 cycles
 Normal termination of Gaussian 16 at Fri Dec 11 19:49:52 2020.
 Gaussian 16:  ES64L-G16RevA.03 25-Dec-2016

 ----------------------------------------------------------------------
 # B3LYP/6-311++G(d,p) empiricaldispersion=gd3bj scf=xqc pop=npa geom=c
 heck
 ----------------------------------------------------------------------

 ------------------------------------
 CID_114129256_JID_8061_Energie_anion
 ------------------------------------
 Structure from the checkpoint file:  "JID_8061.chk"
 Charge = -1 Multiplicity = 2

                         Standard orientation:
 ---------------------------------------------------------------------
 Center     Atomic      Atomic             Coordinates (Angstroms)
 Number     Number       Type             X           Y           Z
 ---------------------------------------------------------------------
      1          6           0        4.798463   -1.939430    0.432112
      2          7           0        3.597115   -2.165850   -0.387614
      3          6           0        2.405541   -1.499257   -0.096868
      4          8           0        1.359324   -2.154666    0.038294
      5          6           0        2.418746   -0.041099   -0.015101
      6          6           0        1.349861    0.647408    0.576109
      7         16           0        1.614342    2.364603    0.409025
      8          7           0        3.049898    2.190768   -0.490802
      9          6           0        3.326945    0.910397   -0.619143
     10          7           0        4.462699    0.538833   -1.319653
     11          7           0        0.293454    0.093519    1.204257
     12          6           0       -0.948809    0.814388    1.449864
     13          6           0       -1.790242    1.021422    0.179843
     14          6           0       -2.076548   -0.275725   -0.591560
     15          6           0       -2.821069   -1.359503    0.198051
     16          6           0       -4.211142   -0.972698    0.714320
     17         16           0       -5.473361   -0.651623   -0.586117
     18          6           0       -5.325526    1.153972   -0.823521
     19          1           0        5.055856   -0.881445    0.439298
     20          1           0        5.632428   -2.486281   -0.016406
     21          1           0        4.661466   -2.288716    1.464442
     22          1           0        3.377348   -3.155239   -0.473290
     23          1           0        4.810138    1.277072   -1.920288
     24          1           0        4.393408   -0.364947   -1.774721
     25          1           0        0.234874   -0.907631    1.014775
     26          1           0       -1.507401    0.244548    2.198455
     27          1           0       -0.707023    1.779699    1.910108
     28          1           0       -2.722823    1.520682    0.470399
     29          1           0       -1.260314    1.716493   -0.482034
     30          1           0       -2.650493   -0.036736   -1.494307
     31          1           0       -1.125653   -0.697471   -0.939300
     32          1           0       -2.919757   -2.247271   -0.436721
     33          1           0       -2.219494   -1.675077    1.063619
     34          1           0       -4.621256   -1.797285    1.306137
     35          1           0       -4.175632   -0.098902    1.374756
     36          1           0       -5.426182    1.681352    0.130142
     37          1           0       -4.385614    1.436133   -1.303199
     38          1           0       -6.153635    1.450528   -1.472703
 ---------------------------------------------------------------------

 SCF Done:  E(UB3LYP) =  -1522.17367060     A.U. after   33 cycles
 SCF Done:  E(UB3LYP) =  -1522.17367060     a.u. after    1 cycles

 The electronic state is 2-A.
 Alpha  occ. eigenvalues --  -88.77588 -88.75366 -18.97474 -14.22812 -14.22191
 Alpha  occ. eigenvalues --  -14.21950 -14.19951 -10.15137 -10.14163 -10.12821
 Alpha  occ. eigenvalues --  -10.11706 -10.11614 -10.10703 -10.09369 -10.08661
 Alpha  occ. eigenvalues --  -10.07720 -10.07560 -10.06402  -7.86043  -7.83960
 Alpha  occ. eigenvalues --   -5.82463  -5.82002  -5.81492  -5.80367  -5.79994
 Alpha  occ. eigenvalues --   -5.79320  -0.92413  -0.86838  -0.84513  -0.80332
 Alpha  occ. eigenvalues --   -0.78547  -0.73505  -0.69919  -0.67160  -0.64699
 Alpha  occ. eigenvalues --   -0.62725  -0.60580  -0.59029  -0.55819  -0.52146
 Alpha  occ. eigenvalues --   -0.50926  -0.47987  -0.47170  -0.46124  -0.42133
 Alpha  occ. eigenvalues --   -0.40661  -0.39923  -0.38637  -0.38031  -0.37487
 Alpha  occ. eigenvalues --   -0.35238  -0.34962  -0.34178  -0.33842  -0.33479
 Alpha  occ. eigenvalues --   -0.33266  -0.32895  -0.31345  -0.30685  -0.30051
 Alpha  occ. eigenvalues --   -0.29104  -0.28845  -0.28144  -0.26831  -0.25774
 Alpha  occ. eigenvalues --   -0.25060  -0.24236  -0.23898  -0.23321  -0.22154
 Alpha  occ. eigenvalues --   -0.19177  -0.18828  -0.16814  -0.14247  -0.14104
 Alpha  occ. eigenvalues --   -0.12512  -0.10514   0.03893
 Alpha virt. eigenvalues --    0.05254   0.06598   0.06756   0.07630   0.07927
 Alpha virt. eigenvalues --    0.08735   0.09045   0.09492   0.09738   0.10061
 Alpha virt. eigenvalues --    0.10440   0.10707   0.11044   0.11314   0.11537

  Beta  occ. eigenvalues --  -88.77579 -88.75362 -18.97293 -14.22749 -14.22178
  Beta  occ. eigenvalues --  -14.21953 -14.19965 -10.14922 -10.14158 -10.12503
  Beta  occ. eigenvalues --  -10.11702 -10.11607 -10.10654 -10.09306 -10.08660
  Beta  occ. eigenvalues --  -10.07699 -10.07558 -10.06455  -7.86035  -7.83956
  Beta  occ. eigenvalues --   -5.82461  -5.82004  -5.81457  -5.80358  -5.79988
  Beta  occ. eigenvalues --   -5.79317  -0.92071  -0.86745  -0.84362  -0.80206
  Beta  occ. eigenvalues --   -0.78508  -0.73481  -0.69832  -0.67027  -0.64627
  Beta  occ. eigenvalues --   -0.62601  -0.60528  -0.58906  -0.55774  -0.52027
  Beta  occ. eigenvalues --   -0.50688  -0.47909  -0.47052  -0.46065  -0.42090
  Beta  occ. eigenvalues --   -0.40583  -0.39847  -0.38584  -0.37907  -0.37406
  Beta  occ. eigenvalues --   -0.35188  -0.34837  -0.33990  -0.33665  -0.33402
  Beta  occ. eigenvalues --   -0.33198  -0.32812  -0.31171  -0.30572  -0.29952
  Beta  occ. eigenvalues --   -0.29050  -0.28724  -0.28076  -0.26255  -0.25584
  Beta  occ. eigenvalues --   -0.24901  -0.24165  -0.23846  -0.22934  -0.22120
  Beta  occ. eigenvalues --   -0.18953  -0.18792  -0.16575  -0.14089  -0.13989
  Beta  occ. eigenvalues --   -0.12315  -0.10209
  Beta virt. eigenvalues --    0.06001   0.06553   0.06669   0.07810   0.08053
  Beta virt. eigenvalues --    0.08679   0.08966   0.09344   0.09626   0.09893
  Beta virt. eigenvalues --    0.10278   0.10617   0.10756   0.11346   0.11584

 Mulliken charges and spin densities:
               1          2
     1  C    0.467460  -0.918660
     2  N   -0.424775   0.168724
     3  C   -0.561363   0.019342
     4  O   -0.403524   0.064119
     5  C    0.863140  -0.115436
     6  C    0.241807   0.001565
     7  S    0.020361   0.049294
     8  N   -0.211480  -0.019714
     9  C   -0.931958   0.170748
    10  N   -0.346207   0.004793
    11  N    0.173138   0.034036
    12  C   -0.737503   0.002684
    13  C    0.400402  -0.343589
    14  C   -0.453938   0.122970
    15  C   -0.211239  -0.106428
    16  C   -0.141655  -0.026901
    17  S   -0.219587   0.340215
    18  C    0.256599  -1.011681
    19  H    0.137806   0.059602
    20  H   -0.505125   0.656825
    21  H   -0.049081   0.194762
    22  H    0.160486   0.128448
    23  H    0.223927   0.063481
    24  H    0.163938   0.094999
    25  H    0.338812   0.003650
    26  H    0.155821   0.015090
    27  H    0.086735   0.070547
    28  H   -0.017890   0.146824
    29  H    0.080575   0.050612
    30  H    0.171983  -0.019337
    31  H    0.214458   0.005660
    32  H    0.156350  -0.004328
    33  H    0.097258   0.009493
    34  H    0.206869   0.026348
    35  H    0.096948   0.035206
    36  H   -0.254881   0.442061
    37  H   -0.049331   0.222892
    38  H   -0.195335   0.361086
 Sum of Mulliken charges =  -1.00000   1.00000

 Dipole moment (field-independent basis, Debye):
    X=             -2.1216    Y=             -0.5547    Z=              1.0895  Tot=              2.4486
 Quadrupole moment (field-independent basis, Debye-Ang):
   XX=           -241.1766   YY=           -169.1662   ZZ=           -141.9582
   XY=             17.2978   XZ=             -7.7051   YZ=             -1.8102

 Summary of Natural Population Analysis:

                                       Natural Population
                Natural  -----------------------------------------------
    Atom  No    Charge         Core      Valence    Rydberg      Total
 -----------------------------------------------------------------------
      C    1   -0.18227      0.99963     2.17451    0.00812     3.18227
      N    2   -0.33936      0.99970     2.82847    0.01119     3.83936
      C    3    0.36646      0.99960     1.61212    0.02182     2.63354
      O    4   -0.33156      0.99988     3.32610    0.00559     4.33156
      C    5   -0.18116      0.99936     2.17057    0.01122     3.18116
      C    6    0.11296      0.99945     1.87142    0.01616     2.88704
      S    7    0.25031      4.99945     2.72576    0.02448     7.74969
      N    8   -0.36314      0.99968     2.85250    0.01096     3.86314
      C    9    0.20377      0.99955     1.77910    0.01757     2.79623
      N   10   -0.40454      0.99970     2.89559    0.00925     3.90454
      N   11   -0.30764      0.99963     2.79691    0.01110     3.80764
      C   12   -0.08860      0.99962     2.07649    0.01249     3.08860
      C   13   -0.20405      0.99962     2.19475    0.00967     3.20405
      C   14   -0.20077      0.99962     2.19184    0.00931     3.20077
      C   15   -0.19656      0.99962     2.18799    0.00895     3.19656
      C   16   -0.25222      0.99959     2.24120    0.01144     3.25222
      S   17    0.07743      4.99964     2.90332    0.01961     7.92257
      C   18   -0.34970      0.99962     2.34337    0.00670     3.34970
      H   19    0.10668      0.00000     0.39165    0.00168     0.39332
      H   20    0.09498      0.00000     0.40283    0.00219     0.40502
      H   21    0.08533      0.00000     0.41344    0.00123     0.41467
      H   22    0.18541      0.00000     0.31180    0.00278     0.31459
      H   23    0.18799      0.00000     0.30985    0.00216     0.31201
      H   24    0.19566      0.00000     0.30237    0.00197     0.30434
      H   25    0.21488      0.00000     0.28330    0.00182     0.28512
      H   26    0.09379      0.00000     0.40524    0.00097     0.40621
      H   27    0.09800      0.00000     0.40087    0.00113     0.40200
      H   28    0.09740      0.00000     0.40123    0.00137     0.40260
      H   29    0.10479      0.00000     0.39381    0.00140     0.39521
      H   30    0.09989      0.00000     0.39908    0.00103     0.40011
      H   31    0.11024      0.00000     0.38867    0.00109     0.38976
      H   32    0.10178      0.00000     0.39729    0.00092     0.39822
      H   33    0.09635      0.00000     0.40266    0.00099     0.40365
      H   34    0.10365      0.00000     0.39557    0.00077     0.39635
      H   35    0.10161      0.00000     0.39718    0.00121     0.39839
      H   36    0.10284      0.00000     0.39508    0.00208     0.39716
      H   37    0.10182      0.00000     0.39653    0.00164     0.39818
      H   38    0.10753      0.00000     0.39136    0.00111     0.39247
 =======================================================================
   * Total *    0.00000     25.99298    50.75184    0.25518    77.00000

 Normal termination of Gaussian 16 at Fri Dec 11 20:15:59 2020.
