 Gaussian 16, Revision A.03,

 -----------------------------------------------------------
 # opt freq B3LYP/6-31G(d) empiricaldispersion=gd3bj scf=xqc
 -----------------------------------------------------------

 -------------------------------
 CID_145011474_JID_3957_neutraal
 -------------------------------
 Symbolic Z-matrix:
 Charge =  0 Multiplicity = 1

 SCF Done:  E(RB3LYP) =  -543.359917912     A.U. after   15 cycles
 SCF Done:  E(RB3LYP) =  -543.363087373     A.U. after   12 cycles
 SCF Done:  E(RB3LYP) =  -543.363778273     A.U. after   12 cycles
 SCF Done:  E(RB3LYP) =  -543.365021592     A.U. after   13 cycles
 SCF Done:  E(RB3LYP) =  -543.366063503     A.U. after   12 cycles
 SCF Done:  E(RB3LYP) =  -543.366740431     A.U. after   15 cycles
 SCF Done:  E(RB3LYP) =  -543.367179951     A.U. after   12 cycles
 SCF Done:  E(RB3LYP) =  -543.367681530     A.U. after   15 cycles
 SCF Done:  E(RB3LYP) =  -543.367718913     A.U. after   12 cycles
 SCF Done:  E(RB3LYP) =  -543.367890444     A.U. after   11 cycles
 SCF Done:  E(RB3LYP) =  -543.368819543     A.U. after   10 cycles
 SCF Done:  E(RB3LYP) =  -543.368820535     A.U. after   10 cycles
 SCF Done:  E(RB3LYP) =  -543.368820616     A.U. after    7 cycles
 SCF Done:  E(RB3LYP) =  -543.368820722     A.U. after    8 cycles
 SCF Done:  E(RB3LYP) =  -543.368820726     A.U. after    7 cycles
 Optimization completed.
    -- Stationary point found.
 Normal termination of Gaussian 16 at Mon Dec 14 13:18:57 2020.

 --------------------------------------------------------------------
 #N Geom=AllCheck Guess=TCheck SCRF=Check GenChk RB3LYP/6-31G(d) Freq
 --------------------------------------------------------------------

 Structure from the checkpoint file:  "JID_3957.chk"
 -------------------------------
 CID_145011474_JID_3957_neutraal
 -------------------------------
 Charge =  0 Multiplicity = 1

 SCF Done:  E(RB3LYP) =  -543.368820726     A.U. after    1 cycles

  Exact polarizability: 145.474  -3.738 122.691  13.582   3.803  98.864
 Approx polarizability: 190.993  -9.499 189.495  26.971   7.299 153.095

                      1                      2                      3
                      A                      A                      A
 Frequencies --     17.1446                32.6411                48.8695
 Red. masses --      4.3396                 3.4547                 3.2314
 Frc consts  --      0.0008                 0.0022                 0.0045
 IR Inten    --      0.5048                 1.8974                 1.9229

                      4                      5                      6
                      A                      A                      A
 Frequencies --     59.3384               117.0633               126.0531
 Red. masses --      3.5928                 1.4552                 2.1445
 Frc consts  --      0.0075                 0.0117                 0.0201
 IR Inten    --      1.0379                 0.8003                 1.2627

                      7                      8                      9
                      A                      A                      A
 Frequencies --    144.0379               229.0889               241.6011
 Red. masses --      2.6624                 2.2549                 2.8023
 Frc consts  --      0.0325                 0.0697                 0.0964
 IR Inten    --      0.9990                 0.9158                 3.2928

                     10                     11                     12
                      A                      A                      A
 Frequencies --    282.5054               297.7815               338.3338
 Red. masses --      2.1839                 2.3326                 2.1889
 Frc consts  --      0.1027                 0.1219                 0.1476
 IR Inten    --      3.8446                 1.7845                 1.5017

                     13                     14                     15
                      A                      A                      A
 Frequencies --    344.7119               402.7647               455.3491
 Red. masses --      2.3508                 2.7634                 2.7718
 Frc consts  --      0.1646                 0.2641                 0.3386
 IR Inten    --      0.0920                 2.1215                 3.4110

                     16                     17                     18
                      A                      A                      A
 Frequencies --    477.6711               516.1408               573.3460
 Red. masses --      2.0176                 2.7282                 3.3189
 Frc consts  --      0.2712                 0.4282                 0.6428
 IR Inten    --      0.9191                 1.6907                 1.6821

                     19                     20                     21
                      A                      A                      A
 Frequencies --    581.8215               617.8392               660.0875
 Red. masses --      2.6654                 3.1263                 2.0917
 Frc consts  --      0.5316                 0.7031                 0.5370
 IR Inten    --      9.7533                 5.2273                 7.1211

                     22                     23                     24
                      A                      A                      A
 Frequencies --    717.7918               759.2204               788.9033
 Red. masses --      1.5261                 1.9054                 2.0848
 Frc consts  --      0.4633                 0.6471                 0.7645
 IR Inten    --      9.6154                15.0153                 4.6291

                     25                     26                     27
                      A                      A                      A
 Frequencies --    812.2224               819.5323               849.4481
 Red. masses --      1.6335                 1.8089                 1.7436
 Frc consts  --      0.6349                 0.7158                 0.7412
 IR Inten    --      1.1528                 1.7306                12.0282

                     28                     29                     30
                      A                      A                      A
 Frequencies --    881.2575               903.4211               952.4378
 Red. masses --      2.3306                 1.9254                 2.0700
 Frc consts  --      1.0664                 0.9259                 1.1064
 IR Inten    --      1.4500                 1.0395                11.3203

                     31                     32                     33
                      A                      A                      A
 Frequencies --    968.7346               972.3158               978.7983
 Red. masses --      2.2082                 1.6860                 1.4530
 Frc consts  --      1.2209                 0.9391                 0.8202
 IR Inten    --      7.4761                 1.8741                 2.5881

                     34                     35                     36
                      A                      A                      A
 Frequencies --    997.4027              1019.7362              1052.8914
 Red. masses --      2.3069                 1.8141                 1.8135
 Frc consts  --      1.3522                 1.1115                 1.1845
 IR Inten    --      3.2473                 3.1062                 1.2028

                     37                     38                     39
                      A                      A                      A
 Frequencies --   1055.4307              1092.7993              1109.5059
 Red. masses --      1.9365                 1.9431                 1.7547
 Frc consts  --      1.2710                 1.3672                 1.2726
 IR Inten    --      1.1228                 4.2661                 1.8134

                     40                     41                     42
                      A                      A                      A
 Frequencies --   1121.9775              1174.3863              1189.3904
 Red. masses --      2.7417                 2.3000                 1.6238
 Frc consts  --      2.0335                 1.8689                 1.3534
 IR Inten    --      1.2455                 7.2498                43.7205

                     43                     44                     45
                      A                      A                      A
 Frequencies --   1198.0129              1203.4076              1207.1860
 Red. masses --      1.2085                 1.2170                 1.1423
 Frc consts  --      1.0220                 1.0384                 0.9808
 IR Inten    --      2.2565                 3.2447                 0.1571

                     46                     47                     48
                      A                      A                      A
 Frequencies --   1228.8067              1271.8605              1278.0586
 Red. masses --      1.3981                 1.2735                 1.3014
 Frc consts  --      1.2439                 1.2138                 1.2525
 IR Inten    --     28.2903                 1.8168                 0.8387

                     49                     50                     51
                      A                      A                      A
 Frequencies --   1327.2758              1338.7067              1380.3875
 Red. masses --      1.2130                 1.2998                 1.5129
 Frc consts  --      1.2591                 1.3725                 1.6985
 IR Inten    --     15.1445                 7.2882                 5.6919

                     52                     53                     54
                      A                      A                      A
 Frequencies --   1385.1692              1392.2814              1404.5049
 Red. masses --      1.4951                 1.4514                 1.4608
 Frc consts  --      1.6901                 1.6577                 1.6977
 IR Inten    --      1.6451                 2.3976                 7.4008

                     55                     56                     57
                      A                      A                      A
 Frequencies --   1410.6731              1422.9644              1427.6506
 Red. masses --      1.3540                 1.5234                 1.4862
 Frc consts  --      1.5875                 1.8174                 1.7848
 IR Inten    --     24.6176                26.3671                 4.5704

                     58                     59                     60
                      A                      A                      A
 Frequencies --   1451.5870              1485.5087              1494.9419
 Red. masses --      1.8293                 1.0786                 1.0575
 Frc consts  --      2.2711                 1.4023                 1.3925
 IR Inten    --      0.3096                 5.6559                12.3926

                     61                     62                     63
                      A                      A                      A
 Frequencies --   1499.2127              1504.6731              1510.6227
 Red. masses --      1.0829                 1.0518                 1.1052
 Frc consts  --      1.4340                 1.4030                 1.4860
 IR Inten    --      2.2270                 9.4850                 0.9643

                     64                     65                     66
                      A                      A                      A
 Frequencies --   1511.9526              1517.9256              1532.0321
 Red. masses --      1.0850                 1.0790                 1.0922
 Frc consts  --      1.4613                 1.4647                 1.5104
 IR Inten    --      6.2734                10.2206                 8.7149

                     67                     68                     69
                      A                      A                      A
 Frequencies --   1668.0299              1734.6761              1813.5208
 Red. masses --      6.8348                 6.1169                 9.9751
 Frc consts  --     11.2043                10.8447                19.3292
 IR Inten    --      0.6017                 3.1217               116.6703

                     70                     71                     72
                      A                      A                      A
 Frequencies --   2980.1377              2992.7879              3018.0987
 Red. masses --      1.0744                 1.0701                 1.0617
 Frc consts  --      5.6218                 5.6473                 5.6982
 IR Inten    --     21.4783                57.8427                33.5502

                     73                     74                     75
                      A                      A                      A
 Frequencies --   3022.8480              3035.6736              3047.8915
 Red. masses --      1.0681                 1.0923                 1.0399
 Frc consts  --      5.7501                 5.9307                 5.6916
 IR Inten    --     14.0224                12.7139                 3.2046

                     76                     77                     78
                      A                      A                      A
 Frequencies --   3055.0748              3065.5514              3073.5888
 Red. masses --      1.0743                 1.0776                 1.0734
 Frc consts  --      5.9074                 5.9663                 5.9745
 IR Inten    --     54.9486                 3.5443                34.7475

                     79                     80                     81
                      A                      A                      A
 Frequencies --   3079.6216              3080.4476              3100.9206
 Red. masses --      1.0918                 1.0866                 1.1004
 Frc consts  --      6.1009                 6.0753                 6.2339
 IR Inten    --     24.7810                49.3723                11.5343

                     82                     83                     84
                      A                      A                      A
 Frequencies --   3106.3815              3116.7277              3159.5532
 Red. masses --      1.0985                 1.0987                 1.0853
 Frc consts  --      6.2452                 6.2883                 6.3836
 IR Inten    --     14.1661                44.5537                13.4760

                     85                     86                     87
                      A                      A                      A
 Frequencies --   3165.6209              3187.1669              3191.6058
 Red. masses --      1.1021                 1.0958                 1.0900
 Frc consts  --      6.5070                 6.5582                 6.5420
 IR Inten    --     12.4104                40.4436                 8.5298

 - Thermochemistry -
 -------------------
 Temperature   298.150 Kelvin.  Pressure   1.00000 Atm.
 Atom     1 has atomic number  6 and mass  12.00000

 Molecular mass:   178.13577 amu.
 Principal axes and moments of inertia in atomic units:
                           1         2         3
     Eigenvalues --  1133.865514783.406075208.77437
           X            0.99995   0.01041   0.00030
           Y           -0.01041   0.99994   0.00335
           Z           -0.00026  -0.00335   0.99999
 This molecule is an asymmetric top.
 Rotational symmetry number  1.
 Warning -- assumption of classical behavior for rotation
           may cause significant error
 Rotational temperatures (Kelvin)      0.07639     0.01811     0.01663
 Rotational constants (GHZ):           1.59167     0.37729     0.34648
 Zero-point vibrational energy     722922.0 (Joules/Mol)
                                  172.78251 (Kcal/Mol)
 Warning -- explicit consideration of  20 degrees of freedom as
           vibrations may cause significant error
 Vibrational temperatures:     24.67    46.96    70.31    85.37   168.43
          (Kelvin)            181.36   207.24   329.61   347.61   406.46
                              428.44   486.79   495.96   579.49   655.15
                              687.26   742.61   824.92   837.11   888.93
                              949.72  1032.74  1092.35  1135.06  1168.61
                             1179.12  1222.17  1267.93  1299.82  1370.35
                             1393.79  1398.95  1408.27  1435.04  1467.17
                             1514.88  1518.53  1572.29  1596.33  1614.28
                             1689.68  1711.27  1723.67  1731.44  1736.87
                             1767.98  1829.92  1838.84  1909.65  1926.10
                             1986.07  1992.95  2003.18  2020.77  2029.64
                             2047.33  2054.07  2088.51  2137.32  2150.89
                             2157.03  2164.89  2173.45  2175.36  2183.96
                             2204.25  2399.92  2495.81  2609.25  4287.75
                             4305.95  4342.37  4349.20  4367.66  4385.24
                             4395.57  4410.64  4422.21  4430.89  4432.08
                             4461.53  4469.39  4484.28  4545.89  4554.62
                             4585.62  4592.01

 Zero-point correction=                           0.275346 (Hartree/Particle)
 Thermal correction to Energy=                    0.289138
 Thermal correction to Enthalpy=                  0.290082
 Thermal correction to Gibbs Free Energy=         0.232595
 Sum of electronic and zero-point Energies=           -543.093474
 Sum of electronic and thermal Energies=              -543.079683
 Sum of electronic and thermal Enthalpies=            -543.078739
 Sum of electronic and thermal Free Energies=         -543.136225

                     E (Thermal)             CV                S
                      KCal/Mol        Cal/Mol-Kelvin    Cal/Mol-Kelvin
 Total                  181.437             51.391            120.991
 Electronic               0.000              0.000              0.000
 Translational            0.889              2.981             41.439
 Rotational               0.889              2.981             31.713
 Vibrational            179.659             45.430             47.839
 Vibration     1          0.593              1.986              6.940
 Vibration     2          0.594              1.983              5.662
 Vibration     3          0.595              1.978              4.863
 Vibration     4          0.597              1.974              4.479
 Vibration     5          0.608              1.935              3.148
 Vibration     6          0.611              1.927              3.005
 Vibration     7          0.616              1.909              2.750
 Vibration     8          0.652              1.797              1.886
 Vibration     9          0.658              1.777              1.791
 Vibration    10          0.682              1.706              1.518
 Vibration    11          0.691              1.678              1.429
 Vibration    12          0.719              1.599              1.220
 Vibration    13          0.723              1.586              1.190
 Vibration    14          0.768              1.464              0.953
 Vibration    15          0.814              1.349              0.780
 Vibration    16          0.834              1.300              0.716
 Vibration    17          0.871              1.214              0.619
 Vibration    18          0.930              1.089              0.498
 Vibration    19          0.939              1.071              0.482
 Vibration    20          0.978              0.994              0.420

 Optimization completed.
    -- Stationary point found.
 Normal termination of Gaussian 16 at Mon Dec 14 13:26:54 2020.

 ----------------------------------------------------------------------
 # B3LYP/6-311++G(d,p) empiricaldispersion=gd3bj scf=xqc pop=npa geom=c
 heck
 ----------------------------------------------------------------------

 ---------------------------------------
 CID_145011474_JID_3957_Energie_neutraal
 ---------------------------------------
 Structure from the checkpoint file:  "JID_3957.chk"
 Charge =  0 Multiplicity = 1

 SCF Done:  E(RB3LYP) =  -543.520777569     A.U. after   14 cycles
 Normal termination of Gaussian 16 at Mon Dec 14 13:29:59 2020.

 ----------------------------------------------------------------------
 # B3LYP/6-311++G(d,p) empiricaldispersion=gd3bj scf=xqc pop=npa geom=c
 heck
 ----------------------------------------------------------------------

 -------------------------------------
 CID_145011474_JID_3957_Energie_kation
 -------------------------------------
 Structure from the checkpoint file:  "JID_3957.chk"
 Charge =  1 Multiplicity = 2

 SCF Done:  E(UB3LYP) =  -543.234497240     A.U. after   25 cycles
 Normal termination of Gaussian 16 at Mon Dec 14 13:37:14 2020.
 Gaussian 16:  ES64L-G16RevA.03 25-Dec-2016

 ----------------------------------------------------------------------
 # B3LYP/6-311++G(d,p) empiricaldispersion=gd3bj scf=xqc pop=npa geom=c
 heck
 ----------------------------------------------------------------------

 ------------------------------------
 CID_145011474_JID_3957_Energie_anion
 ------------------------------------
 Structure from the checkpoint file:  "JID_3957.chk"
 Charge = -1 Multiplicity = 2

                         Standard orientation:
 ---------------------------------------------------------------------
 Center     Atomic      Atomic             Coordinates (Angstroms)
 Number     Number       Type             X           Y           Z
 ---------------------------------------------------------------------
      1          6           0        3.494062    1.868996   -0.384956
      2          6           0        3.129979    0.400713   -0.250295
      3          8           0        3.784539   -0.357414    0.441750
      4          6           0        1.911880   -0.064214   -1.034984
      5          6           0        1.363867   -1.430237   -0.616085
      6          6           0        0.883184   -1.507229    0.844581
      7          6           0        0.005587   -0.335958    1.306847
      8          6           0       -1.274030   -0.090041    0.535275
      9          6           0       -1.930819   -1.033723   -0.164257
     10          6           0       -3.190346   -0.704568   -0.931469
     11          6           0       -3.998278    0.411941   -0.254359
     12          6           0       -3.096710    1.531413    0.205962
     13          6           0       -1.834394    1.272318    0.579455
     14          1           0        4.468396    2.056991    0.070146
     15          1           0        2.736016    2.481707    0.120213
     16          1           0        3.503338    2.178630   -1.436756
     17          1           0        1.133575    0.708430   -0.985153
     18          1           0        2.215170   -0.091960   -2.093173
     19          1           0        0.541630   -1.678729   -1.294866
     20          1           0        2.142721   -2.186340   -0.763397
     21          1           0        0.346270   -2.453540    0.988278
     22          1           0        1.758775   -1.547565    1.499215
     23          1           0       -0.242909   -0.481399    2.368733
     24          1           0        0.601777    0.587382    1.288575
     25          1           0       -1.538630   -2.044251   -0.237138
     26          1           0       -3.812735   -1.598252   -1.052929
     27          1           0       -2.911374   -0.385402   -1.950293
     28          1           0       -4.771813    0.785423   -0.934864
     29          1           0       -4.529939    0.005564    0.622766
     30          1           0       -3.503827    2.536827    0.284258
     31          1           0       -1.196642    2.069323    0.958089
 ---------------------------------------------------------------------

 SCF Done:  E(UB3LYP) =  -543.508243203     A.U. after   33 cycles
 SCF Done:  E(UB3LYP) =  -543.508243203     a.u. after    1 cycles

 The electronic state is 2-A.
 Alpha  occ. eigenvalues --  -18.99599 -10.14230 -10.06614 -10.06281 -10.06189
 Alpha  occ. eigenvalues --  -10.06140 -10.06116 -10.05682 -10.05587 -10.05424
 Alpha  occ. eigenvalues --  -10.05347 -10.05040 -10.04458  -0.92951  -0.73368
 Alpha  occ. eigenvalues --   -0.69660  -0.66005  -0.63461  -0.62846  -0.60043
 Alpha  occ. eigenvalues --   -0.55148  -0.50444  -0.48802  -0.45166  -0.40772
 Alpha  occ. eigenvalues --   -0.39013  -0.37311  -0.36916  -0.36369  -0.33620
 Alpha  occ. eigenvalues --   -0.33269  -0.32597  -0.32550  -0.31281  -0.29623
 Alpha  occ. eigenvalues --   -0.28625  -0.28417  -0.27227  -0.26390  -0.26169
 Alpha  occ. eigenvalues --   -0.24566  -0.23546  -0.22617  -0.22320  -0.21424
 Alpha  occ. eigenvalues --   -0.19945  -0.18368  -0.13820  -0.10300   0.04848
 Alpha virt. eigenvalues --    0.06858   0.06998   0.07595   0.08374   0.08912
 Alpha virt. eigenvalues --    0.09091   0.09965   0.10221   0.10510   0.11063
 Alpha virt. eigenvalues --    0.11411   0.11996   0.12907   0.13246   0.13535

  Beta  occ. eigenvalues --  -18.99525 -10.14136 -10.06612 -10.06273 -10.06159
  Beta  occ. eigenvalues --  -10.06136 -10.06106 -10.05674 -10.05585 -10.05407
  Beta  occ. eigenvalues --  -10.05242 -10.04980 -10.04311  -0.92794  -0.73226
  Beta  occ. eigenvalues --   -0.69606  -0.65907  -0.63365  -0.62638  -0.59961
  Beta  occ. eigenvalues --   -0.55074  -0.50363  -0.48636  -0.45007  -0.40613
  Beta  occ. eigenvalues --   -0.38916  -0.37189  -0.36784  -0.36290  -0.33526
  Beta  occ. eigenvalues --   -0.33187  -0.32469  -0.32442  -0.31201  -0.29543
  Beta  occ. eigenvalues --   -0.28567  -0.28361  -0.27152  -0.26326  -0.26030
  Beta  occ. eigenvalues --   -0.24340  -0.23412  -0.22520  -0.22273  -0.21358
  Beta  occ. eigenvalues --   -0.19877  -0.17944  -0.13747  -0.09692
  Beta virt. eigenvalues --    0.06933   0.07746   0.07952   0.08209   0.08777
  Beta virt. eigenvalues --    0.09134   0.09417   0.10219   0.10446   0.10695
  Beta virt. eigenvalues --    0.11462   0.11723   0.12304   0.12922   0.13451

 Mulliken charges and spin densities:
               1          2
     1  C    0.789728  -1.429330
     2  C   -0.649660   0.827523
     3  O   -0.273717   0.020074
     4  C    0.164734  -0.516634
     5  C    0.436567  -0.545264
     6  C   -0.492775   0.319068
     7  C    0.255685  -0.823958
     8  C    1.380414  -0.314155
     9  C   -0.897185   0.686766
    10  C    0.347381  -0.933324
    11  C   -0.577201   0.022728
    12  C    0.046536  -0.182835
    13  C   -1.037711   0.638023
    14  H   -0.063972   0.214881
    15  H   -0.093871   0.240631
    16  H   -0.542199   0.715858
    17  H    0.426430  -0.238481
    18  H   -0.695783   0.906861
    19  H   -0.122717   0.268862
    20  H    0.155956   0.019367
    21  H    0.145857  -0.029539
    22  H    0.155173   0.041057
    23  H    0.211274  -0.034095
    24  H    0.236928  -0.123766
    25  H   -0.033804   0.176091
    26  H   -0.026677   0.153773
    27  H   -0.006188   0.140021
    28  H    0.066589   0.051528
    29  H    0.074695   0.045413
    30  H   -0.169797   0.330497
    31  H   -0.210690   0.352359
 Sum of Mulliken charges =  -1.00000   1.00000

 Dipole moment (field-independent basis, Debye):
    X=             -4.0383    Y=             -2.3904    Z=              3.8418  Tot=              6.0648
 Quadrupole moment (field-independent basis, Debye-Ang):
   XX=           -151.9335   YY=           -113.9309   ZZ=           -114.3090
   XY=             -2.8538   XZ=              7.6773   YZ=              2.5573

 Summary of Natural Population Analysis:

                                       Natural Population
                Natural  -----------------------------------------------
    Atom  No    Charge         Core      Valence    Rydberg      Total
 -----------------------------------------------------------------------
      C    1   -0.33418      0.99962     2.32903    0.00553     3.33418
      C    2    0.30420      0.99968     1.67510    0.02101     2.69580
      O    3   -0.29106      0.99987     3.28475    0.00645     4.29106
      C    4   -0.24215      0.99957     2.23370    0.00887     3.24215
      C    5   -0.19243      0.99963     2.18249    0.01030     3.19243
      C    6   -0.19030      0.99963     2.18252    0.00815     3.19030
      C    7   -0.19726      0.99960     2.18963    0.00804     3.19726
      C    8   -0.03440      0.99947     2.02484    0.01009     3.03440
      C    9   -0.06469      0.99948     2.05590    0.00932     3.06469
      C   10   -0.20322      0.99963     2.19443    0.00916     3.20322
      C   11   -0.20376      0.99963     2.19628    0.00786     3.20376
      C   12   -0.06691      0.99954     2.05741    0.00995     3.06691
      C   13   -0.10495      0.99950     2.09430    0.01115     3.10495
      H   14    0.10618      0.00000     0.39279    0.00103     0.39382
      H   15    0.10818      0.00000     0.39067    0.00115     0.39182
      H   16    0.11275      0.00000     0.38375    0.00350     0.38725
      H   17    0.10729      0.00000     0.39094    0.00178     0.39271
      H   18    0.11810      0.00000     0.37852    0.00338     0.38190
      H   19    0.10190      0.00000     0.39690    0.00120     0.39810
      H   20    0.10064      0.00000     0.39841    0.00095     0.39936
      H   21    0.09249      0.00000     0.40650    0.00101     0.40751
      H   22    0.10532      0.00000     0.39360    0.00108     0.39468
      H   23    0.10104      0.00000     0.39798    0.00098     0.39896
      H   24    0.09682      0.00000     0.40171    0.00146     0.40318
      H   25    0.09209      0.00000     0.40676    0.00114     0.40791
      H   26    0.09849      0.00000     0.40024    0.00127     0.40151
      H   27    0.09910      0.00000     0.39961    0.00130     0.40090
      H   28    0.09738      0.00000     0.40134    0.00127     0.40262
      H   29    0.09576      0.00000     0.40275    0.00149     0.40424
      H   30    0.09231      0.00000     0.40676    0.00094     0.40769
      H   31    0.09526      0.00000     0.40312    0.00162     0.40474
 =======================================================================
   * Total *    0.00000     12.99487    35.85271    0.15242    49.00000

 Normal termination of Gaussian 16 at Mon Dec 14 13:46:52 2020.
