 Gaussian 16, Revision A.03,

 -----------------------------------------------------------
 # opt freq B3LYP/6-31G(d) empiricaldispersion=gd3bj scf=xqc
 -----------------------------------------------------------

 -------------------------------
 CID_104672246_JID_6376_neutraal
 -------------------------------
 Symbolic Z-matrix:
 Charge =  0 Multiplicity = 1

 SCF Done:  E(RB3LYP) =  -792.429312171     A.U. after   15 cycles
 SCF Done:  E(RB3LYP) =  -792.435534043     A.U. after   13 cycles
 SCF Done:  E(RB3LYP) =  -792.436294454     A.U. after   12 cycles
 SCF Done:  E(RB3LYP) =  -792.436438454     A.U. after   12 cycles
 SCF Done:  E(RB3LYP) =  -792.436481772     A.U. after   12 cycles
 SCF Done:  E(RB3LYP) =  -792.436510440     A.U. after   11 cycles
 SCF Done:  E(RB3LYP) =  -792.436531656     A.U. after   11 cycles
 SCF Done:  E(RB3LYP) =  -792.436546363     A.U. after   11 cycles
 SCF Done:  E(RB3LYP) =  -792.436551388     A.U. after   10 cycles
 SCF Done:  E(RB3LYP) =  -792.436552643     A.U. after    8 cycles
 SCF Done:  E(RB3LYP) =  -792.436553379     A.U. after    8 cycles
 SCF Done:  E(RB3LYP) =  -792.436553619     A.U. after    8 cycles
 Optimization completed.
    -- Stationary point found.
 Normal termination of Gaussian 16 at Thu Dec 10 22:22:39 2020.

 --------------------------------------------------------------------
 #N Geom=AllCheck Guess=TCheck SCRF=Check GenChk RB3LYP/6-31G(d) Freq
 --------------------------------------------------------------------

 Structure from the checkpoint file:  "JID_6376.chk"
 -------------------------------
 CID_104672246_JID_6376_neutraal
 -------------------------------
 Charge =  0 Multiplicity = 1

 SCF Done:  E(RB3LYP) =  -792.436553619     A.U. after    1 cycles

  Exact polarizability: 195.017   6.461 132.173   0.001  -0.008  58.102
 Approx polarizability: 280.363  -4.830 240.289   0.021  -0.011  91.830

                      1                      2                      3
                      A                      A                      A
 Frequencies --     23.8220                42.9048                63.5484
 Red. masses --      6.0232                12.7318                 1.1486
 Frc consts  --      0.0020                 0.0138                 0.0027
 IR Inten    --      1.3084                 1.8264                 1.6104

                      4                      5                      6
                      A                      A                      A
 Frequencies --     86.7970                86.9135               119.7876
 Red. masses --      5.3633                 6.2327                 3.0720
 Frc consts  --      0.0238                 0.0277                 0.0260
 IR Inten    --      1.6981                 1.1492                 4.3558

                      7                      8                      9
                      A                      A                      A
 Frequencies --    171.5537               191.2290               192.4275
 Red. masses --      3.9889                 5.6596                 1.1276
 Frc consts  --      0.0692                 0.1219                 0.0246
 IR Inten    --      1.5930                 0.5586                 0.1462

                     10                     11                     12
                      A                      A                      A
 Frequencies --    261.1476               279.7075               330.3894
 Red. masses --      5.4108                 5.5165                 3.4228
 Frc consts  --      0.2174                 0.2543                 0.2201
 IR Inten    --      1.8430                 0.1015                 4.4407

                     13                     14                     15
                      A                      A                      A
 Frequencies --    340.3806               366.4332               448.5459
 Red. masses --      5.1148                 4.4733                 8.4569
 Frc consts  --      0.3491                 0.3539                 1.0025
 IR Inten    --      0.0029                 0.0540                 3.7227

                     16                     17                     18
                      A                      A                      A
 Frequencies --    450.8434               495.3989               507.4583
 Red. masses --      4.2061                 4.9697                 4.5665
 Frc consts  --      0.5037                 0.7186                 0.6928
 IR Inten    --      0.0283                 8.3300                 1.5548

                     19                     20                     21
                      A                      A                      A
 Frequencies --    556.6634               566.4666               588.3462
 Red. masses --      8.4098                 5.1015                 1.9797
 Frc consts  --      1.5354                 0.9645                 0.4038
 IR Inten    --      3.5460                 0.8687                26.3266

                     22                     23                     24
                      A                      A                      A
 Frequencies --    686.3272               705.5963               726.0196
 Red. masses --      2.4133                 4.8838                 6.5317
 Frc consts  --      0.6698                 1.4326                 2.0285
 IR Inten    --     89.7289                57.5452                49.6670

                     25                     26                     27
                      A                      A                      A
 Frequencies --    747.0878               772.3192               772.7288
 Red. masses --      6.3849                 4.6955                 5.0853
 Frc consts  --      2.0997                 1.6502                 1.7891
 IR Inten    --     16.1353                 0.0328                15.6187

                     28                     29                     30
                      A                      A                      A
 Frequencies --    806.0934               909.2675               933.9081
 Red. masses --     11.2067                 8.2770                 1.3969
 Frc consts  --      4.2904                 4.0319                 0.7178
 IR Inten    --      1.4845                17.0310                 4.3341

                     31                     32                     33
                      A                      A                      A
 Frequencies --    966.1836               997.0342              1016.5633
 Red. masses --     12.1811                 2.0852                 5.2535
 Frc consts  --      6.6997                 1.2213                 3.1986
 IR Inten    --     22.6587                 0.4411                14.2609

                     34                     35                     36
                      A                      A                      A
 Frequencies --   1039.7094              1051.9897              1071.3507
 Red. masses --      2.5856                 2.1927                 1.5301
 Frc consts  --      1.6468                 1.4297                 1.0347
 IR Inten    --     15.4814                 2.3140                 6.6522

                     37                     38                     39
                      A                      A                      A
 Frequencies --   1077.4387              1105.2696              1171.2097
 Red. masses --      1.5435                 6.5832                 7.4007
 Frc consts  --      1.0557                 4.7383                 5.9813
 IR Inten    --      1.4630                18.6400                18.5882

                     40                     41                     42
                      A                      A                      A
 Frequencies --   1191.1047              1234.8182              1264.6019
 Red. masses --      3.0824                 3.0826                 2.3726
 Frc consts  --      2.5765                 2.7693                 2.2356
 IR Inten    --    292.6771                 0.5664                 7.2616

                     43                     44                     45
                      A                      A                      A
 Frequencies --   1297.9097              1324.4044              1389.4303
 Red. masses --      5.4902                 3.0922                 4.5422
 Frc consts  --      5.4491                 3.1957                 5.1665
 IR Inten    --      6.9120                94.7566                 2.1858

                     46                     47                     48
                      A                      A                      A
 Frequencies --   1426.5503              1439.1155              1440.1200
 Red. masses --      2.8712                 1.6989                 1.3630
 Frc consts  --      3.4426                 2.0730                 1.6655
 IR Inten    --     22.6236                11.5156                 6.9794

                     49                     50                     51
                      A                      A                      A
 Frequencies --   1454.2142              1498.5896              1507.7773
 Red. masses --      2.4986                 1.2393                 1.0437
 Frc consts  --      3.1132                 1.6398                 1.3980
 IR Inten    --     62.5202                38.1938                 8.1197

                     52                     53                     54
                      A                      A                      A
 Frequencies --   1509.3365              1514.8103              1545.0677
 Red. masses --      1.1825                 1.0441                10.4096
 Frc consts  --      1.5872                 1.4116                14.6413
 IR Inten    --     12.9793                 8.3765                51.7740

                     55                     56                     57
                      A                      A                      A
 Frequencies --   1577.6659              1607.9856              1652.6166
 Red. masses --      6.1293                 7.2800                 7.2054
 Frc consts  --      8.9885                11.0903                11.5945
 IR Inten    --     29.3405                81.5779                 1.7515

                     58                     59                     60
                      A                      A                      A
 Frequencies --   1852.6475              3055.3434              3071.5324
 Red. masses --     10.6866                 1.0386                 1.0362
 Frc consts  --     21.6111                 5.7123                 5.7597
 IR Inten    --    287.1953                14.4974                 4.8596

                     61                     62                     63
                      A                      A                      A
 Frequencies --   3109.5924              3128.9608              3163.9769
 Red. masses --      1.1011                 1.0996                 1.1002
 Frc consts  --      6.2732                 6.3428                 6.4893
 IR Inten    --     12.5716                 5.3956                 4.7135

                     64                     65                     66
                      A                      A                      A
 Frequencies --   3170.1780              3219.8774              3689.4393
 Red. masses --      1.1040                 1.0922                 1.0641
 Frc consts  --      6.5374                 6.6717                 8.5337
 IR Inten    --      8.3103                 0.7217                89.6510

 - Thermochemistry -
 -------------------
 Temperature   298.150 Kelvin.  Pressure   1.00000 Atm.
 Atom     1 has atomic number  6 and mass  12.00000

 Molecular mass:   220.05964 amu.
 Principal axes and moments of inertia in atomic units:
                           1         2         3
     Eigenvalues --  1312.972676646.018377936.73745
           X            0.99977   0.02168  -0.00001
           Y           -0.02168   0.99977   0.00000
           Z            0.00001  -0.00000   1.00000
 This molecule is an asymmetric top.
 Rotational symmetry number  1.
 Warning -- assumption of classical behavior for rotation
           may cause significant error
 Rotational temperatures (Kelvin)      0.06597     0.01303     0.01091
 Rotational constants (GHZ):           1.37455     0.27155     0.22739
 Zero-point vibrational energy     454966.9 (Joules/Mol)
                                  108.73970 (Kcal/Mol)
 Warning -- explicit consideration of  21 degrees of freedom as
           vibrations may cause significant error
 Vibrational temperatures:     34.27    61.73    91.43   124.88   125.05
          (Kelvin)            172.35   246.83   275.14   276.86   375.73
                              402.44   475.36   489.73   527.22   645.36
                              648.66   712.77   730.12   800.91   815.02
                              846.50   987.47  1015.20  1044.58  1074.89
                             1111.20  1111.78  1159.79  1308.23  1343.69
                             1390.12  1434.51  1462.61  1495.91  1513.58
                             1541.43  1550.19  1590.24  1685.11  1713.73
                             1776.63  1819.48  1867.40  1905.52  1999.08
                             2052.49  2070.57  2072.01  2092.29  2156.14
                             2169.36  2171.60  2179.47  2223.01  2269.91
                             2313.53  2377.75  2665.55  4395.96  4419.25
                             4474.01  4501.88  4552.26  4561.18  4632.69
                             5308.28

 Zero-point correction=                           0.173288 (Hartree/Particle)
 Thermal correction to Energy=                    0.187344
 Thermal correction to Enthalpy=                  0.188288
 Thermal correction to Gibbs Free Energy=         0.130284
 Sum of electronic and zero-point Energies=           -792.263266
 Sum of electronic and thermal Energies=              -792.249210
 Sum of electronic and thermal Enthalpies=            -792.248265
 Sum of electronic and thermal Free Energies=         -792.306270

                     E (Thermal)             CV                S
                      KCal/Mol        Cal/Mol-Kelvin    Cal/Mol-Kelvin
 Total                  117.560             50.984            122.081
 Electronic               0.000              0.000              0.000
 Translational            0.889              2.981             42.069
 Rotational               0.889              2.981             32.604
 Vibrational            115.783             45.022             47.408
 Vibration     1          0.593              1.985              6.287
 Vibration     2          0.595              1.980              5.120
 Vibration     3          0.597              1.972              4.344
 Vibration     4          0.601              1.958              3.731
 Vibration     5          0.601              1.958              3.728
 Vibration     6          0.609              1.933              3.104
 Vibration     7          0.626              1.877              2.418
 Vibration     8          0.634              1.852              2.216
 Vibration     9          0.634              1.850              2.204
 Vibration    10          0.669              1.744              1.654
 Vibration    11          0.680              1.711              1.535
 Vibration    12          0.713              1.615              1.258
 Vibration    13          0.720              1.595              1.210
 Vibration    14          0.739              1.541              1.095
 Vibration    15          0.808              1.364              0.800
 Vibration    16          0.810              1.359              0.793
 Vibration    17          0.851              1.260              0.670
 Vibration    18          0.863              1.233              0.640
 Vibration    19          0.912              1.125              0.531
 Vibration    20          0.922              1.104              0.511
 Vibration    21          0.946              1.057              0.470

                           ! Non-Optimized Parameters !
 Normal termination of Gaussian 16 at Thu Dec 10 22:29:42 2020.

 ----------------------------------------------------------------------
 # B3LYP/6-311++G(d,p) empiricaldispersion=gd3bj scf=xqc pop=npa geom=c
 heck
 ----------------------------------------------------------------------

 ---------------------------------------
 CID_104672246_JID_6376_Energie_neutraal
 ---------------------------------------
 Structure from the checkpoint file:  "JID_6376.chk"
 Charge =  0 Multiplicity = 1

 SCF Done:  E(RB3LYP) =  -792.654463518     A.U. after   16 cycles
 Normal termination of Gaussian 16 at Thu Dec 10 22:32:54 2020.

 ----------------------------------------------------------------------
 # B3LYP/6-311++G(d,p) empiricaldispersion=gd3bj scf=xqc pop=npa geom=c
 heck
 ----------------------------------------------------------------------

 -------------------------------------
 CID_104672246_JID_6376_Energie_kation
 -------------------------------------
 Structure from the checkpoint file:  "JID_6376.chk"
 Charge =  1 Multiplicity = 2

 SCF Done:  E(UB3LYP) =  -792.326057567     A.U. after   26 cycles
 Normal termination of Gaussian 16 at Thu Dec 10 22:40:23 2020.
 Gaussian 16:  ES64L-G16RevA.03 25-Dec-2016

 ----------------------------------------------------------------------
 # B3LYP/6-311++G(d,p) empiricaldispersion=gd3bj scf=xqc pop=npa geom=c
 heck
 ----------------------------------------------------------------------

 ------------------------------------
 CID_104672246_JID_6376_Energie_anion
 ------------------------------------
 Structure from the checkpoint file:  "JID_6376.chk"
 Charge = -1 Multiplicity = 2

                         Standard orientation:
 ---------------------------------------------------------------------
 Center     Atomic      Atomic             Coordinates (Angstroms)
 Number     Number       Type             X           Y           Z
 ---------------------------------------------------------------------
      1          6           0       -4.495268   -1.654345    0.000230
      2          6           0       -3.401330   -0.622716   -0.000152
      3          6           0       -2.048369   -0.976995   -0.000412
      4          6           0       -1.098614    0.036423   -0.000149
      5          6           0       -1.567614    1.374268    0.000263
      6          7           0       -2.881525    1.636316    0.000376
      7          7           0       -3.786452    0.660346    0.000154
      8          6           0       -0.674956    2.581084    0.000494
      9          6           0        0.320693   -0.300437   -0.000295
     10          7           0        1.370918    0.475049    0.000415
     11          6           0        2.407013   -0.426433   -0.000065
     12          7           0        2.044212   -1.689902   -0.000862
     13          8           0        0.657697   -1.616608   -0.001035
     14          6           0        3.853054   -0.058541    0.000443
     15          8           0        4.755441   -0.861249    0.002823
     16          8           0        4.016089    1.277971   -0.002270
     17          1           0       -4.433914   -2.294559    0.888076
     18          1           0       -4.424947   -2.305234   -0.879066
     19          1           0       -5.465223   -1.153490   -0.007289
     20          1           0       -1.748393   -2.019626   -0.000807
     21          1           0       -0.017864    2.591605    0.875694
     22          1           0       -0.016342    2.590990   -0.873524
     23          1           0       -1.304983    3.472190   -0.000232
     24          1           0        4.980123    1.430708   -0.001724
 ---------------------------------------------------------------------

 SCF Done:  E(UB3LYP) =  -792.708154039     A.U. after   23 cycles

 The electronic state is 2-A.
 Alpha  occ. eigenvalues --  -19.07228 -19.07042 -19.00783 -14.22389 -14.19705
 Alpha  occ. eigenvalues --  -14.18960 -14.18600 -10.20147 -10.13010 -10.10905
 Alpha  occ. eigenvalues --  -10.08831 -10.08439 -10.06485 -10.06189 -10.04984
 Alpha  occ. eigenvalues --  -10.04261  -1.03045  -1.01119  -0.92084  -0.87400
 Alpha  occ. eigenvalues --   -0.80627  -0.74834  -0.71172  -0.68617  -0.62030
 Alpha  occ. eigenvalues --   -0.58755  -0.57408  -0.54584  -0.50469  -0.47837
 Alpha  occ. eigenvalues --   -0.45533  -0.41389  -0.39159  -0.38300  -0.37287
 Alpha  occ. eigenvalues --   -0.36132  -0.34407  -0.33044  -0.32634  -0.31630
 Alpha  occ. eigenvalues --   -0.30486  -0.29968  -0.29403  -0.27901  -0.27166
 Alpha  occ. eigenvalues --   -0.26159  -0.25688  -0.22971  -0.21084  -0.20548
 Alpha  occ. eigenvalues --   -0.20119  -0.18566  -0.17638  -0.16495  -0.15177
 Alpha  occ. eigenvalues --   -0.13840  -0.09763   0.00632
 Alpha virt. eigenvalues --    0.05965   0.07491   0.08250   0.09555   0.10181
 Alpha virt. eigenvalues --    0.11316   0.11997   0.12865   0.13195   0.13361
 Alpha virt. eigenvalues --    0.14328   0.14776   0.15141   0.16183   0.16346

  Beta  occ. eigenvalues --  -19.07196 -19.06657 -19.00761 -14.21772 -14.19632
  Beta  occ. eigenvalues --  -14.18585 -14.18534 -10.20076 -10.12816 -10.10964
  Beta  occ. eigenvalues --  -10.08821 -10.08531 -10.06337 -10.06184 -10.04721
  Beta  occ. eigenvalues --  -10.04264  -1.02407  -1.01015  -0.92033  -0.86936
  Beta  occ. eigenvalues --   -0.80387  -0.74068  -0.70927  -0.68133  -0.61913
  Beta  occ. eigenvalues --   -0.58473  -0.57214  -0.53924  -0.50274  -0.47644
  Beta  occ. eigenvalues --   -0.45268  -0.41233  -0.38970  -0.38222  -0.36276
  Beta  occ. eigenvalues --   -0.36034  -0.33600  -0.32792  -0.32286  -0.31427
  Beta  occ. eigenvalues --   -0.30280  -0.29924  -0.29245  -0.27769  -0.27027
  Beta  occ. eigenvalues --   -0.25575  -0.25431  -0.22703  -0.19933  -0.19681
  Beta  occ. eigenvalues --   -0.18515  -0.18400  -0.17403  -0.16209  -0.14026
  Beta  occ. eigenvalues --   -0.12143  -0.09397
  Beta virt. eigenvalues --    0.06755   0.07492   0.07767   0.08235   0.09790
  Beta virt. eigenvalues --    0.10178   0.11318   0.12126   0.12864   0.13230
  Beta virt. eigenvalues --    0.13358   0.14333   0.14763   0.16181   0.16356

 Mulliken charges and spin densities:
               1          2
     1  C   -0.676388  -0.011576
     2  C   -0.295927  -0.071934
     3  C    0.167181   0.248018
     4  C    0.931977   0.088970
     5  C   -1.199264   0.012263
     6  N   -0.002254   0.017573
     7  N   -0.119658   0.209938
     8  C   -0.595993  -0.004743
     9  C   -1.485908   0.123320
    10  N   -0.017934   0.004982
    11  C    1.018039  -0.032832
    12  N   -0.506911   0.293216
    13  O    0.223445   0.089639
    14  C    0.682209   0.036625
    15  O   -0.316138   0.008238
    16  O   -0.175009   0.005233
    17  H    0.136340  -0.001548
    18  H    0.135692  -0.001456
    19  H    0.152916  -0.001378
    20  H    0.187527  -0.015126
    21  H    0.161233   0.001494
    22  H    0.161285   0.001504
    23  H    0.151867  -0.000366
    24  H    0.281672  -0.000054
 Sum of Mulliken charges =  -1.00000   1.00000

 Dipole moment (field-independent basis, Debye):
    X=              1.3790    Y=              0.5601    Z=             -0.0025  Tot=              1.4884
 Quadrupole moment (field-independent basis, Debye-Ang):
   XX=           -149.2352   YY=           -112.0360   ZZ=            -95.2308
   XY=             27.9929   XZ=             -0.0202   YZ=              0.0024

 Summary of Natural Population Analysis:

                                       Natural Population
                Natural  -----------------------------------------------
    Atom  No    Charge         Core      Valence    Rydberg      Total
 -----------------------------------------------------------------------
      C    1   -0.29593      0.99964     2.29125    0.00504     3.29593
      C    2    0.06155      0.99957     1.92548    0.01341     2.93845
      C    3   -0.03977      0.99950     2.03201    0.00826     3.03977
      C    4   -0.03480      0.99935     2.02620    0.00925     3.03480
      C    5    0.11142      0.99955     1.87584    0.01319     2.88858
      N    6   -0.13746      0.99969     2.62062    0.01716     3.63746
      N    7   -0.07800      0.99968     2.56053    0.01779     3.57800
      C    8   -0.30215      0.99964     2.29703    0.00548     3.30215
      C    9    0.29634      0.99959     1.68561    0.01846     2.70366
      N   10   -0.25871      0.99967     2.75063    0.00841     3.75871
      C   11    0.07527      0.99960     1.90654    0.01859     2.92473
      N   12    0.03169      0.99968     2.45653    0.01210     3.46831
      O   13   -0.13812      0.99986     3.12642    0.01184     4.13812
      C   14    0.39215      0.99968     1.58340    0.02477     2.60785
      O   15   -0.30606      0.99987     3.29802    0.00817     4.30606
      O   16   -0.33288      0.99988     3.32674    0.00626     4.33288
      H   17    0.09726      0.00000     0.40167    0.00107     0.40274
      H   18    0.09721      0.00000     0.40172    0.00107     0.40279
      H   19    0.10614      0.00000     0.39194    0.00192     0.39386
      H   20    0.10286      0.00000     0.39600    0.00114     0.39714
      H   21    0.10864      0.00000     0.39027    0.00109     0.39136
      H   22    0.10867      0.00000     0.39024    0.00109     0.39133
      H   23    0.10227      0.00000     0.39591    0.00182     0.39773
      H   24    0.23241      0.00000     0.26458    0.00301     0.26759
 =======================================================================
   * Total *    0.00000     15.99445    40.79518    0.21037    57.00000

 Normal termination of Gaussian 16 at Thu Dec 10 22:47:06 2020.
