 Gaussian 16, Revision A.03,

 -----------------------------------------------------------
 # opt freq B3LYP/6-31G(d) empiricaldispersion=gd3bj scf=xqc
 -----------------------------------------------------------

 --------------------------------
 CID_119898003_JID_10866_neutraal
 --------------------------------
 Symbolic Z-matrix:
 Charge =  0 Multiplicity = 1

 SCF Done:  E(RB3LYP) =  -952.172789683     A.U. after   15 cycles
 SCF Done:  E(RB3LYP) =  -952.180370328     A.U. after   13 cycles
 SCF Done:  E(RB3LYP) =  -952.173956107     A.U. after   13 cycles
 SCF Done:  E(RB3LYP) =  -952.181559264     A.U. after   12 cycles
 SCF Done:  E(RB3LYP) =  -952.184051028     A.U. after   13 cycles
 SCF Done:  E(RB3LYP) =  -952.186138247     A.U. after   13 cycles
 SCF Done:  E(RB3LYP) =  -952.187653024     A.U. after   14 cycles
 SCF Done:  E(RB3LYP) =  -952.188500569     A.U. after   12 cycles
 SCF Done:  E(RB3LYP) =  -952.188669784     A.U. after   12 cycles
 SCF Done:  E(RB3LYP) =  -952.188984370     A.U. after   12 cycles
 SCF Done:  E(RB3LYP) =  -952.189252742     A.U. after    9 cycles
 SCF Done:  E(RB3LYP) =  -952.189253361     A.U. after    8 cycles
 SCF Done:  E(RB3LYP) =  -952.189253737     A.U. after    8 cycles
 SCF Done:  E(RB3LYP) =  -952.189253903     A.U. after    8 cycles
 SCF Done:  E(RB3LYP) =  -952.189253939     A.U. after    7 cycles
 Optimization completed.
    -- Stationary point found.
 Normal termination of Gaussian 16 at Sat Dec 12 16:39:35 2020.

 --------------------------------------------------------------------
 #N Geom=AllCheck Guess=TCheck SCRF=Check GenChk RB3LYP/6-31G(d) Freq
 --------------------------------------------------------------------

 Structure from the checkpoint file:  "JID_10866.chk"
 --------------------------------
 CID_119898003_JID_10866_neutraal
 --------------------------------
 Charge =  0 Multiplicity = 1

 SCF Done:  E(RB3LYP) =  -952.189253939     A.U. after    1 cycles

  Exact polarizability: 213.030  -8.552 161.906 -16.472  -8.460 135.896
 Approx polarizability: 307.096 -20.552 240.218 -34.947 -20.250 212.103

                      1                      2                      3
                      A                      A                      A
 Frequencies --     18.9258                28.0224                40.3893
 Red. masses --      3.9260                 5.0782                 5.4294
 Frc consts  --      0.0008                 0.0023                 0.0052
 IR Inten    --      0.2224                 1.6473                 0.7519

                      4                      5                      6
                      A                      A                      A
 Frequencies --     49.9343                54.6007                76.4775
 Red. masses --      4.4081                 5.3991                 3.4033
 Frc consts  --      0.0065                 0.0095                 0.0117
 IR Inten    --      3.9009                 3.0974                 0.8479

                      7                      8                      9
                      A                      A                      A
 Frequencies --    109.7990               120.9605               132.8491
 Red. masses --      3.7204                 3.5961                 2.1395
 Frc consts  --      0.0264                 0.0310                 0.0222
 IR Inten    --      5.9969                 1.3808                 0.1224

                     10                     11                     12
                      A                      A                      A
 Frequencies --    149.8513               164.1228               174.3416
 Red. masses --      4.7967                 2.8884                 1.7068
 Frc consts  --      0.0635                 0.0458                 0.0306
 IR Inten    --      0.8606                 1.3000                 2.6220

                     13                     14                     15
                      A                      A                      A
 Frequencies --    203.1698               221.0813               231.8100
 Red. masses --      1.9074                 3.2458                 1.6280
 Frc consts  --      0.0464                 0.0935                 0.0515
 IR Inten    --      2.3137                 5.0048                 0.6314

                     16                     17                     18
                      A                      A                      A
 Frequencies --    247.2084               267.0185               271.1466
 Red. masses --      1.9242                 1.1338                 1.2717
 Frc consts  --      0.0693                 0.0476                 0.0551
 IR Inten    --      6.6679                 2.7384                44.0147

                     19                     20                     21
                      A                      A                      A
 Frequencies --    298.3845               322.3818               345.6136
 Red. masses --      2.5205                 4.0534                 3.3532
 Frc consts  --      0.1322                 0.2482                 0.2360
 IR Inten    --      1.0951                 3.2259                 3.3565

                     22                     23                     24
                      A                      A                      A
 Frequencies --    355.3122               384.0681               397.3240
 Red. masses --      5.1254                 4.3354                 3.1157
 Frc consts  --      0.3812                 0.3768                 0.2898
 IR Inten    --      5.0773                 0.1617                 4.4914

                     25                     26                     27
                      A                      A                      A
 Frequencies --    407.4964               408.2947               420.1213
 Red. masses --      1.5809                 2.4803                 3.3144
 Frc consts  --      0.1547                 0.2436                 0.3447
 IR Inten    --    110.5751                46.6171                14.8781

                     28                     29                     30
                      A                      A                      A
 Frequencies --    440.7200               457.1314               484.2833
 Red. masses --      3.7420                 2.6106                 3.3530
 Frc consts  --      0.4282                 0.3214                 0.4633
 IR Inten    --      9.9535                 4.6737                 1.3708

                     31                     32                     33
                      A                      A                      A
 Frequencies --    540.4220               549.1211               574.6144
 Red. masses --      2.7393                 1.3127                 2.0361
 Frc consts  --      0.4714                 0.2332                 0.3961
 IR Inten    --     12.1408                84.1952                 5.0422

                     34                     35                     36
                      A                      A                      A
 Frequencies --    594.2896               623.6915               630.6343
 Red. masses --      2.4983                 2.7893                 4.9008
 Frc consts  --      0.5199                 0.6393                 1.1483
 IR Inten    --      6.5814                40.0492                26.0682

                     37                     38                     39
                      A                      A                      A
 Frequencies --    677.9850               694.0735               743.4040
 Red. masses --      6.2779                 3.2178                 4.9540
 Frc consts  --      1.7002                 0.9133                 1.6131
 IR Inten    --      1.4606                 8.6631                30.2586

                     40                     41                     42
                      A                      A                      A
 Frequencies --    754.4280               771.7349               793.2888
 Red. masses --      5.9904                 5.7861                 1.4737
 Frc consts  --      2.0088                 2.0304                 0.5464
 IR Inten    --     10.0235                 0.7554                 7.5016

                     43                     44                     45
                      A                      A                      A
 Frequencies --    804.7049               837.8766               872.2876
 Red. masses --      7.7343                 3.1212                 3.2338
 Frc consts  --      2.9508                 1.2910                 1.4497
 IR Inten    --     21.0400                 2.8559                 3.1832

                     46                     47                     48
                      A                      A                      A
 Frequencies --    887.1850               918.4352               935.3135
 Red. masses --      1.9066                 1.5995                 1.6714
 Frc consts  --      0.8842                 0.7949                 0.8615
 IR Inten    --      5.1323                98.3160                46.5855

                     49                     50                     51
                      A                      A                      A
 Frequencies --    955.4368               976.5333               990.3185
 Red. masses --      1.5683                 1.3677                 1.4435
 Frc consts  --      0.8435                 0.7685                 0.8341
 IR Inten    --     13.2730                 0.4301                15.1502

                     52                     53                     54
                      A                      A                      A
 Frequencies --   1010.5517              1036.0485              1055.2213
 Red. masses --      3.8750                 2.0359                 7.5271
 Frc consts  --      2.3315                 1.2876                 4.9382
 IR Inten    --     10.1855                 9.9343                47.5375

                     55                     56                     57
                      A                      A                      A
 Frequencies --   1081.0592              1100.5145              1102.6347
 Red. masses --      1.9610                 2.3082                 1.5764
 Frc consts  --      1.3503                 1.6471                 1.1292
 IR Inten    --      0.4260                39.4313                 4.4081

                     58                     59                     60
                      A                      A                      A
 Frequencies --   1129.3791              1132.2188              1170.2018
 Red. masses --      1.8635                 1.8366                 2.3860
 Frc consts  --      1.4005                 1.3871                 1.9250
 IR Inten    --     36.6504                 2.0986                 7.4031

                     61                     62                     63
                      A                      A                      A
 Frequencies --   1184.3429              1208.7584              1241.9239
 Red. masses --      1.2659                 1.4409                 2.6262
 Frc consts  --      1.0461                 1.2404                 2.3866
 IR Inten    --      0.6996                 8.2544                75.1213

                     64                     65                     66
                      A                      A                      A
 Frequencies --   1259.2651              1283.4998              1295.8907
 Red. masses --      2.2373                 1.3209                 1.8179
 Frc consts  --      2.0903                 1.2821                 1.7987
 IR Inten    --     23.2671                38.5322                18.5575

                     67                     68                     69
                      A                      A                      A
 Frequencies --   1317.5657              1322.9444              1335.0951
 Red. masses --      3.0487                 2.0006                 1.3065
 Frc consts  --      3.1183                 2.0630                 1.3721
 IR Inten    --     56.9145                59.8340                 1.7386

                     70                     71                     72
                      A                      A                      A
 Frequencies --   1351.3861              1371.4938              1385.0663
 Red. masses --      3.1664                 2.8627                 2.1765
 Frc consts  --      3.4070                 3.1725                 2.4600
 IR Inten    --    159.8032               205.2117                43.1956

                     73                     74                     75
                      A                      A                      A
 Frequencies --   1391.1553              1412.3332              1428.7014
 Red. masses --      1.3852                 1.7627                 1.2571
 Frc consts  --      1.5794                 2.0715                 1.5118
 IR Inten    --      9.0534                13.2766                27.4772

                     76                     77                     78
                      A                      A                      A
 Frequencies --   1435.6049              1445.0718              1452.7099
 Red. masses --      1.2540                 4.2754                 1.7055
 Frc consts  --      1.5227                 5.2602                 2.1206
 IR Inten    --     16.2560                49.7939               155.8263

                     79                     80                     81
                      A                      A                      A
 Frequencies --   1485.2939              1510.8091              1514.1250
 Red. masses --      1.9867                 1.0488                 1.0734
 Frc consts  --      2.5822                 1.4105                 1.4498
 IR Inten    --     81.4869                 6.2655                 0.5467

                     82                     83                     84
                      A                      A                      A
 Frequencies --   1521.2555              1522.5862              1526.1292
 Red. masses --      1.0512                 1.0789                 1.0612
 Frc consts  --      1.4333                 1.4737                 1.4562
 IR Inten    --      1.3894                58.2900                 0.0768

                     85                     86                     87
                      A                      A                      A
 Frequencies --   1526.8276              1535.1192              1536.3804
 Red. masses --      1.0585                 1.0830                 2.0550
 Frc consts  --      1.4538                 1.5037                 2.8580
 IR Inten    --      9.3853                13.9203               192.1397

                     88                     89                     90
                      A                      A                      A
 Frequencies --   1551.6860              1611.7441              1643.3045
 Red. masses --      1.0582                 7.5718                 1.2302
 Frc consts  --      1.5012                11.5888                 1.9574
 IR Inten    --      4.3389                53.0393               116.3421

                     91                     92                     93
                      A                      A                      A
 Frequencies --   1656.9195              1661.9450              1769.1049
 Red. masses --      1.7161                 2.3550                 5.1312
 Frc consts  --      2.7758                 3.8324                 9.4619
 IR Inten    --     62.0121               118.8446               277.1219

                     94                     95                     96
                      A                      A                      A
 Frequencies --   1807.9631              3034.1372              3041.2091
 Red. masses --      9.4525                 1.0604                 1.0440
 Frc consts  --     18.2044                 5.7515                 5.6894
 IR Inten    --    333.4085                23.6355                31.0343

                     97                     98                     99
                      A                      A                      A
 Frequencies --   3043.5144              3053.6220              3063.4509
 Red. masses --      1.0706                 1.0375                 1.0939
 Frc consts  --      5.8427                 5.6999                 6.0488
 IR Inten    --     22.4823                10.5185                54.3625

                    100                    101                    102
                      A                      A                      A
 Frequencies --   3070.9039              3100.3779              3120.9262
 Red. masses --      1.0300                 1.1005                 1.1010
 Frc consts  --      5.7230                 6.2326                 6.3185
 IR Inten    --     45.5520                57.3874                22.2623

                    103                    104                    105
                      A                      A                      A
 Frequencies --   3123.8372              3136.9219              3143.4027
 Red. masses --      1.0945                 1.1018                 1.1071
 Frc consts  --      6.2928                 6.3880                 6.4451
 IR Inten    --     23.0447                39.3854                22.7649

                    106                    107                    108
                      A                      A                      A
 Frequencies --   3155.1905              3181.4077              3184.3436
 Red. masses --      1.0990                 1.1061                 1.0921
 Frc consts  --      6.4459                 6.5959                 6.5243
 IR Inten    --      9.7065                25.6278                11.6504

                    109                    110                    111
                      A                      A                      A
 Frequencies --   3216.3378              3476.3532              3556.0485
 Red. masses --      1.0917                 1.0492                 1.0745
 Frc consts  --      6.6539                 7.4704                 8.0059
 IR Inten    --      1.4184                17.6665                29.0692

                    112                    113                    114
                      A                      A                      A
 Frequencies --   3567.4126              3572.9593              3695.2286
 Red. masses --      1.0927                 1.0458                 1.1034
 Frc consts  --      8.1936                 7.8657                 8.8769
 IR Inten    --      9.1737                32.9798                33.3093

 - Thermochemistry -
 -------------------
 Temperature   298.150 Kelvin.  Pressure   1.00000 Atm.
 Atom     1 has atomic number  6 and mass  12.00000

 Molecular mass:   280.15354 amu.
 Principal axes and moments of inertia in atomic units:
                           1         2         3
     Eigenvalues --  3614.417128929.538789891.60479
           X            0.99976   0.02127   0.00562
           Y           -0.02121   0.99972  -0.01074
           Z           -0.00584   0.01062   0.99993
 This molecule is an asymmetric top.
 Rotational symmetry number  1.
 Warning -- assumption of classical behavior for rotation
           may cause significant error
 Rotational temperatures (Kelvin)      0.02396     0.00970     0.00876
 Rotational constants (GHZ):           0.49932     0.20211     0.18245
 Zero-point vibrational energy     880858.5 (Joules/Mol)
                                  210.53023 (Kcal/Mol)
 Warning -- explicit consideration of  34 degrees of freedom as
           vibrations may cause significant error
 Vibrational temperatures:     27.23    40.32    58.11    71.84    78.56
          (Kelvin)            110.03   157.98   174.04   191.14   215.60
                              236.14   250.84   292.32   318.09   333.52
                              355.68   384.18   390.12   429.31   463.84
                              497.26   511.22   552.59   571.66   586.30
                              587.45   604.46   634.10   657.71   696.78
                              777.55   790.06   826.74   855.05   897.35
                              907.34   975.47   998.62  1069.59  1085.45
                             1110.35  1141.37  1157.79  1205.52  1255.03
                             1276.46  1321.42  1345.71  1374.66  1405.01
                             1424.85  1453.96  1490.64  1518.23  1555.40
                             1583.39  1586.45  1624.92  1629.01  1683.66
                             1704.01  1739.13  1786.85  1811.80  1846.67
                             1864.50  1895.68  1903.42  1920.90  1944.34
                             1973.27  1992.80  2001.56  2032.03  2055.58
                             2065.52  2079.14  2090.13  2137.01  2173.72
                             2178.49  2188.75  2190.66  2195.76  2196.76
                             2208.69  2210.51  2232.53  2318.94  2364.35
                             2383.94  2391.17  2545.35  2601.26  4365.45
                             4375.62  4378.94  4393.48  4407.62  4418.35
                             4460.75  4490.32  4494.50  4513.33  4522.66
                             4539.62  4577.34  4581.56  4627.59  5001.70
                             5116.36  5132.71  5140.69  5316.61

 Zero-point correction=                           0.335501 (Hartree/Particle)
 Thermal correction to Energy=                    0.356769
 Thermal correction to Enthalpy=                  0.357714
 Thermal correction to Gibbs Free Energy=         0.284067
 Sum of electronic and zero-point Energies=           -951.853753
 Sum of electronic and thermal Energies=              -951.832485
 Sum of electronic and thermal Enthalpies=            -951.831540
 Sum of electronic and thermal Free Energies=         -951.905187

                     E (Thermal)             CV                S
                      KCal/Mol        Cal/Mol-Kelvin    Cal/Mol-Kelvin
 Total                  223.876             79.054            155.001
 Electronic               0.000              0.000              0.000
 Translational            0.889              2.981             42.789
 Rotational               0.889              2.981             34.123
 Vibrational            222.099             73.093             78.090
 Vibration     1          0.593              1.986              6.744
 Vibration     2          0.593              1.984              5.965
 Vibration     3          0.594              1.981              5.240
 Vibration     4          0.595              1.978              4.820
 Vibration     5          0.596              1.976              4.643
 Vibration     6          0.599              1.965              3.979
 Vibration     7          0.606              1.941              3.272
 Vibration     8          0.609              1.932              3.085
 Vibration     9          0.613              1.921              2.904
 Vibration    10          0.618              1.903              2.674
 Vibration    11          0.623              1.887              2.502
 Vibration    12          0.627              1.874              2.388
 Vibration    13          0.639              1.835              2.104
 Vibration    14          0.648              1.809              1.950
 Vibration    15          0.653              1.792              1.865
 Vibration    16          0.661              1.767              1.750
 Vibration    17          0.672              1.734              1.615
 Vibration    18          0.675              1.726              1.589
 Vibration    19          0.691              1.677              1.426
 Vibration    20          0.707              1.631              1.298
 Vibration    21          0.724              1.584              1.186
 Vibration    22          0.731              1.564              1.143
 Vibration    23          0.753              1.504              1.023
 Vibration    24          0.764              1.476              0.973
 Vibration    25          0.772              1.454              0.936
 Vibration    26          0.773              1.452              0.933
 Vibration    27          0.783              1.427              0.892
 Vibration    28          0.801              1.381              0.824
 Vibration    29          0.815              1.345              0.774
 Vibration    30          0.840              1.285              0.699
 Vibration    31          0.895              1.161              0.564
 Vibration    32          0.904              1.142              0.546
 Vibration    33          0.931              1.086              0.495
 Vibration    34          0.952              1.044              0.460

 Optimization completed.
    -- Stationary point found.
 Normal termination of Gaussian 16 at Sat Dec 12 16:59:22 2020.

 ----------------------------------------------------------------------
 # B3LYP/6-311++G(d,p) empiricaldispersion=gd3bj scf=xqc pop=npa geom=c
 heck
 ----------------------------------------------------------------------

 ----------------------------------------
 CID_119898003_JID_10866_Energie_neutraal
 ----------------------------------------
 Structure from the checkpoint file:  "JID_10866.chk"
 Charge =  0 Multiplicity = 1

 SCF Done:  E(RB3LYP) =  -952.474455862     A.U. after   17 cycles
 Normal termination of Gaussian 16 at Sat Dec 12 17:08:38 2020.

 ----------------------------------------------------------------------
 # B3LYP/6-311++G(d,p) empiricaldispersion=gd3bj scf=xqc pop=npa geom=c
 heck
 ----------------------------------------------------------------------

 --------------------------------------
 CID_119898003_JID_10866_Energie_kation
 --------------------------------------
 Structure from the checkpoint file:  "JID_10866.chk"
 Charge =  1 Multiplicity = 2

 SCF Done:  E(UB3LYP) =  -952.166615161     A.U. after   30 cycles
 Normal termination of Gaussian 16 at Sat Dec 12 17:30:13 2020.
 Gaussian 16:  ES64L-G16RevA.03 25-Dec-2016

 ----------------------------------------------------------------------
 # B3LYP/6-311++G(d,p) empiricaldispersion=gd3bj scf=xqc pop=npa geom=c
 heck
 ----------------------------------------------------------------------

 -------------------------------------
 CID_119898003_JID_10866_Energie_anion
 -------------------------------------
 Structure from the checkpoint file:  "JID_10866.chk"
 Charge = -1 Multiplicity = 2

                         Standard orientation:
 ---------------------------------------------------------------------
 Center     Atomic      Atomic             Coordinates (Angstroms)
 Number     Number       Type             X           Y           Z
 ---------------------------------------------------------------------
      1          6           0        3.116859    2.972470    1.086227
      2          6           0        2.315779    1.792804    1.646272
      3          6           0        1.785089    0.826065    0.565056
      4          6           0        2.735029   -0.352160    0.224938
      5          6           0        2.649019   -1.446093    1.317484
      6          6           0        2.418101   -1.051819   -1.125100
      7          8           0        3.331358   -1.440918   -1.845008
      8          7           0        1.123198   -1.310273   -1.517269
      9          6           0       -0.127179   -1.054767   -0.886430
     10          6           0       -0.873319    0.091334   -1.191616
     11          6           0       -2.093220    0.320072   -0.572114
     12          6           0       -2.531499   -0.652707    0.364509
     13          7           0       -1.846275   -1.758866    0.639862
     14          6           0       -0.678457   -1.957658    0.015765
     15          8           0       -3.675804   -0.413555    1.015782
     16          6           0       -4.118836   -1.403468    1.950693
     17          6           0       -2.928692    1.520207   -0.921559
     18          8           0       -4.127733    1.462594   -1.133536
     19          7           0       -2.202139    2.682098   -1.054212
     20          7           0        4.104354    0.159621    0.071776
     21          1           0        3.961426    2.614009    0.493730
     22          1           0        3.488977    3.617016    1.891297
     23          1           0        2.485987    3.588679    0.432604
     24          1           0        2.923543    1.244915    2.378685
     25          1           0        1.459562    2.179621    2.214169
     26          1           0        0.826598    0.421112    0.896220
     27          1           0        1.590654    1.400060   -0.350077
     28          1           0        1.633052   -1.834280    1.438056
     29          1           0        3.315957   -2.278673    1.070815
     30          1           0        2.961640   -1.030503    2.282266
     31          1           0        1.106805   -1.808873   -2.401090
     32          1           0       -0.489559    0.800580   -1.917947
     33          1           0       -0.151776   -2.880374    0.249948
     34          1           0       -5.060969   -1.018761    2.341784
     35          1           0       -4.271998   -2.365141    1.453748
     36          1           0       -3.390129   -1.534296    2.755742
     37          1           0       -1.315728    2.781010   -0.579525
     38          1           0       -2.741946    3.525998   -1.196704
     39          1           0        4.574194    0.151254    0.973735
     40          1           0        4.605123   -0.472058   -0.551201
 ---------------------------------------------------------------------

 SCF Done:  E(UB3LYP) =  -952.485518179     A.U. after   33 cycles
 SCF Done:  E(UB3LYP) =  -952.485518179     a.u. after    1 cycles

 The electronic state is 2-A.
 Alpha  occ. eigenvalues --  -19.03333 -18.98814 -18.95151 -14.23149 -14.20788
 Alpha  occ. eigenvalues --  -14.18819 -14.15986 -10.17106 -10.13518 -10.13190
 Alpha  occ. eigenvalues --  -10.11871 -10.11031 -10.07611 -10.07189 -10.06501
 Alpha  occ. eigenvalues --  -10.06151 -10.06117 -10.05380 -10.03506 -10.03159
 Alpha  occ. eigenvalues --   -0.95946  -0.94258  -0.90433  -0.82063  -0.79422
 Alpha  occ. eigenvalues --   -0.79303  -0.77989  -0.68754  -0.66913  -0.64720
 Alpha  occ. eigenvalues --   -0.63695  -0.58927  -0.58530  -0.54279  -0.52698
 Alpha  occ. eigenvalues --   -0.49401  -0.48410  -0.47328  -0.44612  -0.42829
 Alpha  occ. eigenvalues --   -0.41486  -0.40980  -0.39495  -0.37914  -0.36536
 Alpha  occ. eigenvalues --   -0.35736  -0.35298  -0.34269  -0.34038  -0.33098
 Alpha  occ. eigenvalues --   -0.32140  -0.31733  -0.31436  -0.30129  -0.29317
 Alpha  occ. eigenvalues --   -0.28635  -0.28299  -0.27852  -0.27033  -0.26589
 Alpha  occ. eigenvalues --   -0.26265  -0.25909  -0.24119  -0.23336  -0.23144
 Alpha  occ. eigenvalues --   -0.22879  -0.20632  -0.16862  -0.16153  -0.15757
 Alpha  occ. eigenvalues --   -0.15468  -0.14355  -0.13755  -0.11872  -0.10713
 Alpha  occ. eigenvalues --    0.04269
 Alpha virt. eigenvalues --    0.06322   0.07616   0.08157   0.08651   0.08988
 Alpha virt. eigenvalues --    0.09545   0.10263   0.10601   0.11002   0.11366
 Alpha virt. eigenvalues --    0.11724   0.12015   0.12119   0.12671   0.13229

  Beta  occ. eigenvalues --  -19.03347 -18.98809 -18.94981 -14.23142 -14.20752
  Beta  occ. eigenvalues --  -14.18813 -14.15733 -10.17102 -10.13415 -10.13234
  Beta  occ. eigenvalues --  -10.11872 -10.11030 -10.07746 -10.07178 -10.06476
  Beta  occ. eigenvalues --  -10.06147 -10.06115 -10.04977 -10.03153 -10.02882
  Beta  occ. eigenvalues --   -0.95944  -0.94249  -0.90132  -0.81960  -0.79410
  Beta  occ. eigenvalues --   -0.78914  -0.77825  -0.68741  -0.66294  -0.64673
  Beta  occ. eigenvalues --   -0.63482  -0.58744  -0.58482  -0.54223  -0.52031
  Beta  occ. eigenvalues --   -0.49174  -0.48294  -0.47133  -0.44577  -0.42750
  Beta  occ. eigenvalues --   -0.41420  -0.40860  -0.39387  -0.37711  -0.36497
  Beta  occ. eigenvalues --   -0.35660  -0.35272  -0.34214  -0.33907  -0.32999
  Beta  occ. eigenvalues --   -0.32010  -0.31695  -0.31408  -0.29839  -0.29185
  Beta  occ. eigenvalues --   -0.28550  -0.27701  -0.27630  -0.26760  -0.26417
  Beta  occ. eigenvalues --   -0.26043  -0.25597  -0.24092  -0.23291  -0.23126
  Beta  occ. eigenvalues --   -0.22802  -0.20013  -0.16740  -0.15944  -0.14987
  Beta  occ. eigenvalues --   -0.14381  -0.14089  -0.13213  -0.11587  -0.09644
  Beta virt. eigenvalues --    0.06340   0.07604   0.08089   0.08588   0.08910
  Beta virt. eigenvalues --    0.09502   0.10114   0.10288   0.10649   0.11115
  Beta virt. eigenvalues --    0.11433   0.11689   0.12027   0.12285   0.12666

 Mulliken charges and spin densities:
               1          2
     1  C   -0.535895  -0.096484
     2  C   -0.183069  -0.128535
     3  C   -0.095427   0.039479
     4  C   -0.131924   0.094406
     5  C   -0.235212  -0.216570
     6  C   -0.157175  -0.084029
     7  O   -0.325548   0.001388
     8  N   -0.212006   0.010689
     9  C   -0.426850  -0.216694
    10  C   -0.315418   0.480634
    11  C    0.338494   0.152066
    12  C   -0.105062  -0.204755
    13  N   -0.063797   0.093554
    14  C   -0.165455   0.327219
    15  O   -0.076617   0.002444
    16  C   -0.266169  -0.001759
    17  C   -0.091450   0.155396
    18  O   -0.375674   0.059405
    19  N   -0.426016   0.007754
    20  N   -0.263427   0.003378
    21  H    0.178189   0.011749
    22  H    0.044375   0.072462
    23  H    0.102358   0.008655
    24  H    0.047229   0.075921
    25  H    0.081864   0.071003
    26  H    0.269532  -0.017827
    27  H    0.145935   0.005233
    28  H    0.093539   0.085396
    29  H    0.164402   0.001307
    30  H   -0.015689   0.137606
    31  H    0.313411  -0.002897
    32  H    0.135964   0.020447
    33  H    0.171296  -0.032908
    34  H    0.133240  -0.000759
    35  H    0.168400   0.001398
    36  H    0.153490  -0.001054
    37  H    0.252621  -0.014940
    38  H    0.267734   0.018109
    39  H    0.151298   0.068726
    40  H    0.254510   0.013389
 Sum of Mulliken charges =  -1.00000   1.00000

 Dipole moment (field-independent basis, Debye):
    X=              3.1750    Y=              0.7360    Z=              3.2060  Tot=              4.5717
 Quadrupole moment (field-independent basis, Debye-Ang):
   XX=           -192.1198   YY=           -137.3164   ZZ=           -139.9486
   XY=              5.9618   XZ=             -3.6122   YZ=             -0.7239

 Summary of Natural Population Analysis:

                                       Natural Population
                Natural  -----------------------------------------------
    Atom  No    Charge         Core      Valence    Rydberg      Total
 -----------------------------------------------------------------------
      C    1   -0.28816      0.99967     2.28411    0.00439     3.28816
      C    2   -0.19249      0.99964     2.18372    0.00913     3.19249
      C    3   -0.19623      0.99959     2.18565    0.01099     3.19623
      C    4    0.02429      0.99955     1.96417    0.01199     2.97571
      C    5   -0.29339      0.99962     2.28588    0.00789     3.29339
      C    6    0.35514      0.99961     1.62152    0.02373     2.64486
      O    7   -0.34019      0.99987     3.33413    0.00618     4.34019
      N    8   -0.31213      0.99964     2.80051    0.01198     3.81213
      C    9   -0.00811      0.99943     1.99576    0.01292     3.00811
      C   10   -0.01244      0.99950     2.00521    0.00773     3.01244
      C   11   -0.06286      0.99942     2.05173    0.01171     3.06286
      C   12    0.28039      0.99945     1.70321    0.01696     2.71961
      N   13   -0.24580      0.99966     2.73650    0.00965     3.74580
      C   14    0.10048      0.99953     1.88704    0.01295     2.89952
      O   15   -0.26814      0.99985     3.25954    0.00875     4.26814
      C   16   -0.10128      0.99960     2.09344    0.00824     3.10128
      C   17    0.34981      0.99968     1.62680    0.02372     2.65019
      O   18   -0.30293      0.99987     3.29688    0.00617     4.30293
      N   19   -0.41015      0.99971     2.90309    0.00735     3.91015
      N   20   -0.43350      0.99976     2.92273    0.01101     3.93350
      H   21    0.10987      0.00000     0.38897    0.00116     0.39013
      H   22    0.09113      0.00000     0.40805    0.00083     0.40887
      H   23    0.09174      0.00000     0.40729    0.00097     0.40826
      H   24    0.09086      0.00000     0.40794    0.00120     0.40914
      H   25    0.09522      0.00000     0.40377    0.00101     0.40478
      H   26    0.11185      0.00000     0.38588    0.00226     0.38815
      H   27    0.09994      0.00000     0.39833    0.00173     0.40006
      H   28    0.11135      0.00000     0.38738    0.00127     0.38865
      H   29    0.09965      0.00000     0.39941    0.00095     0.40035
      H   30    0.09551      0.00000     0.40324    0.00125     0.40449
      H   31    0.19250      0.00000     0.30573    0.00177     0.30750
      H   32    0.09581      0.00000     0.40219    0.00200     0.40419
      H   33    0.07981      0.00000     0.41908    0.00111     0.42019
      H   34    0.08332      0.00000     0.41588    0.00079     0.41668
      H   35    0.08820      0.00000     0.41060    0.00120     0.41180
      H   36    0.08675      0.00000     0.41199    0.00126     0.41325
      H   37    0.18978      0.00000     0.30859    0.00163     0.31022
      H   38    0.18413      0.00000     0.31241    0.00345     0.31587
      H   39    0.16981      0.00000     0.32891    0.00128     0.33019
      H   40    0.19046      0.00000     0.30761    0.00193     0.30954
 =======================================================================
   * Total *    0.00000     19.99265    54.75483    0.25252    75.00000

 Normal termination of Gaussian 16 at Sat Dec 12 17:53:18 2020.
