 Gaussian 16, Revision A.03,

 -----------------------------------------------------------
 # opt freq B3LYP/6-31G(d) empiricaldispersion=gd3bj scf=xqc
 -----------------------------------------------------------

 -------------------------------
 CID_123710886_JID_2424_neutraal
 -------------------------------
 Symbolic Z-matrix:
 Charge =  0 Multiplicity = 1

 SCF Done:  E(RB3LYP) =  -543.580390298     A.U. after   14 cycles
 SCF Done:  E(RB3LYP) =  -543.583379791     A.U. after   13 cycles
 SCF Done:  E(RB3LYP) =  -543.582736342     A.U. after   12 cycles
 SCF Done:  E(RB3LYP) =  -543.583443933     A.U. after   13 cycles
 SCF Done:  E(RB3LYP) =  -543.584041252     A.U. after   11 cycles
 SCF Done:  E(RB3LYP) =  -543.584048532     A.U. after   11 cycles
 SCF Done:  E(RB3LYP) =  -543.584215133     A.U. after   11 cycles
 SCF Done:  E(RB3LYP) =  -543.584242183     A.U. after   11 cycles
 SCF Done:  E(RB3LYP) =  -543.584288629     A.U. after   11 cycles
 SCF Done:  E(RB3LYP) =  -543.584298812     A.U. after    9 cycles
 SCF Done:  E(RB3LYP) =  -543.584302433     A.U. after    9 cycles
 SCF Done:  E(RB3LYP) =  -543.584304090     A.U. after    7 cycles
 SCF Done:  E(RB3LYP) =  -543.584304430     A.U. after    8 cycles
 SCF Done:  E(RB3LYP) =  -543.584304474     A.U. after    7 cycles
 Optimization completed.
    -- Stationary point found.
 Normal termination of Gaussian 16 at Wed Dec  9 17:24:53 2020.

 --------------------------------------------------------------------
 #N Geom=AllCheck Guess=TCheck SCRF=Check GenChk RB3LYP/6-31G(d) Freq
 --------------------------------------------------------------------

 Structure from the checkpoint file:  "JID_2424.chk"
 -------------------------------
 CID_123710886_JID_2424_neutraal
 -------------------------------
 Charge =  0 Multiplicity = 1

 SCF Done:  E(RB3LYP) =  -543.584304474     A.U. after    1 cycles

  Exact polarizability: 114.201  -1.738 108.141  -2.482   0.190 106.035
 Approx polarizability: 146.146  -2.045 148.807  -2.394   2.714 160.402

                      1                      2                      3
                      A                      A                      A
 Frequencies --     32.6852                43.9420                67.5524
 Red. masses --      4.8764                 3.3965                 2.4999
 Frc consts  --      0.0031                 0.0039                 0.0067
 IR Inten    --      0.6898                 2.3033                 1.2700

                      4                      5                      6
                      A                      A                      A
 Frequencies --     88.6126               107.5814               139.9730
 Red. masses --      4.1454                 2.7714                 2.4618
 Frc consts  --      0.0192                 0.0189                 0.0284
 IR Inten    --      4.2993                 0.7502                 0.2150

                      7                      8                      9
                      A                      A                      A
 Frequencies --    152.8380               200.8892               211.0520
 Red. masses --      2.4062                 2.4039                 1.3943
 Frc consts  --      0.0331                 0.0572                 0.0366
 IR Inten    --      3.5048                 2.0392                 0.2554

                     10                     11                     12
                      A                      A                      A
 Frequencies --    246.7258               254.2791               284.7971
 Red. masses --      1.1835                 2.3954                 2.3139
 Frc consts  --      0.0424                 0.0913                 0.1106
 IR Inten    --      0.4127                 1.2356                 4.9374

                     13                     14                     15
                      A                      A                      A
 Frequencies --    300.3921               318.5292               343.5140
 Red. masses --      2.1874                 1.2668                 2.3469
 Frc consts  --      0.1163                 0.0757                 0.1632
 IR Inten    --      3.7962                 1.3223                 1.4652

                     16                     17                     18
                      A                      A                      A
 Frequencies --    353.7750               380.0807               420.4733
 Red. masses --      1.9684                 2.0560                 2.7565
 Frc consts  --      0.1451                 0.1750                 0.2871
 IR Inten    --      2.2599                 2.6252                 4.3846

                     19                     20                     21
                      A                      A                      A
 Frequencies --    445.1445               492.6231               570.5358
 Red. masses --      2.2732                 2.8772                 2.7899
 Frc consts  --      0.2654                 0.4114                 0.5351
 IR Inten    --      3.2901                 0.9372                 3.2813

                     22                     23                     24
                      A                      A                      A
 Frequencies --    658.8546               724.4765               737.2951
 Red. masses --      1.9355                 1.8309                 1.6637
 Frc consts  --      0.4950                 0.5662                 0.5329
 IR Inten    --      2.6679                 4.2293                 1.6244

                     25                     26                     27
                      A                      A                      A
 Frequencies --    796.9647               848.9064               860.7194
 Red. masses --      1.9233                 1.8652                 2.5042
 Frc consts  --      0.7197                 0.7920                 1.0930
 IR Inten    --      5.5803                 4.4935                11.6679

                     28                     29                     30
                      A                      A                      A
 Frequencies --    888.1848               916.5738               936.1215
 Red. masses --      2.4653                 1.8884                 1.4928
 Frc consts  --      1.1459                 0.9347                 0.7707
 IR Inten    --     22.0656                 2.9075                 0.2241

                     31                     32                     33
                      A                      A                      A
 Frequencies --    938.9388               992.4065              1014.3905
 Red. masses --      1.6335                 1.3558                 1.7980
 Frc consts  --      0.8485                 0.7867                 1.0901
 IR Inten    --      3.0580                 3.7129                23.6540

                     34                     35                     36
                      A                      A                      A
 Frequencies --   1034.1134              1044.7865              1075.3701
 Red. masses --      1.4149                 2.1403                 2.4395
 Frc consts  --      0.8915                 1.3765                 1.6621
 IR Inten    --     18.9698                 2.2323                 3.7199

                     37                     38                     39
                      A                      A                      A
 Frequencies --   1095.4315              1132.7837              1146.5293
 Red. masses --      2.4892                 1.7698                 2.5067
 Frc consts  --      1.7599                 1.3380                 1.9415
 IR Inten    --     43.9390                 1.0131                 3.5327

                     40                     41                     42
                      A                      A                      A
 Frequencies --   1157.1663              1172.2674              1176.6397
 Red. masses --      2.1455                 2.0658                 2.5948
 Frc consts  --      1.6927                 1.6726                 2.1166
 IR Inten    --      6.5011                11.6345               102.2474

                     43                     44                     45
                      A                      A                      A
 Frequencies --   1200.5790              1246.1801              1261.9836
 Red. masses --      2.2377                 1.2852                 1.3963
 Frc consts  --      1.9003                 1.1760                 1.3102
 IR Inten    --     45.1089                 6.1616                14.3450

                     46                     47                     48
                      A                      A                      A
 Frequencies --   1300.7083              1344.4842              1352.1883
 Red. masses --      1.1910                 1.4115                 1.2203
 Frc consts  --      1.1872                 1.5033                 1.3146
 IR Inten    --      0.2212                 1.4266                 2.6679

                     49                     50                     51
                      A                      A                      A
 Frequencies --   1359.8678              1391.3201              1392.3100
 Red. masses --      1.1328                 1.3792                 1.5209
 Frc consts  --      1.2342                 1.5730                 1.7370
 IR Inten    --     14.2511                 1.7007                 9.5768

                     52                     53                     54
                      A                      A                      A
 Frequencies --   1400.0729              1412.1120              1418.6195
 Red. masses --      1.2861                 1.3086                 1.3495
 Frc consts  --      1.4853                 1.5374                 1.6001
 IR Inten    --      1.6841                 5.8609                 2.5211

                     55                     56                     57
                      A                      A                      A
 Frequencies --   1429.4499              1433.2866              1437.0166
 Red. masses --      1.2790                 1.2617                 1.2402
 Frc consts  --      1.5398                 1.5271                 1.5090
 IR Inten    --     10.3781                 1.4645                11.2263

                     58                     59                     60
                      A                      A                      A
 Frequencies --   1438.7241              1447.4169              1477.1529
 Red. masses --      1.2044                 1.2296                 1.0996
 Frc consts  --      1.4688                 1.5178                 1.4136
 IR Inten    --     11.1035                11.7079                15.5554

                     61                     62                     63
                      A                      A                      A
 Frequencies --   1509.3781              1516.0438              1520.3296
 Red. masses --      1.0741                 1.0770                 1.0691
 Frc consts  --      1.4417                 1.4585                 1.4559
 IR Inten    --      5.4397                 3.6005                 2.3863

                     64                     65                     66
                      A                      A                      A
 Frequencies --   1526.5601              1527.2681              1530.5027
 Red. masses --      1.0531                 1.0460                 1.0546
 Frc consts  --      1.4459                 1.4376                 1.4555
 IR Inten    --      1.7531                 8.5668                 0.5073

                     67                     68                     69
                      A                      A                      A
 Frequencies --   1537.8093              1540.1999              1544.3824
 Red. masses --      1.0486                 1.0525                 1.0627
 Frc consts  --      1.4611                 1.4711                 1.4933
 IR Inten    --      9.0268                 1.5045                 2.6530

                     70                     71                     72
                      A                      A                      A
 Frequencies --   1830.0450              2895.3178              3014.5026
 Red. masses --      9.4615                 1.0836                 1.0824
 Frc consts  --     18.6695                 5.3519                 5.7951
 IR Inten    --    109.0458               153.0791                35.6546

                     73                     74                     75
                      A                      A                      A
 Frequencies --   3020.3527              3020.8974              3038.2831
 Red. masses --      1.0693                 1.0691                 1.0682
 Frc consts  --      5.7472                 5.7485                 5.8097
 IR Inten    --     29.6949                39.3970                21.5319

                     76                     77                     78
                      A                      A                      A
 Frequencies --   3041.4579              3046.8917              3049.4266
 Red. masses --      1.0464                 1.0625                 1.0410
 Frc consts  --      5.7030                 5.8114                 5.7033
 IR Inten    --     20.7602                37.8955                14.0032

                     79                     80                     81
                      A                      A                      A
 Frequencies --   3062.6799              3065.5366              3088.8689
 Red. masses --      1.0639                 1.0625                 1.0945
 Frc consts  --      5.8797                 5.8829                 6.1525
 IR Inten    --      8.2455                15.9843                19.1190

                     82                     83                     84
                      A                      A                      A
 Frequencies --   3090.7613              3094.5759              3101.0730
 Red. masses --      1.0958                 1.0951                 1.0868
 Frc consts  --      6.1673                 6.1791                 6.1576
 IR Inten    --     51.2546                30.1204                11.6064

                     85                     86                     87
                      A                      A                      A
 Frequencies --   3112.0635              3117.6868              3128.6431
 Red. masses --      1.1001                 1.0939                 1.1014
 Frc consts  --      6.2772                 6.2644                 6.3520
 IR Inten    --     29.3861                66.6329                18.3057

                     88                     89                     90
                      A                      A                      A
 Frequencies --   3133.5345              3141.0584              3150.4078
 Red. masses --      1.0990                 1.0994                 1.1006
 Frc consts  --      6.3578                 6.3908                 6.4357
 IR Inten    --     70.3751                11.0209                20.2773

 - Thermochemistry -
 -------------------
 Temperature   298.150 Kelvin.  Pressure   1.00000 Atm.
 Atom     1 has atomic number  6 and mass  12.00000

 Molecular mass:   172.14633 amu.
 Principal axes and moments of inertia in atomic units:
                           1         2         3
     Eigenvalues --  1611.958592946.837253357.17975
           X            0.99889  -0.04635  -0.00798
           Y            0.04608   0.99845  -0.03112
           Z            0.00941   0.03072   0.99948
 This molecule is an asymmetric top.
 Rotational symmetry number  1.
 Warning -- assumption of classical behavior for rotation
           may cause significant error
 Rotational temperatures (Kelvin)      0.05373     0.02939     0.02580
 Rotational constants (GHZ):           1.11960     0.61243     0.53758
 Zero-point vibrational energy     762888.1 (Joules/Mol)
                                  182.33463 (Kcal/Mol)
 Warning -- explicit consideration of  21 degrees of freedom as
           vibrations may cause significant error
 Vibrational temperatures:     47.03    63.22    97.19   127.49   154.79
          (Kelvin)            201.39   219.90   289.03   303.66   354.98
                              365.85   409.76   432.20   458.29   494.24
                              509.00   546.85   604.97   640.46   708.77
                              820.87   947.94  1042.36  1060.80  1146.65
                             1221.39  1238.38  1277.90  1318.75  1346.87
                             1350.92  1427.85  1459.48  1487.86  1503.21
                             1547.22  1576.08  1629.82  1649.60  1664.90
                             1686.63  1692.92  1727.37  1792.98  1815.71
                             1871.43  1934.41  1945.50  1956.55  2001.80
                             2003.22  2014.39  2031.71  2041.08  2056.66
                             2062.18  2067.55  2070.00  2082.51  2125.29
                             2171.66  2181.25  2187.42  2196.38  2197.40
                             2202.05  2212.56  2216.00  2222.02  2633.03
                             4165.72  4337.20  4345.61  4346.40  4371.41
                             4375.98  4383.80  4387.44  4406.51  4410.62
                             4444.19  4446.92  4452.40  4461.75  4477.57
                             4485.66  4501.42  4508.46  4519.28  4532.73

 Zero-point correction=                           0.290569 (Hartree/Particle)
 Thermal correction to Energy=                    0.305271
 Thermal correction to Enthalpy=                  0.306216
 Thermal correction to Gibbs Free Energy=         0.248648
 Sum of electronic and zero-point Energies=           -543.293736
 Sum of electronic and thermal Energies=              -543.279033
 Sum of electronic and thermal Enthalpies=            -543.278089
 Sum of electronic and thermal Free Energies=         -543.335656

                     E (Thermal)             CV                S
                      KCal/Mol        Cal/Mol-Kelvin    Cal/Mol-Kelvin
 Total                  191.561             53.725            121.161
 Electronic               0.000              0.000              0.000
 Translational            0.889              2.981             41.337
 Rotational               0.889              2.981             31.145
 Vibrational            189.783             47.764             48.679
 Vibration     1          0.594              1.983              5.659
 Vibration     2          0.595              1.980              5.073
 Vibration     3          0.598              1.970              4.223
 Vibration     4          0.601              1.957              3.690
 Vibration     5          0.606              1.943              3.312
 Vibration     6          0.615              1.913              2.804
 Vibration     7          0.619              1.900              2.637
 Vibration     8          0.638              1.839              2.125
 Vibration     9          0.643              1.824              2.035
 Vibration    10          0.661              1.768              1.754
 Vibration    11          0.665              1.756              1.701
 Vibration    12          0.683              1.702              1.505
 Vibration    13          0.693              1.673              1.415
 Vibration    14          0.705              1.638              1.318
 Vibration    15          0.722              1.588              1.196
 Vibration    16          0.730              1.568              1.149
 Vibration    17          0.750              1.513              1.039
 Vibration    18          0.783              1.426              0.890
 Vibration    19          0.805              1.372              0.811
 Vibration    20          0.848              1.266              0.677
 Vibration    21          0.927              1.095              0.503

                           ! Non-Optimized Parameters !
 Normal termination of Gaussian 16 at Wed Dec  9 17:34:31 2020.

 ----------------------------------------------------------------------
 # B3LYP/6-311++G(d,p) empiricaldispersion=gd3bj scf=xqc pop=npa geom=c
 heck
 ----------------------------------------------------------------------

 ---------------------------------------
 CID_123710886_JID_2424_Energie_neutraal
 ---------------------------------------
 Structure from the checkpoint file:  "JID_2424.chk"
 Charge =  0 Multiplicity = 1

 SCF Done:  E(RB3LYP) =  -543.743991580     A.U. after   13 cycles
 Normal termination of Gaussian 16 at Wed Dec  9 17:38:38 2020.

 ----------------------------------------------------------------------
 # B3LYP/6-311++G(d,p) empiricaldispersion=gd3bj scf=xqc pop=npa geom=c
 heck
 ----------------------------------------------------------------------

 -------------------------------------
 CID_123710886_JID_2424_Energie_kation
 -------------------------------------
 Structure from the checkpoint file:  "JID_2424.chk"
 Charge =  1 Multiplicity = 2

 SCF Done:  E(UB3LYP) =  -543.423261893     A.U. after   25 cycles
 Normal termination of Gaussian 16 at Wed Dec  9 17:49:46 2020.
 Gaussian 16:  ES64L-G16RevA.03 25-Dec-2016

 ----------------------------------------------------------------------
 # B3LYP/6-311++G(d,p) empiricaldispersion=gd3bj scf=xqc pop=npa geom=c
 heck
 ----------------------------------------------------------------------

 ------------------------------------
 CID_123710886_JID_2424_Energie_anion
 ------------------------------------
 Structure from the checkpoint file:  "JID_2424.chk"
 Charge = -1 Multiplicity = 2

                         Standard orientation:
 ---------------------------------------------------------------------
 Center     Atomic      Atomic             Coordinates (Angstroms)
 Number     Number       Type             X           Y           Z
 ---------------------------------------------------------------------
      1          6           0       -1.344103    2.338646   -0.281597
      2          6           0       -2.239697    1.463081    0.601642
      3          6           0       -2.756424    0.158340   -0.039919
      4          8           0       -2.040011   -1.033382    0.256501
      5          6           0       -0.780317   -1.317351   -0.363778
      6          6           0       -0.745369   -0.936163   -1.844994
      7          6           0        0.394869   -0.787469    0.490837
      8          6           0        0.286667   -1.326356    1.922112
      9          6           0        1.772357   -1.150995   -0.112876
     10          6           0        2.376972   -0.078632   -1.021777
     11          6           0        2.813063    1.166702   -0.284829
     12          8           0        2.741735    1.325228    0.914678
     13          1           0       -1.098690    3.279106    0.223765
     14          1           0       -1.851102    2.588659   -1.221898
     15          1           0       -0.398410    1.851502   -0.535143
     16          1           0       -1.734569    1.210304    1.540994
     17          1           0       -3.118629    2.059953    0.880347
     18          1           0       -3.755450   -0.053000    0.354795
     19          1           0       -2.867196    0.295201   -1.125756
     20          1           0       -0.727006   -2.414801   -0.314803
     21          1           0       -0.698728    0.145092   -2.005294
     22          1           0        0.124383   -1.387597   -2.330932
     23          1           0       -1.639650   -1.317511   -2.348923
     24          1           0        0.322614    0.302187    0.544039
     25          1           0        0.448824   -2.412443    1.941542
     26          1           0        1.044626   -0.857639    2.558012
     27          1           0       -0.702524   -1.129211    2.341545
     28          1           0        2.479237   -1.323906    0.705414
     29          1           0        1.702072   -2.099505   -0.661636
     30          1           0        3.266271   -0.456438   -1.551132
     31          1           0        1.690017    0.237184   -1.819043
     32          1           0        3.232003    1.969273   -0.934245
 ---------------------------------------------------------------------

 SCF Done:  E(UB3LYP) =  -543.730810076     A.U. after   33 cycles
 SCF Done:  E(UB3LYP) =  -543.730810076     a.u. after    1 cycles

 The electronic state is 2-A.
 Alpha  occ. eigenvalues --  -19.01561 -19.00352 -10.13732 -10.11774 -10.11344
 Alpha  occ. eigenvalues --  -10.06872 -10.06767 -10.06591 -10.06367 -10.05831
 Alpha  occ. eigenvalues --  -10.05764 -10.05242  -0.93435  -0.92576  -0.71559
 Alpha  occ. eigenvalues --   -0.68131  -0.65523  -0.63101  -0.58473  -0.55688
 Alpha  occ. eigenvalues --   -0.52576  -0.49081  -0.45612  -0.44356  -0.40255
 Alpha  occ. eigenvalues --   -0.38046  -0.36518  -0.35199  -0.34737  -0.33646
 Alpha  occ. eigenvalues --   -0.33509  -0.32112  -0.31703  -0.30278  -0.29393
 Alpha  occ. eigenvalues --   -0.28633  -0.27778  -0.26896  -0.26294  -0.25421
 Alpha  occ. eigenvalues --   -0.24792  -0.23855  -0.23200  -0.22413  -0.21906
 Alpha  occ. eigenvalues --   -0.19183  -0.15235  -0.14436   0.04690
 Alpha virt. eigenvalues --    0.06613   0.07337   0.07864   0.08169   0.09098
 Alpha virt. eigenvalues --    0.09467   0.09958   0.10468   0.10895   0.11846
 Alpha virt. eigenvalues --    0.12110   0.12791   0.13132   0.13309   0.13770

  Beta  occ. eigenvalues --  -19.01561 -19.00228 -10.13580 -10.11768 -10.11329
  Beta  occ. eigenvalues --  -10.06862 -10.06751 -10.06589 -10.06354 -10.05805
  Beta  occ. eigenvalues --  -10.05733 -10.05241  -0.93186  -0.92570  -0.71533
  Beta  occ. eigenvalues --   -0.68096  -0.65442  -0.63061  -0.58422  -0.55571
  Beta  occ. eigenvalues --   -0.52516  -0.49015  -0.45572  -0.44099  -0.40223
  Beta  occ. eigenvalues --   -0.37969  -0.36458  -0.35133  -0.34576  -0.33576
  Beta  occ. eigenvalues --   -0.33481  -0.32034  -0.31663  -0.30190  -0.29325
  Beta  occ. eigenvalues --   -0.28584  -0.27635  -0.26754  -0.26146  -0.25319
  Beta  occ. eigenvalues --   -0.24639  -0.23827  -0.23134  -0.22380  -0.21841
  Beta  occ. eigenvalues --   -0.19164  -0.15221  -0.14312
  Beta virt. eigenvalues --    0.07000   0.07822   0.08162   0.08535   0.08734
  Beta virt. eigenvalues --    0.09614   0.09988   0.10347   0.10722   0.11301
  Beta virt. eigenvalues --    0.12171   0.12623   0.13064   0.13357   0.13559

 Mulliken charges and spin densities:
               1          2
     1  C    0.715841  -1.241906
     2  C   -1.022292   0.934958
     3  C    0.615218  -0.950860
     4  O   -0.090514  -0.001809
     5  C   -2.014894   1.538440
     6  C    1.223924  -1.818743
     7  C    1.054661  -0.313801
     8  C   -0.378821  -0.144648
     9  C    0.182112  -0.771961
    10  C   -0.008123  -0.085015
    11  C    0.324144  -0.477890
    12  O   -0.261628   0.039816
    13  H   -0.050890   0.181756
    14  H   -0.370154   0.519421
    15  H    0.187048  -0.025453
    16  H    0.161334   0.004810
    17  H   -0.197229   0.355072
    18  H   -0.042521   0.204483
    19  H   -0.093761   0.230675
    20  H    0.003445   0.182350
    21  H   -0.198039   0.384283
    22  H   -0.388728   0.549806
    23  H   -0.117859   0.272297
    24  H    0.344226  -0.334066
    25  H    0.105059   0.021160
    26  H    0.129685   0.016186
    27  H    0.117901   0.010228
    28  H    0.129580   0.046013
    29  H    0.129922   0.032062
    30  H   -0.951123   1.162622
    31  H    0.180538  -0.028930
    32  H   -0.418065   0.508645
 Sum of Mulliken charges =  -1.00000   1.00000

 Dipole moment (field-independent basis, Debye):
    X=             -2.3245    Y=             -2.0172    Z=              4.8230  Tot=              5.7213
 Quadrupole moment (field-independent basis, Debye-Ang):
   XX=           -137.8282   YY=           -118.0882   ZZ=           -119.3863
   XY=              1.7425   XZ=              3.0599   YZ=             -1.7255

 Summary of Natural Population Analysis:

                                       Natural Population
                Natural  -----------------------------------------------
    Atom  No    Charge         Core      Valence    Rydberg      Total
 -----------------------------------------------------------------------
      C    1   -0.28642      0.99966     2.28125    0.00551     3.28642
      C    2   -0.20946      0.99964     2.20203    0.00780     3.20946
      C    3   -0.00929      0.99956     1.99617    0.01356     3.00929
      O    4   -0.31023      0.99988     3.30091    0.00944     4.31023
      C    5    0.07537      0.99952     1.90987    0.01525     2.92463
      C    6   -0.30602      0.99964     2.30054    0.00584     3.30602
      C    7   -0.13082      0.99957     2.12057    0.01069     3.13082
      C    8   -0.28227      0.99965     2.27781    0.00481     3.28227
      C    9   -0.19182      0.99961     2.18067    0.01155     3.19182
      C   10   -0.24528      0.99961     2.23582    0.00985     3.24528
      C   11    0.24738      0.99973     1.73313    0.01975     2.75262
      O   12   -0.27512      0.99988     3.26874    0.00650     4.27512
      H   13    0.09917      0.00000     0.39998    0.00085     0.40083
      H   14    0.09738      0.00000     0.40114    0.00147     0.40262
      H   15    0.09738      0.00000     0.40105    0.00157     0.40262
      H   16    0.09932      0.00000     0.39959    0.00109     0.40068
      H   17    0.09537      0.00000     0.40352    0.00111     0.40463
      H   18    0.08767      0.00000     0.41120    0.00113     0.41233
      H   19    0.08075      0.00000     0.41785    0.00140     0.41925
      H   20    0.08391      0.00000     0.41448    0.00161     0.41609
      H   21    0.10118      0.00000     0.39693    0.00189     0.39882
      H   22    0.10786      0.00000     0.39091    0.00123     0.39214
      H   23    0.10320      0.00000     0.39580    0.00099     0.39680
      H   24    0.10170      0.00000     0.39533    0.00297     0.39830
      H   25    0.09170      0.00000     0.40751    0.00079     0.40830
      H   26    0.10107      0.00000     0.39820    0.00072     0.39893
      H   27    0.10377      0.00000     0.39527    0.00095     0.39623
      H   28    0.10280      0.00000     0.39605    0.00115     0.39720
      H   29    0.09949      0.00000     0.39941    0.00110     0.40051
      H   30    0.11584      0.00000     0.37927    0.00489     0.38416
      H   31    0.11050      0.00000     0.38738    0.00212     0.38950
      H   32    0.04389      0.00000     0.45338    0.00273     0.45611
 =======================================================================
   * Total *    0.00000     11.99594    35.85174    0.15233    48.00000

 Normal termination of Gaussian 16 at Wed Dec  9 18:04:22 2020.
