 Gaussian 16, Revision A.03,

 -----------------------------------------------------------
 # opt freq B3LYP/6-31G(d) empiricaldispersion=gd3bj scf=xqc
 -----------------------------------------------------------

 -------------------------------
 CID_128476990_JID_8446_neutraal
 -------------------------------
 Symbolic Z-matrix:
 Charge =  0 Multiplicity = 1

 SCF Done:  E(RB3LYP) =  -1903.21084387     A.U. after   15 cycles
 SCF Done:  E(RB3LYP) =  -1903.22110325     A.U. after   13 cycles
 SCF Done:  E(RB3LYP) =  -1903.22457354     A.U. after   13 cycles
 SCF Done:  E(RB3LYP) =  -1903.22551364     A.U. after   13 cycles
 SCF Done:  E(RB3LYP) =  -1903.22619630     A.U. after   12 cycles
 SCF Done:  E(RB3LYP) =  -1903.22627426     A.U. after   12 cycles
 SCF Done:  E(RB3LYP) =  -1903.22647799     A.U. after   11 cycles
 SCF Done:  E(RB3LYP) =  -1903.22653512     A.U. after   11 cycles
 SCF Done:  E(RB3LYP) =  -1903.22654326     A.U. after   10 cycles
 SCF Done:  E(RB3LYP) =  -1903.22654914     A.U. after    9 cycles
 SCF Done:  E(RB3LYP) =  -1903.22657914     A.U. after   11 cycles
 SCF Done:  E(RB3LYP) =  -1903.22658015     A.U. after    9 cycles
 SCF Done:  E(RB3LYP) =  -1903.22658007     A.U. after    8 cycles
 SCF Done:  E(RB3LYP) =  -1903.22657999     A.U. after    8 cycles
 SCF Done:  E(RB3LYP) =  -1903.22657995     A.U. after    7 cycles
 Optimization completed.
    -- Stationary point found.
 Normal termination of Gaussian 16 at Fri Dec 11 20:56:42 2020.

 --------------------------------------------------------------------
 #N Geom=AllCheck Guess=TCheck SCRF=Check GenChk RB3LYP/6-31G(d) Freq
 --------------------------------------------------------------------

 Structure from the checkpoint file:  "JID_8446.chk"
 -------------------------------
 CID_128476990_JID_8446_neutraal
 -------------------------------
 Charge =  0 Multiplicity = 1

 SCF Done:  E(RB3LYP) =  -1903.22657995     A.U. after    1 cycles

  Exact polarizability: 240.548  -5.355 177.084   1.371   0.801 127.922
 Approx polarizability: 336.658   2.593 298.907  -5.545  -6.351 197.363

                      1                      2                      3
                      A                      A                      A
 Frequencies --      7.0569                32.6192                39.3042
 Red. masses --      4.3991                 4.9545                 5.8393
 Frc consts  --      0.0001                 0.0031                 0.0053
 IR Inten    --      1.1077                 2.9764                 1.6381

                      4                      5                      6
                      A                      A                      A
 Frequencies --     50.1944                97.6863               107.5960
 Red. masses --      7.7964                 5.7780                 6.5977
 Frc consts  --      0.0116                 0.0325                 0.0450
 IR Inten    --      0.8639                 3.1100                 1.5236

                      7                      8                      9
                      A                      A                      A
 Frequencies --    124.9317               164.4593               177.7201
 Red. masses --      3.7389                 7.5041                 4.3419
 Frc consts  --      0.0344                 0.1196                 0.0808
 IR Inten    --     10.2254                 1.8258                 3.2179

                     10                     11                     12
                      A                      A                      A
 Frequencies --    183.9633               205.6862               236.0268
 Red. masses --      2.8195                 1.2554                 3.2622
 Frc consts  --      0.0562                 0.0313                 0.1071
 IR Inten    --      6.9261                 0.4671                 0.7023

                     13                     14                     15
                      A                      A                      A
 Frequencies --    241.2052               266.4673               287.6790
 Red. masses --      4.3071                 5.6098                 3.8200
 Frc consts  --      0.1476                 0.2347                 0.1863
 IR Inten    --      0.2265                 1.2818                10.0443

                     16                     17                     18
                      A                      A                      A
 Frequencies --    316.7693               334.3088               344.4160
 Red. masses --      6.6281                 4.3322                 5.4387
 Frc consts  --      0.3919                 0.2853                 0.3801
 IR Inten    --      1.6711                 3.2992                 3.9792

                     19                     20                     21
                      A                      A                      A
 Frequencies --    347.6839               357.5222               422.0742
 Red. masses --      3.2168                 5.2611                 4.0622
 Frc consts  --      0.2291                 0.3962                 0.4264
 IR Inten    --      1.3252                 1.2888                 1.0214

                     22                     23                     24
                      A                      A                      A
 Frequencies --    460.9702               474.0950               496.4947
 Red. masses --      5.4128                 6.9681                 1.9173
 Frc consts  --      0.6777                 0.9228                 0.2785
 IR Inten    --      2.8452                22.9009                 1.5387

                     25                     26                     27
                      A                      A                      A
 Frequencies --    507.6830               536.7747               611.2760
 Red. masses --      4.9614                 7.1763                 4.1447
 Frc consts  --      0.7534                 1.2183                 0.9125
 IR Inten    --      3.1863                74.9204                12.9079

                     28                     29                     30
                      A                      A                      A
 Frequencies --    620.5936               667.2515               688.7925
 Red. masses --      5.1573                 4.2716                 4.0503
 Frc consts  --      1.1703                 1.1205                 1.1322
 IR Inten    --     11.1348                 7.3937                30.8763

                     31                     32                     33
                      A                      A                      A
 Frequencies --    705.0329               721.8922               739.8500
 Red. masses --      1.5527                 2.8341                 2.5849
 Frc consts  --      0.4547                 0.8702                 0.8337
 IR Inten    --     25.3402                35.5480                 6.7300

                     34                     35                     36
                      A                      A                      A
 Frequencies --    746.6524               763.3833               794.9543
 Red. masses --      3.5214                 4.0922                 3.6568
 Frc consts  --      1.1567                 1.4051                 1.3616
 IR Inten    --     82.1564                27.4728                 6.3664

                     37                     38                     39
                      A                      A                      A
 Frequencies --    810.0664               838.4315               853.0592
 Red. masses --      2.9875                 3.2796                 1.4093
 Frc consts  --      1.1551                 1.3583                 0.6042
 IR Inten    --     18.2972                 7.7383                 6.9388

                     40                     41                     42
                      A                      A                      A
 Frequencies --    883.5222               891.0503               906.8659
 Red. masses --      2.1565                 1.2566                 3.3551
 Frc consts  --      0.9918                 0.5878                 1.6257
 IR Inten    --      1.0030                 0.2448                 8.7610

                     43                     44                     45
                      A                      A                      A
 Frequencies --    954.2787               959.2024               989.8901
 Red. masses --      2.3714                 2.2665                 1.4017
 Frc consts  --      1.2723                 1.2287                 0.8092
 IR Inten    --      5.0814                45.3029                26.8388

                     46                     47                     48
                      A                      A                      A
 Frequencies --    993.5529              1030.7980              1065.3568
 Red. masses --      1.4387                 3.9405                 1.9905
 Frc consts  --      0.8368                 2.4669                 1.3311
 IR Inten    --     44.8129                30.8851                 1.3133

                     49                     50                     51
                      A                      A                      A
 Frequencies --   1086.3943              1094.6928              1101.7220
 Red. masses --      1.9295                 4.7798                 2.7537
 Frc consts  --      1.3418                 3.3747                 1.9693
 IR Inten    --     13.2454               113.9279                10.8941

                     52                     53                     54
                      A                      A                      A
 Frequencies --   1119.2486              1124.4893              1184.9587
 Red. masses --      1.0605                 1.3011                 1.8038
 Frc consts  --      0.7827                 0.9694                 1.4922
 IR Inten    --      0.1915                23.4787                59.4214

                     55                     56                     57
                      A                      A                      A
 Frequencies --   1198.7728              1227.8472              1258.5960
 Red. masses --      2.0597                 1.3327                 1.4139
 Frc consts  --      1.7439                 1.1838                 1.3196
 IR Inten    --     45.7096                15.9420                 4.9314

                     58                     59                     60
                      A                      A                      A
 Frequencies --   1288.4922              1293.0305              1309.4356
 Red. masses --      1.5902                 7.7503                 1.2983
 Frc consts  --      1.5555                 7.6346                 1.3116
 IR Inten    --     33.4411               162.9888                10.9485

                     61                     62                     63
                      A                      A                      A
 Frequencies --   1316.3303              1341.8190              1360.2099
 Red. masses --      2.5762                 1.2992                 1.3259
 Frc consts  --      2.6300                 1.3782                 1.4453
 IR Inten    --    173.6784                12.2781                56.7657

                     64                     65                     66
                      A                      A                      A
 Frequencies --   1373.6318              1384.2239              1391.2330
 Red. masses --      1.2183                 1.6938                 1.8194
 Frc consts  --      1.3544                 1.9121                 2.0748
 IR Inten    --     10.8434                 0.9941                39.6402

                     67                     68                     69
                      A                      A                      A
 Frequencies --   1402.2816              1415.6703              1479.1808
 Red. masses --      1.3998                 1.6337                 1.0956
 Frc consts  --      1.6218                 1.9290                 1.4124
 IR Inten    --      7.7130                82.4609                 3.5317

                     70                     71                     72
                      A                      A                      A
 Frequencies --   1481.7883              1496.0761              1498.7909
 Red. masses --      1.0507                 1.1004                 2.1234
 Frc consts  --      1.3593                 1.4511                 2.8104
 IR Inten    --      2.4364                 3.8504                12.7703

                     73                     74                     75
                      A                      A                      A
 Frequencies --   1499.4054              1509.7136              1526.4095
 Red. masses --      1.3101                 1.0888                 1.0912
 Frc consts  --      1.7354                 1.4622                 1.4979
 IR Inten    --      3.7003                 5.1512                 4.8148

                     76                     77                     78
                      A                      A                      A
 Frequencies --   1551.5737              1605.6295              1765.3776
 Red. masses --      4.7219                 2.8874                 8.7450
 Frc consts  --      6.6976                 4.3859                16.0578
 IR Inten    --     33.0402               678.5589               106.4553

                     79                     80                     81
                      A                      A                      A
 Frequencies --   3040.4931              3048.7173              3055.7514
 Red. masses --      1.0616                 1.0628                 1.0736
 Frc consts  --      5.7823                 5.8204                 5.9066
 IR Inten    --     25.6476                18.3421                29.2900

                     82                     83                     84
                      A                      A                      A
 Frequencies --   3056.2357              3079.9164              3082.7613
 Red. masses --      1.0743                 1.0621                 1.0290
 Frc consts  --      5.9121                 5.9357                 5.7616
 IR Inten    --      2.8154                 7.7293                 0.4510

                     85                     86                     87
                      A                      A                      A
 Frequencies --   3082.8417              3096.0579              3121.7356
 Red. masses --      1.0969                 1.1023                 1.1022
 Frc consts  --      6.1419                 6.2257                 6.3284
 IR Inten    --     25.4596                39.2443                16.2998

                     88                     89                     90
                      A                      A                      A
 Frequencies --   3131.5817              3184.1311              3191.1600
 Red. masses --      1.1074                 1.1066                 1.1081
 Frc consts  --      6.3986                 6.6103                 6.6483
 IR Inten    --      7.3892                 0.5161                 0.9675

                     91                     92                     93
                      A                      A                      A
 Frequencies --   3241.7415              3272.8400              3463.7346
 Red. masses --      1.0902                 1.0983                 1.0793
 Frc consts  --      6.7503                 6.9313                 7.6291
 IR Inten    --      0.9137                 0.0776               190.1422

 - Thermochemistry -
 -------------------
 Temperature   298.150 Kelvin.  Pressure   1.00000 Atm.
 Atom     1 has atomic number  6 and mass  12.00000

 Molecular mass:   305.02141 amu.
 Principal axes and moments of inertia in atomic units:
                           1         2         3
     Eigenvalues --  3199.13374********************
           X            0.99988  -0.00037   0.01543
           Y            0.00015   0.99990   0.01444
           Z           -0.01543  -0.01443   0.99978
 This molecule is an asymmetric top.
 Rotational symmetry number  1.
 Warning -- assumption of classical behavior for rotation
           may cause significant error
 Rotational temperatures (Kelvin)      0.02707     0.00767     0.00662
 Rotational constants (GHZ):           0.56413     0.15980     0.13797
 Zero-point vibrational energy     675255.3 (Joules/Mol)
                                  161.38988 (Kcal/Mol)
 Warning -- explicit consideration of  28 degrees of freedom as
           vibrations may cause significant error
 Vibrational temperatures:     10.15    46.93    56.55    72.22   140.55
          (Kelvin)            154.81   179.75   236.62   255.70   264.68
                              295.94   339.59   347.04   383.39   413.91
                              455.76   481.00   495.54   500.24   514.39
                              607.27   663.23   682.12   714.35   730.44
                              772.30   879.49   892.90   960.03   991.02
                             1014.39  1038.64  1064.48  1074.27  1098.34
                             1143.76  1165.50  1206.32  1227.36  1271.19
                             1282.02  1304.78  1372.99  1380.08  1424.23
                             1429.50  1483.09  1532.81  1563.08  1575.02
                             1585.13  1610.35  1617.89  1704.89  1724.77
                             1766.60  1810.84  1853.85  1860.38  1883.99
                             1893.91  1930.58  1957.04  1976.35  1991.59
                             2001.67  2017.57  2036.83  2128.21  2131.96
                             2152.52  2156.43  2157.31  2172.14  2196.16
                             2232.37  2310.14  2539.98  4374.59  4386.42
                             4396.54  4397.24  4431.31  4435.41  4435.52
                             4454.54  4491.48  4505.65  4581.25  4591.37
                             4664.14  4708.89  4983.54

 Zero-point correction=                           0.257191 (Hartree/Particle)
 Thermal correction to Energy=                    0.275266
 Thermal correction to Enthalpy=                  0.276210
 Thermal correction to Gibbs Free Energy=         0.208005
 Sum of electronic and zero-point Energies=          -1902.969389
 Sum of electronic and thermal Energies=             -1902.951314
 Sum of electronic and thermal Enthalpies=           -1902.950370
 Sum of electronic and thermal Free Energies=        -1903.018575

                     E (Thermal)             CV                S
                      KCal/Mol        Cal/Mol-Kelvin    Cal/Mol-Kelvin
 Total                  172.732             67.883            143.550
 Electronic               0.000              0.000              0.000
 Translational            0.889              2.981             43.042
 Rotational               0.889              2.981             34.512
 Vibrational            170.955             61.921             65.996
 Vibration     1          0.593              1.987              8.704
 Vibration     2          0.594              1.983              5.663
 Vibration     3          0.594              1.981              5.294
 Vibration     4          0.595              1.978              4.810
 Vibration     5          0.603              1.951              3.500
 Vibration     6          0.606              1.943              3.312
 Vibration     7          0.610              1.928              3.023
 Vibration     8          0.623              1.886              2.498
 Vibration     9          0.628              1.870              2.352
 Vibration    10          0.631              1.862              2.288
 Vibration    11          0.640              1.832              2.082
 Vibration    12          0.655              1.786              1.833
 Vibration    13          0.658              1.777              1.794
 Vibration    14          0.672              1.735              1.619
 Vibration    15          0.685              1.697              1.488
 Vibration    16          0.704              1.642              1.327
 Vibration    17          0.716              1.607              1.239
 Vibration    18          0.723              1.587              1.192
 Vibration    19          0.725              1.580              1.177
 Vibration    20          0.733              1.560              1.133
 Vibration    21          0.784              1.422              0.885
 Vibration    22          0.819              1.337              0.763
 Vibration    23          0.831              1.308              0.726
 Vibration    24          0.852              1.258              0.667
 Vibration    25          0.863              1.233              0.639
 Vibration    26          0.892              1.169              0.572
 Vibration    27          0.970              1.008              0.431
 Vibration    28          0.981              0.988              0.416

 Optimization completed.
    -- Stationary point found.
 Normal termination of Gaussian 16 at Fri Dec 11 21:10:29 2020.

 ----------------------------------------------------------------------
 # B3LYP/6-311++G(d,p) empiricaldispersion=gd3bj scf=xqc pop=npa geom=c
 heck
 ----------------------------------------------------------------------

 ---------------------------------------
 CID_128476990_JID_8446_Energie_neutraal
 ---------------------------------------
 Structure from the checkpoint file:  "JID_8446.chk"
 Charge =  0 Multiplicity = 1

 SCF Done:  E(RB3LYP) =  -1903.50683725     A.U. after   16 cycles
 Normal termination of Gaussian 16 at Fri Dec 11 21:17:29 2020.

 ----------------------------------------------------------------------
 # B3LYP/6-311++G(d,p) empiricaldispersion=gd3bj scf=xqc pop=npa geom=c
 heck
 ----------------------------------------------------------------------

 -------------------------------------
 CID_128476990_JID_8446_Energie_kation
 -------------------------------------
 Structure from the checkpoint file:  "JID_8446.chk"
 Charge =  1 Multiplicity = 2

 SCF Done:  E(UB3LYP) =  -1903.21706318     A.U. after   27 cycles
 Normal termination of Gaussian 16 at Fri Dec 11 21:34:17 2020.
 Gaussian 16:  ES64L-G16RevA.03 25-Dec-2016

 ----------------------------------------------------------------------
 # B3LYP/6-311++G(d,p) empiricaldispersion=gd3bj scf=xqc pop=npa geom=c
 heck
 ----------------------------------------------------------------------

 ------------------------------------
 CID_128476990_JID_8446_Energie_anion
 ------------------------------------
 Structure from the checkpoint file:  "JID_8446.chk"
 Charge = -1 Multiplicity = 2

                         Standard orientation:
 ---------------------------------------------------------------------
 Center     Atomic      Atomic             Coordinates (Angstroms)
 Number     Number       Type             X           Y           Z
 ---------------------------------------------------------------------
      1          6           0       -3.318244   -2.002331   -1.567323
      2         16           0       -2.901597   -1.585896    0.138805
      3          8           0       -4.060356   -1.919902    0.974625
      4          8           0       -1.576371   -2.192445    0.415860
      5          6           0       -2.692759    0.165655    0.113304
      6          6           0       -1.465869    0.801192    0.013061
      7         16           0       -1.664985    2.534506   -0.064042
      8          6           0       -3.401869    2.367228    0.048443
      9          6           0       -3.801819    1.070224    0.140538
     10          7           0       -0.231213    0.183908   -0.002129
     11          6           0        0.971801    0.845613   -0.088627
     12          8           0        1.030253    2.063588   -0.212946
     13          6           0        2.202649   -0.040277    0.007463
     14          6           0        2.849138    0.165250    1.395742
     15          6           0        4.106403   -0.686126    1.607872
     16          6           0        5.204660   -0.388392    0.587045
     17         16           0        4.668891   -0.728545   -1.133681
     18          6           0        3.168440    0.316896   -1.133247
     19          1           0       -3.456769   -3.085646   -1.602861
     20          1           0       -2.495040   -1.697636   -2.216072
     21          1           0       -4.242255   -1.488955   -1.839026
     22          1           0       -4.018855    3.255406    0.050183
     23          1           0       -4.828495    0.741229    0.244301
     24          1           0       -0.266227   -0.823919    0.155959
     25          1           0        1.912291   -1.093304   -0.095750
     26          1           0        3.093215    1.229926    1.502737
     27          1           0        2.111885   -0.070660    2.172485
     28          1           0        4.497748   -0.495145    2.615887
     29          1           0        3.846852   -1.750737    1.558741
     30          1           0        5.527425    0.657232    0.659465
     31          1           0        6.081517   -1.020301    0.755690
     32          1           0        2.692951    0.160673   -2.106199
     33          1           0        3.441909    1.373921   -1.063878
 ---------------------------------------------------------------------

 SCF Done:  E(UB3LYP) =  -1903.51129546     A.U. after   33 cycles
 SCF Done:  E(UB3LYP) =  -1903.51129546     a.u. after    1 cycles

 The electronic state is 2-A.
 Alpha  occ. eigenvalues --  -88.93034 -88.74670 -88.73754 -18.99966 -18.99606
 Alpha  occ. eigenvalues --  -18.95736 -14.22953 -10.13165 -10.11523 -10.10057
 Alpha  occ. eigenvalues --  -10.09798 -10.09630 -10.08883 -10.08329 -10.07706
 Alpha  occ. eigenvalues --  -10.05959 -10.05907 -10.05838  -7.99367  -7.83308
 Alpha  occ. eigenvalues --   -7.82310  -5.95680  -5.95545  -5.95457  -5.79688
 Alpha  occ. eigenvalues --   -5.79351  -5.78680  -5.78635  -5.78248  -5.77890
 Alpha  occ. eigenvalues --   -0.99011  -0.91683  -0.88876  -0.81946  -0.75175
 Alpha  occ. eigenvalues --   -0.74223  -0.67584  -0.67083  -0.66403  -0.62067
 Alpha  occ. eigenvalues --   -0.60501  -0.55114  -0.53279  -0.52077  -0.49129
 Alpha  occ. eigenvalues --   -0.46816  -0.45142  -0.42971  -0.40988  -0.38996
 Alpha  occ. eigenvalues --   -0.38099  -0.37063  -0.36675  -0.35937  -0.33880
 Alpha  occ. eigenvalues --   -0.33643  -0.32810  -0.32677  -0.32045  -0.31775
 Alpha  occ. eigenvalues --   -0.30981  -0.29612  -0.29030  -0.27030  -0.26846
 Alpha  occ. eigenvalues --   -0.26105  -0.25027  -0.24658  -0.23289  -0.22902
 Alpha  occ. eigenvalues --   -0.21582  -0.21296  -0.20857  -0.19382  -0.18658
 Alpha  occ. eigenvalues --   -0.17744  -0.14365  -0.13461  -0.12723  -0.09530
 Alpha  occ. eigenvalues --    0.04577
 Alpha virt. eigenvalues --    0.06190   0.07114   0.08501   0.08670   0.08787
 Alpha virt. eigenvalues --    0.08912   0.10632   0.10892   0.11092   0.11488
 Alpha virt. eigenvalues --    0.11807   0.12360   0.12679   0.12935   0.12994

  Beta  occ. eigenvalues --  -88.93019 -88.74666 -88.73690 -18.99948 -18.99575
  Beta  occ. eigenvalues --  -18.95386 -14.23095 -10.12862 -10.11523 -10.10018
  Beta  occ. eigenvalues --  -10.09583 -10.09260 -10.08875 -10.08356 -10.07671
  Beta  occ. eigenvalues --  -10.05964 -10.05866 -10.05696  -7.99352  -7.83304
  Beta  occ. eigenvalues --   -7.82253  -5.95670  -5.95497  -5.95446  -5.79682
  Beta  occ. eigenvalues --   -5.79345  -5.78678  -5.78612  -5.78225  -5.77668
  Beta  occ. eigenvalues --   -0.98921  -0.91117  -0.88815  -0.81642  -0.75081
  Beta  occ. eigenvalues --   -0.74033  -0.67484  -0.66887  -0.66347  -0.61787
  Beta  occ. eigenvalues --   -0.60064  -0.54927  -0.53219  -0.51812  -0.48891
  Beta  occ. eigenvalues --   -0.46760  -0.44969  -0.42690  -0.40865  -0.38932
  Beta  occ. eigenvalues --   -0.37968  -0.36856  -0.36618  -0.35872  -0.33763
  Beta  occ. eigenvalues --   -0.33525  -0.32596  -0.32226  -0.31953  -0.31581
  Beta  occ. eigenvalues --   -0.30869  -0.29358  -0.28366  -0.26963  -0.26794
  Beta  occ. eigenvalues --   -0.25892  -0.24617  -0.24144  -0.22968  -0.22760
  Beta  occ. eigenvalues --   -0.21419  -0.21233  -0.20744  -0.19265  -0.17699
  Beta  occ. eigenvalues --   -0.17479  -0.14231  -0.12626  -0.12485  -0.08288
  Beta virt. eigenvalues --    0.06158   0.07317   0.08467   0.08569   0.08742
  Beta virt. eigenvalues --    0.08957   0.10070   0.10725   0.11048   0.11210
  Beta virt. eigenvalues --    0.11600   0.11921   0.12313   0.12807   0.12938

 Mulliken charges and spin densities:
               1          2
     1  C   -0.067702  -0.395525
     2  S   -0.338589   0.144213
     3  O   -0.182914   0.015156
     4  O   -0.262184  -0.010713
     5  C   -0.397996   0.151798
     6  C    0.084319   0.253767
     7  S   -0.293185   0.108471
     8  C   -0.495402   0.096740
     9  C    0.785993  -0.062764
    10  N    0.110338  -0.053163
    11  C   -1.033736   0.156175
    12  O   -0.285014   0.109639
    13  C    0.859153   0.007781
    14  C   -0.565129   0.029988
    15  C   -0.131377  -0.062235
    16  C   -0.493532  -0.002931
    17  S    0.031257   0.034600
    18  C   -0.628762  -0.042355
    19  H   -0.013376   0.211890
    20  H    0.062701   0.123337
    21  H    0.132152   0.065962
    22  H    0.194557   0.000077
    23  H    0.179444  -0.000709
    24  H    0.405997  -0.002337
    25  H    0.069520   0.001818
    26  H    0.167035   0.007794
    27  H    0.144508   0.001431
    28  H    0.097478   0.052089
    29  H    0.128790  -0.000221
    30  H    0.153857   0.001273
    31  H    0.198734   0.005619
    32  H    0.139699   0.060748
    33  H    0.243366  -0.007412
 Sum of Mulliken charges =  -1.00000   1.00000

 Dipole moment (field-independent basis, Debye):
    X=              4.4349    Y=             -0.1883    Z=             -0.0761  Tot=              4.4395
 Quadrupole moment (field-independent basis, Debye-Ang):
   XX=           -182.6306   YY=           -165.3924   ZZ=           -145.7196
   XY=             -9.7196   XZ=             14.9960   YZ=              2.3230

 Summary of Natural Population Analysis:

                                       Natural Population
                Natural  -----------------------------------------------
    Atom  No    Charge         Core      Valence    Rydberg      Total
 -----------------------------------------------------------------------
      C    1   -0.38857      0.99961     2.38060    0.00836     3.38857
      S    2    1.04917      4.99917     1.85549    0.09618     6.95083
      O    3   -0.47080      0.99991     3.46518    0.00571     4.47080
      O    4   -0.49096      0.99990     3.48541    0.00565     4.49096
      C    5   -0.20687      0.99929     2.18963    0.01795     3.20687
      C    6    0.10493      0.99942     1.87806    0.01760     2.89507
      S    7    0.24317      4.99946     2.73541    0.02197     7.75683
      C    8   -0.18653      0.99954     2.17550    0.01149     3.18653
      C    9   -0.13951      0.99949     2.12994    0.01007     3.13951
      N   10   -0.33322      0.99960     2.82392    0.00970     3.83322
      C   11    0.38195      0.99965     1.59501    0.02339     2.61805
      O   12   -0.29211      0.99988     3.28636    0.00587     4.29211
      C   13   -0.15341      0.99955     2.14153    0.01233     3.15341
      C   14   -0.18256      0.99961     2.17522    0.00773     3.18256
      C   15   -0.19635      0.99962     2.18743    0.00929     3.19635
      C   16   -0.24854      0.99960     2.24057    0.00837     3.24854
      S   17    0.07863      4.99964     2.90244    0.01929     7.92137
      C   18   -0.24176      0.99957     2.23155    0.01065     3.24176
      H   19    0.11262      0.00000     0.38553    0.00186     0.38738
      H   20    0.11241      0.00000     0.38636    0.00123     0.38759
      H   21    0.11134      0.00000     0.38754    0.00112     0.38866
      H   22    0.09899      0.00000     0.40007    0.00094     0.40101
      H   23    0.10680      0.00000     0.39205    0.00115     0.39320
      H   24    0.21840      0.00000     0.27981    0.00179     0.28160
      H   25    0.09994      0.00000     0.39760    0.00246     0.40006
      H   26    0.10076      0.00000     0.39801    0.00123     0.39924
      H   27    0.10301      0.00000     0.39591    0.00108     0.39699
      H   28    0.09548      0.00000     0.40255    0.00197     0.40452
      H   29    0.09816      0.00000     0.40076    0.00108     0.40184
      H   30    0.09629      0.00000     0.40222    0.00149     0.40371
      H   31    0.10237      0.00000     0.39657    0.00107     0.39763
      H   32    0.10892      0.00000     0.38952    0.00156     0.39108
      H   33    0.10786      0.00000     0.39005    0.00209     0.39214
 =======================================================================
   * Total *    0.00000     29.99252    49.68379    0.32369    80.00000

 Normal termination of Gaussian 16 at Fri Dec 11 21:55:19 2020.
