 Gaussian 16, Revision A.03,

 -----------------------------------------------------------
 # opt freq B3LYP/6-31G(d) empiricaldispersion=gd3bj scf=xqc
 -----------------------------------------------------------

 -------------------------------
 CID_129995010_JID_3296_neutraal
 -------------------------------
 Symbolic Z-matrix:
 Charge =  0 Multiplicity = 1

 SCF Done:  E(RB3LYP) =  -667.188576559     A.U. after   15 cycles
 SCF Done:  E(RB3LYP) =  -667.194277491     A.U. after   12 cycles
 SCF Done:  E(RB3LYP) =  -667.194705376     A.U. after   13 cycles
 SCF Done:  E(RB3LYP) =  -667.196084853     A.U. after   12 cycles
 SCF Done:  E(RB3LYP) =  -667.196276459     A.U. after   12 cycles
 SCF Done:  E(RB3LYP) =  -667.196311130     A.U. after   12 cycles
 SCF Done:  E(RB3LYP) =  -667.196464757     A.U. after   11 cycles
 SCF Done:  E(RB3LYP) =  -667.196539199     A.U. after   11 cycles
 SCF Done:  E(RB3LYP) =  -667.196595430     A.U. after   12 cycles
 SCF Done:  E(RB3LYP) =  -667.196625198     A.U. after   11 cycles
 SCF Done:  E(RB3LYP) =  -667.196685743     A.U. after   10 cycles
 SCF Done:  E(RB3LYP) =  -667.196686961     A.U. after   10 cycles
 SCF Done:  E(RB3LYP) =  -667.196687732     A.U. after    9 cycles
 SCF Done:  E(RB3LYP) =  -667.196689257     A.U. after   10 cycles
 SCF Done:  E(RB3LYP) =  -667.196689564     A.U. after    9 cycles
 SCF Done:  E(RB3LYP) =  -667.196689626     A.U. after    8 cycles
 Optimization completed.
    -- Stationary point found.
 Normal termination of Gaussian 16 at Wed Dec  9 22:51:25 2020.

 --------------------------------------------------------------------
 #N Geom=AllCheck Guess=TCheck SCRF=Check GenChk RB3LYP/6-31G(d) Freq
 --------------------------------------------------------------------

 Structure from the checkpoint file:  "JID_3296.chk"
 -------------------------------
 CID_129995010_JID_3296_neutraal
 -------------------------------
 Charge =  0 Multiplicity = 1

 SCF Done:  E(RB3LYP) =  -667.196689626     A.U. after    1 cycles

  Exact polarizability: 118.801   4.268  95.709   3.585  -0.554  70.576
 Approx polarizability: 154.522  17.042 157.540   7.173   1.333 104.062

                      1                      2                      3
                      A                      A                      A
 Frequencies --     16.6583                27.1168                70.1746
 Red. masses --      9.5475                 4.4989                 8.0438
 Frc consts  --      0.0016                 0.0019                 0.0233
 IR Inten    --      0.6868                 3.2556                 1.9316

                      4                      5                      6
                      A                      A                      A
 Frequencies --     98.0981               139.3113               188.7409
 Red. masses --      4.1656                 4.8937                 2.9940
 Frc consts  --      0.0236                 0.0560                 0.0628
 IR Inten    --      0.6597                 4.8163                 0.3117

                      7                      8                      9
                      A                      A                      A
 Frequencies --    207.6023               218.4506               234.0757
 Red. masses --      1.1764                 3.1449                 1.5896
 Frc consts  --      0.0299                 0.0884                 0.0513
 IR Inten    --      0.4545                 0.4743                 1.3257

                     10                     11                     12
                      A                      A                      A
 Frequencies --    241.4993               289.0097               299.1066
 Red. masses --      2.9121                 1.9146                 3.3954
 Frc consts  --      0.1001                 0.0942                 0.1790
 IR Inten    --      1.4936                 1.1084                 7.5732

                     13                     14                     15
                      A                      A                      A
 Frequencies --    330.6806               419.2317               461.6498
 Red. masses --      8.2951                 4.6638                 2.0926
 Frc consts  --      0.5344                 0.4829                 0.2628
 IR Inten    --      1.2241                15.4226                 4.6636

                     16                     17                     18
                      A                      A                      A
 Frequencies --    533.1180               562.5670               580.9717
 Red. masses --      2.9562                 5.5334                 1.1040
 Frc consts  --      0.4950                 1.0318                 0.2195
 IR Inten    --     39.7845                11.6724                88.5733

                     19                     20                     21
                      A                      A                      A
 Frequencies --    590.7565               643.9084               661.3620
 Red. masses --      3.5184                 1.8187                 4.6452
 Frc consts  --      0.7235                 0.4443                 1.1971
 IR Inten    --     32.6954                63.7972                21.1417

                     22                     23                     24
                      A                      A                      A
 Frequencies --    677.1421               728.3310               750.6489
 Red. masses --      3.8911                 2.9325                 6.6157
 Frc consts  --      1.0512                 0.9165                 2.1963
 IR Inten    --     16.5596                38.7686                 9.5968

                     25                     26                     27
                      A                      A                      A
 Frequencies --    778.2856               833.0887               891.8509
 Red. masses --      4.8279                 2.5111                 3.7333
 Frc consts  --      1.7230                 1.0268                 1.7496
 IR Inten    --      6.7210                 6.6381                15.8850

                     28                     29                     30
                      A                      A                      A
 Frequencies --    918.2982               971.6339               980.3527
 Red. masses --      2.6434                 2.3054                 1.4804
 Frc consts  --      1.3134                 1.2823                 0.8383
 IR Inten    --     13.1449                 1.2424                 2.5369

                     31                     32                     33
                      A                      A                      A
 Frequencies --   1025.3947              1053.5268              1098.6274
 Red. masses --      1.8310                 1.8276                 2.5241
 Frc consts  --      1.1343                 1.1951                 1.7950
 IR Inten    --      8.8130                 6.9113                49.7294

                     34                     35                     36
                      A                      A                      A
 Frequencies --   1123.5633              1170.0065              1189.4397
 Red. masses --      2.2004                 3.4192                 1.8831
 Frc consts  --      1.6366                 2.7577                 1.5697
 IR Inten    --     18.7619                29.8794               154.5762

                     37                     38                     39
                      A                      A                      A
 Frequencies --   1213.6044              1254.1532              1255.3951
 Red. masses --      2.3791                 1.3134                 2.0440
 Frc consts  --      2.0645                 1.2172                 1.8980
 IR Inten    --     44.7816                50.1732                15.8228

                     40                     41                     42
                      A                      A                      A
 Frequencies --   1272.8311              1329.6209              1358.6755
 Red. masses --      2.0331                 2.4459                 1.7942
 Frc consts  --      1.9407                 2.5477                 1.9514
 IR Inten    --      4.8036               130.4408                18.7814

                     43                     44                     45
                      A                      A                      A
 Frequencies --   1364.0350              1400.5660              1414.9801
 Red. masses --      2.2850                 1.5180                 1.1980
 Frc consts  --      2.5049                 1.7544                 1.4132
 IR Inten    --     42.6474                 5.8544                 3.0111

                     46                     47                     48
                      A                      A                      A
 Frequencies --   1438.7875              1453.5943              1485.0130
 Red. masses --      1.2915                 2.1263                 1.0865
 Frc consts  --      1.5752                 2.6470                 1.4118
 IR Inten    --      1.7729                92.4569                 8.1278

                     49                     50                     51
                      A                      A                      A
 Frequencies --   1511.2187              1516.5162              1529.5153
 Red. masses --      1.0497                 1.0442                 1.0618
 Frc consts  --      1.4125                 1.4150                 1.4636
 IR Inten    --      3.9196                 0.8885                17.3168

                     52                     53                     54
                      A                      A                      A
 Frequencies --   1538.4975              1821.7591              1862.5307
 Red. masses --      1.0543                11.2349                10.3832
 Frc consts  --      1.4704                21.9685                21.2221
 IR Inten    --      7.8525               550.1301               288.7393

                     55                     56                     57
                      A                      A                      A
 Frequencies --   1867.8459              3013.2498              3057.5394
 Red. masses --     11.2034                 1.0823                 1.0340
 Frc consts  --     23.0295                 5.7899                 5.6955
 IR Inten    --     55.7618                22.0469                21.8231

                     58                     59                     60
                      A                      A                      A
 Frequencies --   3062.7052              3063.6951              3128.4066
 Red. masses --      1.0380                 1.0648                 1.1019
 Frc consts  --      5.7368                 5.8884                 6.3541
 IR Inten    --      9.5435                 9.7806                17.4223

                     61                     62                     63
                      A                      A                      A
 Frequencies --   3132.9642              3147.1315              3150.3353
 Red. masses --      1.1014                 1.1050                 1.0955
 Frc consts  --      6.3694                 6.4481                 6.4061
 IR Inten    --     22.1918                 3.2748                 1.4354

                     64                     65                     66
                      A                      A                      A
 Frequencies --   3152.4544              3632.6623              3683.6129
 Red. masses --      1.1044                 1.0777                 1.0641
 Frc consts  --      6.4663                 8.3789                 8.5073
 IR Inten    --     12.5476                56.1694                62.1977

 - Thermochemistry -
 -------------------
 Temperature   298.150 Kelvin.  Pressure   1.00000 Atm.
 Atom     1 has atomic number  6 and mass  12.00000

 Molecular mass:   185.06881 amu.
 Principal axes and moments of inertia in atomic units:
                           1         2         3
     Eigenvalues --  1215.935443617.371084348.85530
           X            0.99988  -0.01528   0.00071
           Y            0.01529   0.99976  -0.01571
           Z           -0.00047   0.01572   0.99988
 This molecule is an asymmetric top.
 Rotational symmetry number  1.
 Warning -- assumption of classical behavior for rotation
           may cause significant error
 Rotational temperatures (Kelvin)      0.07123     0.02394     0.01992
 Rotational constants (GHZ):           1.48424     0.49891     0.41499
 Zero-point vibrational energy     503138.4 (Joules/Mol)
                                  120.25297 (Kcal/Mol)
 Warning -- explicit consideration of  19 degrees of freedom as
           vibrations may cause significant error
 Vibrational temperatures:     23.97    39.01   100.97   141.14   200.44
          (Kelvin)            271.56   298.69   314.30   336.78   347.46
                              415.82   430.35   475.78   603.18   664.21
                              767.04   809.41   835.89   849.97   926.44
                              951.55   974.26  1047.91  1080.02  1119.78
                             1198.63  1283.17  1321.23  1397.96  1410.51
                             1475.31  1515.79  1580.68  1616.56  1683.38
                             1711.34  1746.11  1804.45  1806.23  1831.32
                             1913.03  1954.83  1962.54  2015.10  2035.84
                             2070.09  2091.40  2136.60  2174.31  2181.93
                             2200.63  2213.55  2621.10  2679.77  2687.41
                             4335.39  4399.12  4406.55  4407.97  4501.08
                             4507.64  4528.02  4532.63  4535.68  5226.59
                             5299.90

 Zero-point correction=                           0.191635 (Hartree/Particle)
 Thermal correction to Energy=                    0.204831
 Thermal correction to Enthalpy=                  0.205775
 Thermal correction to Gibbs Free Energy=         0.150032
 Sum of electronic and zero-point Energies=           -667.005054
 Sum of electronic and thermal Energies=              -666.991859
 Sum of electronic and thermal Enthalpies=            -666.990915
 Sum of electronic and thermal Free Energies=         -667.046657

                     E (Thermal)             CV                S
                      KCal/Mol        Cal/Mol-Kelvin    Cal/Mol-Kelvin
 Total                  128.533             47.833            117.320
 Electronic               0.000              0.000              0.000
 Translational            0.889              2.981             41.553
 Rotational               0.889              2.981             31.326
 Vibrational            126.756             41.871             44.441
 Vibration     1          0.593              1.986              6.997
 Vibration     2          0.593              1.984              6.030
 Vibration     3          0.598              1.968              4.148
 Vibration     4          0.604              1.951              3.492
 Vibration     5          0.615              1.914              2.813
 Vibration     6          0.633              1.855              2.240
 Vibration     7          0.641              1.829              2.065
 Vibration     8          0.646              1.813              1.972
 Vibration     9          0.654              1.789              1.847
 Vibration    10          0.658              1.777              1.792
 Vibration    11          0.686              1.694              1.480
 Vibration    12          0.692              1.675              1.422
 Vibration    13          0.713              1.614              1.257
 Vibration    14          0.782              1.428              0.895
 Vibration    15          0.819              1.335              0.761
 Vibration    16          0.888              1.177              0.580
 Vibration    17          0.918              1.112              0.519
 Vibration    18          0.938              1.072              0.484
 Vibration    19          0.948              1.051              0.466

                           ! Non-Optimized Parameters !
 Normal termination of Gaussian 16 at Wed Dec  9 22:56:59 2020.

 ----------------------------------------------------------------------
 # B3LYP/6-311++G(d,p) empiricaldispersion=gd3bj scf=xqc pop=npa geom=c
 heck
 ----------------------------------------------------------------------

 ---------------------------------------
 CID_129995010_JID_3296_Energie_neutraal
 ---------------------------------------
 Structure from the checkpoint file:  "JID_3296.chk"
 Charge =  0 Multiplicity = 1

 SCF Done:  E(RB3LYP) =  -667.406072339     A.U. after   15 cycles
 Normal termination of Gaussian 16 at Wed Dec  9 22:58:53 2020.

 ----------------------------------------------------------------------
 # B3LYP/6-311++G(d,p) empiricaldispersion=gd3bj scf=xqc pop=npa geom=c
 heck
 ----------------------------------------------------------------------

 -------------------------------------
 CID_129995010_JID_3296_Energie_kation
 -------------------------------------
 Structure from the checkpoint file:  "JID_3296.chk"
 Charge =  1 Multiplicity = 2

 SCF Done:  E(UB3LYP) =  -667.068852789     A.U. after   27 cycles
 Normal termination of Gaussian 16 at Wed Dec  9 23:03:32 2020.
 Gaussian 16:  ES64L-G16RevA.03 25-Dec-2016

 ----------------------------------------------------------------------
 # B3LYP/6-311++G(d,p) empiricaldispersion=gd3bj scf=xqc pop=npa geom=c
 heck
 ----------------------------------------------------------------------

 ------------------------------------
 CID_129995010_JID_3296_Energie_anion
 ------------------------------------
 Structure from the checkpoint file:  "JID_3296.chk"
 Charge = -1 Multiplicity = 2

                         Standard orientation:
 ---------------------------------------------------------------------
 Center     Atomic      Atomic             Coordinates (Angstroms)
 Number     Number       Type             X           Y           Z
 ---------------------------------------------------------------------
      1          6           0        2.651725   -0.500255    1.334399
      2          6           0        1.929315   -0.171140    0.021394
      3          6           0        0.739886   -1.094151   -0.209599
      4          8           0        0.743218   -2.303378   -0.177176
      5          6           0       -0.521418   -0.246282   -0.472174
      6          7           0       -0.041044    1.096119   -0.216124
      7          6           0        1.292455    1.223822    0.071106
      8          8           0        1.872959    2.266949    0.313888
      9          6           0       -1.682111   -0.704955    0.423321
     10          6           0       -3.015509   -0.062242    0.110895
     11          8           0       -4.087443   -0.616869    0.134324
     12          8           0       -2.888432    1.261870   -0.189401
     13          6           0        2.897328   -0.252318   -1.175923
     14          1           0        3.068122   -1.510538    1.288111
     15          1           0        1.969963   -0.447262    2.189850
     16          1           0        3.456687    0.221995    1.495448
     17          1           0       -0.810199   -0.377752   -1.526131
     18          1           0       -0.654657    1.898946   -0.252025
     19          1           0       -1.802617   -1.786603    0.333318
     20          1           0       -1.436199   -0.478989    1.469048
     21          1           0       -3.791617    1.591037   -0.358466
     22          1           0        3.698034    0.480091   -1.038881
     23          1           0        3.326891   -1.256571   -1.239425
     24          1           0        2.390450   -0.030628   -2.121579
 ---------------------------------------------------------------------

 SCF Done:  E(UB3LYP) =  -667.409082703     A.U. after   29 cycles

 The electronic state is 2-A.
 Alpha  occ. eigenvalues --  -19.06393 -19.01222 -18.97980 -18.96928 -14.22272
 Alpha  occ. eigenvalues --  -10.20220 -10.15740 -10.10454 -10.10242 -10.07849
 Alpha  occ. eigenvalues --  -10.07741 -10.06255 -10.05738  -1.00460  -0.93016
 Alpha  occ. eigenvalues --   -0.91761  -0.90961  -0.82639  -0.70040  -0.67563
 Alpha  occ. eigenvalues --   -0.58751  -0.58177  -0.54954  -0.50262  -0.45033
 Alpha  occ. eigenvalues --   -0.42823  -0.40216  -0.39291  -0.38070  -0.35926
 Alpha  occ. eigenvalues --   -0.35103  -0.33646  -0.33258  -0.31777  -0.30669
 Alpha  occ. eigenvalues --   -0.29915  -0.29897  -0.28092  -0.27907  -0.26528
 Alpha  occ. eigenvalues --   -0.26169  -0.25410  -0.25239  -0.22536  -0.22134
 Alpha  occ. eigenvalues --   -0.18208  -0.15251  -0.14868  -0.11682   0.04422
 Alpha virt. eigenvalues --    0.06983   0.08235   0.09111   0.09575   0.10725
 Alpha virt. eigenvalues --    0.11087   0.11254   0.12245   0.12809   0.13016
 Alpha virt. eigenvalues --    0.14003   0.14450   0.14694   0.15622   0.16021

  Beta  occ. eigenvalues --  -19.06319 -19.01204 -18.97982 -18.96526 -14.22239
  Beta  occ. eigenvalues --  -10.20203 -10.15739 -10.10481 -10.09824 -10.07793
  Beta  occ. eigenvalues --  -10.07775 -10.06208 -10.05690  -1.00358  -0.92985
  Beta  occ. eigenvalues --   -0.91676  -0.90218  -0.82541  -0.69899  -0.67432
  Beta  occ. eigenvalues --   -0.58644  -0.57817  -0.54876  -0.50119  -0.44874
  Beta  occ. eigenvalues --   -0.42424  -0.40024  -0.39204  -0.38014  -0.35721
  Beta  occ. eigenvalues --   -0.34851  -0.33558  -0.33182  -0.31645  -0.30437
  Beta  occ. eigenvalues --   -0.29840  -0.29594  -0.27925  -0.27673  -0.26431
  Beta  occ. eigenvalues --   -0.26026  -0.25135  -0.24706  -0.22330  -0.20920
  Beta  occ. eigenvalues --   -0.18143  -0.15190  -0.14745  -0.11421
  Beta virt. eigenvalues --    0.07785   0.08449   0.09129   0.09870   0.10387
  Beta virt. eigenvalues --    0.10900   0.11226   0.11997   0.12259   0.12829
  Beta virt. eigenvalues --    0.13033   0.14215   0.14451   0.14749   0.15724

 Mulliken charges and spin densities:
               1          2
     1  C   -0.307841  -0.233846
     2  C    0.556728   0.205834
     3  C   -0.517783   0.378217
     4  O   -0.371326   0.141331
     5  C    0.480640  -0.291788
     6  N   -0.269863  -0.005475
     7  C    0.024837  -0.096644
     8  O   -0.373277   0.002095
     9  C    0.492460  -1.000229
    10  C   -0.088071   0.125890
    11  O   -0.291650   0.001647
    12  O   -0.207897   0.004704
    13  C   -0.637561   0.036856
    14  H    0.136148   0.025119
    15  H    0.078216   0.068751
    16  H    0.114326   0.036496
    17  H   -0.245667   0.482733
    18  H    0.298782   0.064064
    19  H    0.242464  -0.032383
    20  H   -0.050781   0.251914
    21  H   -0.502269   0.824707
    22  H    0.157719  -0.001990
    23  H    0.147616   0.002108
    24  H    0.134052   0.009891
 Sum of Mulliken charges =  -1.00000   1.00000

 Dipole moment (field-independent basis, Debye):
    X=              4.5053    Y=             -1.3353    Z=              0.6052  Tot=              4.7378
 Quadrupole moment (field-independent basis, Debye-Ang):
   XX=           -133.1390   YY=           -115.7335   ZZ=            -90.7118
   XY=              1.4275   XZ=             -5.1665   YZ=             -0.7628

 Summary of Natural Population Analysis:

                                       Natural Population
                Natural  -----------------------------------------------
    Atom  No    Charge         Core      Valence    Rydberg      Total
 -----------------------------------------------------------------------
      C    1   -0.27330      0.99964     2.26752    0.00614     3.27330
      C    2   -0.11905      0.99949     2.10834    0.01121     3.11905
      C    3    0.35332      0.99960     1.62184    0.02523     2.64668
      O    4   -0.26007      0.99987     3.25377    0.00643     4.26007
      C    5   -0.04969      0.99956     2.03643    0.01370     3.04969
      N    6   -0.31612      0.99966     2.80638    0.01007     3.81612
      C    7    0.35173      0.99961     1.62228    0.02637     2.64827
      O    8   -0.33020      0.99987     3.32437    0.00596     4.33020
      C    9   -0.23892      0.99955     2.22957    0.00979     3.23892
      C   10    0.41456      0.99971     1.56108    0.02466     2.58544
      O   11   -0.30565      0.99987     3.29941    0.00637     4.30565
      O   12   -0.35529      0.99988     3.34803    0.00738     4.35529
      C   13   -0.26943      0.99963     2.26455    0.00524     3.26943
      H   14    0.10199      0.00000     0.39697    0.00104     0.39801
      H   15    0.10101      0.00000     0.39807    0.00092     0.39899
      H   16    0.10081      0.00000     0.39803    0.00116     0.39919
      H   17    0.10525      0.00000     0.39240    0.00235     0.39475
      H   18    0.20414      0.00000     0.29305    0.00282     0.29586
      H   19    0.12172      0.00000     0.37719    0.00109     0.37828
      H   20    0.11526      0.00000     0.38355    0.00120     0.38474
      H   21    0.24709      0.00000     0.22469    0.02822     0.25291
      H   22    0.10074      0.00000     0.39826    0.00101     0.39926
      H   23    0.10092      0.00000     0.39814    0.00094     0.39908
      H   24    0.09918      0.00000     0.40004    0.00078     0.40082
 =======================================================================
   * Total *   -0.00000     12.99595    35.80396    0.20009    49.00000

 Normal termination of Gaussian 16 at Wed Dec  9 23:08:23 2020.
