 Gaussian 16, Revision A.03,

 -----------------------------------------------------------
 # opt freq B3LYP/6-31G(d) empiricaldispersion=gd3bj scf=xqc
 -----------------------------------------------------------

 ---------------------------
 CID_125605_JID_917_neutraal
 ---------------------------
 Symbolic Z-matrix:
 Charge =  0 Multiplicity = 1

 SCF Done:  E(RB3LYP) =  -855.853385286     A.U. after   14 cycles
 SCF Done:  E(RB3LYP) =  -855.857635729     A.U. after   12 cycles
 SCF Done:  E(RB3LYP) =  -855.858347026     A.U. after   11 cycles
 SCF Done:  E(RB3LYP) =  -855.858479394     A.U. after   10 cycles
 SCF Done:  E(RB3LYP) =  -855.858531324     A.U. after   10 cycles
 SCF Done:  E(RB3LYP) =  -855.858547040     A.U. after   10 cycles
 SCF Done:  E(RB3LYP) =  -855.858550303     A.U. after   10 cycles
 SCF Done:  E(RB3LYP) =  -855.858600968     A.U. after   10 cycles
 SCF Done:  E(RB3LYP) =  -855.858692935     A.U. after   12 cycles
 SCF Done:  E(RB3LYP) =  -855.858704880     A.U. after   10 cycles
 SCF Done:  E(RB3LYP) =  -855.859035904     A.U. after    9 cycles
 SCF Done:  E(RB3LYP) =  -855.859036163     A.U. after    8 cycles
 SCF Done:  E(RB3LYP) =  -855.859036392     A.U. after    8 cycles
 SCF Done:  E(RB3LYP) =  -855.859036613     A.U. after    8 cycles
 SCF Done:  E(RB3LYP) =  -855.859036665     A.U. after    8 cycles
 SCF Done:  E(RB3LYP) =  -855.859036691     A.U. after    7 cycles
 Optimization completed.
    -- Stationary point found.
 Normal termination of Gaussian 16 at Tue Dec  8 13:42:25 2020.

 --------------------------------------------------------------------
 #N Geom=AllCheck Guess=TCheck SCRF=Check GenChk RB3LYP/6-31G(d) Freq
 --------------------------------------------------------------------

 Structure from the checkpoint file:  "JID_917.chk"
 ---------------------------
 CID_125605_JID_917_neutraal
 ---------------------------
 Charge =  0 Multiplicity = 1

 SCF Done:  E(RB3LYP) =  -855.859036691     A.U. after    1 cycles

  Exact polarizability:  97.677  -0.200  83.737  -1.922   0.585  73.028
 Approx polarizability: 122.067  -3.710 120.317  -6.885   1.161 123.625

                      1                      2                      3
                      A                      A                      A
 Frequencies --     28.9954                59.5692                99.8163
 Red. masses --      3.4667                 2.3916                 3.4288
 Frc consts  --      0.0017                 0.0050                 0.0201
 IR Inten    --      1.5642                 0.6414                 5.6024

                      4                      5                      6
                      A                      A                      A
 Frequencies --    129.4313               177.0367               243.2621
 Red. masses --      3.6117                 1.4508                 3.8745
 Frc consts  --      0.0356                 0.0268                 0.1351
 IR Inten    --      1.5252                41.4238                 4.9666

                      7                      8                      9
                      A                      A                      A
 Frequencies --    258.3137               289.6408               324.5442
 Red. masses --      2.5762                 4.6105                 2.6518
 Frc consts  --      0.1013                 0.2279                 0.1646
 IR Inten    --      5.9013                 4.5507                 0.8838

                     10                     11                     12
                      A                      A                      A
 Frequencies --    381.4196               436.3050               462.1387
 Red. masses --      2.8216                 2.3382                 5.2048
 Frc consts  --      0.2419                 0.2622                 0.6549
 IR Inten    --      1.9106                 3.4609                13.4786

                     13                     14                     15
                      A                      A                      A
 Frequencies --    524.2915               590.4598               627.0383
 Red. masses --      5.5319                 2.3219                 3.3636
 Frc consts  --      0.8959                 0.4770                 0.7792
 IR Inten    --     68.6731                52.9691                 6.8852

                     16                     17                     18
                      A                      A                      A
 Frequencies --    679.5363               745.2000               805.0532
 Red. masses --      4.1357                 2.4969                 1.5590
 Frc consts  --      1.1252                 0.8170                 0.5953
 IR Inten    --    152.4402                45.4960                26.5549

                     19                     20                     21
                      A                      A                      A
 Frequencies --    846.7752               878.4465               898.9311
 Red. masses --      2.0416                 1.7976                 2.1422
 Frc consts  --      0.8625                 0.8173                 1.0199
 IR Inten    --     24.9211                40.2820                92.6249

                     22                     23                     24
                      A                      A                      A
 Frequencies --    923.8184               950.2163              1012.9820
 Red. masses --      1.8766                 2.6922                 2.0561
 Frc consts  --      0.9436                 1.4322                 1.2431
 IR Inten    --     14.3595                 1.8991                 2.2964

                     25                     26                     27
                      A                      A                      A
 Frequencies --   1024.2861              1064.8404              1090.4700
 Red. masses --      1.3641                 2.6664                 1.9080
 Frc consts  --      0.8432                 1.7813                 1.3368
 IR Inten    --      4.6791                 4.6517                21.3121

                     28                     29                     30
                      A                      A                      A
 Frequencies --   1106.8929              1127.5891              1136.3513
 Red. masses --      1.3131                 5.7674                 2.3966
 Frc consts  --      0.9479                 4.3205                 1.8234
 IR Inten    --      7.1237               159.8202                13.1538

                     31                     32                     33
                      A                      A                      A
 Frequencies --   1146.6432              1183.9561              1222.4874
 Red. masses --      2.6255                 1.1924                 1.2126
 Frc consts  --      2.0338                 0.9848                 1.0678
 IR Inten    --      8.7954                11.8251                 2.0055

                     34                     35                     36
                      A                      A                      A
 Frequencies --   1254.9356              1281.3018              1292.0773
 Red. masses --      1.3405                 1.2406                 1.2922
 Frc consts  --      1.2438                 1.2000                 1.2710
 IR Inten    --      2.7898                 7.0262                 5.3336

                     37                     38                     39
                      A                      A                      A
 Frequencies --   1312.7594              1329.6741              1347.3547
 Red. masses --      1.4296                 1.3489                 3.0649
 Frc consts  --      1.4515                 1.4051                 3.2782
 IR Inten    --     26.9835                17.1381               148.0456

                     40                     41                     42
                      A                      A                      A
 Frequencies --   1371.5626              1394.7743              1426.5431
 Red. masses --      1.3673                 1.4852                 1.4933
 Frc consts  --      1.5155                 1.7023                 1.7904
 IR Inten    --      9.7594                19.4314                 2.1225

                     43                     44                     45
                      A                      A                      A
 Frequencies --   1455.8661              1480.5699              1531.4953
 Red. masses --      1.3781                 1.0937                 1.0846
 Frc consts  --      1.7210                 1.4126                 1.4988
 IR Inten    --      4.2278                 4.8082                 3.3499

                     46                     47                     48
                      A                      A                      A
 Frequencies --   1539.6600              1558.9167              1622.9933
 Red. masses --      1.0913                 1.1016                 1.0950
 Frc consts  --      1.5243                 1.5774                 1.6995
 IR Inten    --      2.9067                 1.8436                47.5672

                     49                     50                     51
                      A                      A                      A
 Frequencies --   2916.3779              2951.7685              3078.3031
 Red. masses --      1.0733                 1.0748                 1.0599
 Frc consts  --      5.3785                 5.5173                 5.9174
 IR Inten    --     78.7385                97.7697                 3.4608

                     52                     53                     54
                      A                      A                      A
 Frequencies --   3083.6524              3089.3676              3093.9372
 Red. masses --      1.0729                 1.0857                 1.0798
 Frc consts  --      6.0111                 6.1049                 6.0902
 IR Inten    --     18.6183                36.8026                34.6059

                     55                     56                     57
                      A                      A                      A
 Frequencies --   3104.8777              3133.5794              3140.9732
 Red. masses --      1.0871                 1.1054                 1.1039
 Frc consts  --      6.1744                 6.3953                 6.4165
 IR Inten    --      6.8864                12.9185                13.0802

                     58                     59                     60
                      A                      A                      A
 Frequencies --   3493.0013              3514.0680              3602.5339
 Red. masses --      1.0471                 1.0749                 1.0976
 Frc consts  --      7.5273                 7.8209                 8.3926
 IR Inten    --     31.3945                 1.2749                33.4803

 - Thermochemistry -
 -------------------
 Temperature   298.150 Kelvin.  Pressure   1.00000 Atm.
 Atom     1 has atomic number  6 and mass  12.00000

 Molecular mass:   164.06195 amu.
 Principal axes and moments of inertia in atomic units:
                           1         2         3
     Eigenvalues --   676.934942904.549513117.53210
           X            0.99997   0.00774   0.00218
           Y           -0.00776   0.99991   0.01053
           Z           -0.00210  -0.01055   0.99994
 This molecule is an asymmetric top.
 Rotational symmetry number  1.
 Warning -- assumption of classical behavior for rotation
           may cause significant error
 Rotational temperatures (Kelvin)      0.12795     0.02982     0.02778
 Rotational constants (GHZ):           2.66605     0.62135     0.57890
 Zero-point vibrational energy     489749.1 (Joules/Mol)
                                  117.05285 (Kcal/Mol)
 Warning -- explicit consideration of  14 degrees of freedom as
           vibrations may cause significant error
 Vibrational temperatures:     41.72    85.71   143.61   186.22   254.72
          (Kelvin)            350.00   371.66   416.73   466.95   548.78
                              627.75   664.91   754.34   849.54   902.17
                              977.70  1072.18  1158.29  1218.32  1263.89
                             1293.36  1329.17  1367.15  1457.46  1473.72
                             1532.07  1568.94  1592.57  1622.35  1634.96
                             1649.76  1703.45  1758.89  1805.57  1843.51
                             1859.01  1888.77  1913.10  1938.54  1973.37
                             2006.77  2052.48  2094.67  2130.21  2203.48
                             2215.23  2242.93  2335.13  4196.02  4246.94
                             4428.99  4436.69  4444.91  4451.49  4467.23
                             4508.52  4519.16  5025.65  5055.96  5183.24

 Zero-point correction=                           0.186536 (Hartree/Particle)
 Thermal correction to Energy=                    0.197172
 Thermal correction to Enthalpy=                  0.198117
 Thermal correction to Gibbs Free Energy=         0.149064
 Sum of electronic and zero-point Energies=           -855.672501
 Sum of electronic and thermal Energies=              -855.661864
 Sum of electronic and thermal Enthalpies=            -855.660920
 Sum of electronic and thermal Free Energies=         -855.709973

                     E (Thermal)             CV                S
                      KCal/Mol        Cal/Mol-Kelvin    Cal/Mol-Kelvin
 Total                  123.728             39.091            103.240
 Electronic               0.000              0.000              0.000
 Translational            0.889              2.981             41.194
 Rotational               0.889              2.981             30.195
 Vibrational            121.950             33.129             31.851
 Vibration     1          0.593              1.984              5.897
 Vibration     2          0.597              1.974              4.471
 Vibration     3          0.604              1.949              3.458
 Vibration     4          0.612              1.924              2.954
 Vibration     5          0.628              1.871              2.359
 Vibration     6          0.659              1.774              1.779
 Vibration     7          0.667              1.749              1.673
 Vibration     8          0.686              1.693              1.476
 Vibration     9          0.709              1.626              1.287
 Vibration    10          0.751              1.510              1.034
 Vibration    11          0.797              1.391              0.838
 Vibration    12          0.820              1.334              0.760
 Vibration    13          0.879              1.196              0.600
 Vibration    14          0.948              1.052              0.466

 Optimization completed.
    -- Stationary point found.
 Normal termination of Gaussian 16 at Tue Dec  8 13:46:48 2020.

 ----------------------------------------------------------------------
 # B3LYP/6-311++G(d,p) empiricaldispersion=gd3bj scf=xqc pop=npa geom=c
 heck
 ----------------------------------------------------------------------

 -----------------------------------
 CID_125605_JID_917_Energie_neutraal
 -----------------------------------
 Structure from the checkpoint file:  "JID_917.chk"
 Charge =  0 Multiplicity = 1

 SCF Done:  E(RB3LYP) =  -856.031454243     A.U. after   15 cycles
 Normal termination of Gaussian 16 at Tue Dec  8 13:50:07 2020.

 ----------------------------------------------------------------------
 # B3LYP/6-311++G(d,p) empiricaldispersion=gd3bj scf=xqc pop=npa geom=c
 heck
 ----------------------------------------------------------------------

 ---------------------------------
 CID_125605_JID_917_Energie_kation
 ---------------------------------
 Structure from the checkpoint file:  "JID_917.chk"
 Charge =  1 Multiplicity = 2

 SCF Done:  E(UB3LYP) =  -855.702656160     A.U. after   31 cycles
 Normal termination of Gaussian 16 at Tue Dec  8 13:56:12 2020.
 Gaussian 16:  ES64L-G16RevA.03 25-Dec-2016

 ----------------------------------------------------------------------
 # B3LYP/6-311++G(d,p) empiricaldispersion=gd3bj scf=xqc pop=npa geom=c
 heck
 ----------------------------------------------------------------------

 --------------------------------
 CID_125605_JID_917_Energie_anion
 --------------------------------
 Structure from the checkpoint file:  "JID_917.chk"
 Charge = -1 Multiplicity = 2

                         Standard orientation:
 ---------------------------------------------------------------------
 Center     Atomic      Atomic             Coordinates (Angstroms)
 Number     Number       Type             X           Y           Z
 ---------------------------------------------------------------------
      1          6           0       -1.409236    1.076569    0.052819
      2          6           0       -2.933220    0.988732   -0.197015
      3          7           0       -3.284895   -0.351656    0.284084
      4          6           0       -2.195078   -1.213170   -0.162661
      5          6           0       -0.953741   -0.398105    0.248860
      6          6           0        0.282308   -0.821249   -0.534289
      7         16           0        1.833248   -0.109009    0.068512
      8          8           0        1.803368   -0.119781    1.535529
      9          8           0        2.924402   -0.731289   -0.688170
     10          7           0        1.747867    1.509440   -0.454204
     11          1           0       -0.895565    1.549512   -0.787736
     12          1           0       -1.181869    1.665826    0.945461
     13          1           0       -3.500307    1.752542    0.344803
     14          1           0       -3.137705    1.122555   -1.274945
     15          1           0       -4.187193   -0.659869   -0.070588
     16          1           0       -2.185835   -1.380228   -1.258839
     17          1           0       -2.237004   -2.191844    0.327005
     18          1           0       -0.763057   -0.579215    1.309914
     19          1           0        0.455781   -1.899770   -0.448980
     20          1           0        0.224263   -0.564592   -1.595976
     21          1           0        1.670564    2.119981    0.356924
     22          1           0        2.596803    1.716642   -0.977553
 ---------------------------------------------------------------------

 SCF Done:  E(UB3LYP) =  -856.022014415     A.U. after   26 cycles

 The electronic state is 2-A.
 Alpha  occ. eigenvalues --  -88.96135 -19.01836 -19.01775 -14.23727 -14.19592
 Alpha  occ. eigenvalues --  -10.11012 -10.09340 -10.08734 -10.08520 -10.06304
 Alpha  occ. eigenvalues --   -8.02380  -5.98674  -5.98625  -5.98422  -1.01914
 Alpha  occ. eigenvalues --   -0.91122  -0.82064  -0.80625  -0.71050  -0.63703
 Alpha  occ. eigenvalues --   -0.61453  -0.52414  -0.49551  -0.46903  -0.42875
 Alpha  occ. eigenvalues --   -0.42448  -0.41150  -0.39580  -0.37790  -0.35068
 Alpha  occ. eigenvalues --   -0.33790  -0.32769  -0.29642  -0.28878  -0.27329
 Alpha  occ. eigenvalues --   -0.26220  -0.25403  -0.23942  -0.22535  -0.22299
 Alpha  occ. eigenvalues --   -0.21103  -0.20986  -0.19211  -0.12972   0.04273
 Alpha virt. eigenvalues --    0.06337   0.08003   0.08460   0.09186   0.10480
 Alpha virt. eigenvalues --    0.11081   0.11380   0.11611   0.12592   0.13738
 Alpha virt. eigenvalues --    0.14101   0.14764   0.15885   0.16391   0.16565

  Beta  occ. eigenvalues --  -88.96128 -19.01821 -19.01763 -14.23647 -14.19568
  Beta  occ. eigenvalues --  -10.10980 -10.09306 -10.08708 -10.08518 -10.06283
  Beta  occ. eigenvalues --   -8.02371  -5.98665  -5.98620  -5.98418  -1.01878
  Beta  occ. eigenvalues --   -0.91086  -0.82029  -0.80489  -0.71006  -0.63647
  Beta  occ. eigenvalues --   -0.61384  -0.52337  -0.49462  -0.46841  -0.42806
  Beta  occ. eigenvalues --   -0.42384  -0.41068  -0.39558  -0.37751  -0.35042
  Beta  occ. eigenvalues --   -0.33750  -0.32713  -0.29595  -0.28837  -0.27284
  Beta  occ. eigenvalues --   -0.26180  -0.25363  -0.23909  -0.22504  -0.22267
  Beta  occ. eigenvalues --   -0.21077  -0.20949  -0.19141  -0.12918
  Beta virt. eigenvalues --    0.06885   0.07830   0.08578   0.09170   0.09989
  Beta virt. eigenvalues --    0.11243   0.11523   0.11587   0.12115   0.13101
  Beta virt. eigenvalues --    0.14105   0.14396   0.14929   0.16143   0.16376

 Mulliken charges and spin densities:
               1          2
     1  C    0.380438  -0.984098
     2  C    0.944954  -1.314980
     3  N   -0.375494   0.246935
     4  C    0.522847  -1.055024
     5  C   -1.299342   1.835587
     6  C   -0.274566  -0.642500
     7  S    1.467061  -1.138583
     8  O   -0.280652   0.031166
     9  O   -0.262560   0.020828
    10  N   -0.274240  -0.084421
    11  H    0.086532   0.138254
    12  H   -0.131446   0.283233
    13  H   -0.102563   0.259458
    14  H   -0.392241   0.535263
    15  H   -0.200053   0.447404
    16  H   -0.363940   0.502084
    17  H   -0.148653   0.303510
    18  H    0.185730   0.058107
    19  H    0.119475   0.113375
    20  H   -0.083601   0.347984
    21  H   -0.261894   0.536072
    22  H   -0.255792   0.560347
 Sum of Mulliken charges =  -1.00000   1.00000

 Dipole moment (field-independent basis, Debye):
    X=              0.8738    Y=             -1.8438    Z=              1.2051  Tot=              2.3697
 Quadrupole moment (field-independent basis, Debye-Ang):
   XX=           -135.7366   YY=           -104.3660   ZZ=           -101.3976
   XY=             -5.0206   XZ=             -3.4308   YZ=              0.6398

 Summary of Natural Population Analysis:

                                       Natural Population
                Natural  -----------------------------------------------
    Atom  No    Charge         Core      Valence    Rydberg      Total
 -----------------------------------------------------------------------
      C    1   -0.19859      0.99962     2.18941    0.00956     3.19859
      C    2   -0.08671      0.99964     2.07620    0.01086     3.08671
      N    3   -0.34123      0.99975     2.82949    0.01199     3.84123
      C    4   -0.08242      0.99961     2.07082    0.01198     3.08242
      C    5   -0.12885      0.99958     2.11766    0.01161     3.12885
      C    6   -0.27985      0.99954     2.26545    0.01486     3.27985
      S    7    1.08629      4.99936     1.81561    0.09873     6.91371
      O    8   -0.46628      0.99991     3.46077    0.00560     4.46628
      O    9   -0.46866      0.99991     3.46313    0.00562     4.46866
      N   10   -0.51662      0.99979     3.00550    0.01134     4.01662
      H   11    0.10839      0.00000     0.38944    0.00217     0.39161
      H   12    0.10205      0.00000     0.39659    0.00136     0.39795
      H   13    0.09351      0.00000     0.40523    0.00126     0.40649
      H   14    0.08061      0.00000     0.41708    0.00232     0.41939
      H   15    0.17791      0.00000     0.31845    0.00364     0.32209
      H   16    0.07935      0.00000     0.41814    0.00252     0.42065
      H   17    0.09627      0.00000     0.40252    0.00121     0.40373
      H   18    0.11055      0.00000     0.38784    0.00162     0.38945
      H   19    0.11637      0.00000     0.38262    0.00101     0.38363
      H   20    0.11859      0.00000     0.37997    0.00144     0.38141
      H   21    0.19918      0.00000     0.29517    0.00565     0.30082
      H   22    0.20014      0.00000     0.29494    0.00492     0.29986
 =======================================================================
   * Total *   -0.00000     13.99671    29.78203    0.22126    44.00000

 Normal termination of Gaussian 16 at Tue Dec  8 14:02:13 2020.
