 Gaussian 16, Revision A.03,

 -----------------------------------------------------------
 # opt freq B3LYP/6-31G(d) empiricaldispersion=gd3bj scf=xqc
 -----------------------------------------------------------

 -------------------------------
 CID_116754539_JID_5769_neutraal
 -------------------------------
 Symbolic Z-matrix:
 Charge =  0 Multiplicity = 1

 SCF Done:  E(RB3LYP) =  -660.322656370     A.U. after   13 cycles
 SCF Done:  E(RB3LYP) =  -660.325548974     A.U. after   11 cycles
 SCF Done:  E(RB3LYP) =  -660.324400458     A.U. after   12 cycles
 SCF Done:  E(RB3LYP) =  -660.324928859     A.U. after   11 cycles
 SCF Done:  E(RB3LYP) =  -660.326615930     A.U. after    9 cycles
 SCF Done:  E(RB3LYP) =  -660.326784307     A.U. after   11 cycles
 SCF Done:  E(RB3LYP) =  -660.327212605     A.U. after   10 cycles
 SCF Done:  E(RB3LYP) =  -660.327263231     A.U. after   10 cycles
 SCF Done:  E(RB3LYP) =  -660.327330039     A.U. after   10 cycles
 SCF Done:  E(RB3LYP) =  -660.327345054     A.U. after    9 cycles
 SCF Done:  E(RB3LYP) =  -660.327628753     A.U. after    7 cycles
 SCF Done:  E(RB3LYP) =  -660.327669602     A.U. after    9 cycles
 SCF Done:  E(RB3LYP) =  -660.327678345     A.U. after    9 cycles
 SCF Done:  E(RB3LYP) =  -660.327681846     A.U. after    8 cycles
 SCF Done:  E(RB3LYP) =  -660.327683071     A.U. after    7 cycles
 Optimization completed.
    -- Stationary point found.
 Normal termination of Gaussian 16 at Thu Dec 10 17:25:54 2020.

 --------------------------------------------------------------------
 #N Geom=AllCheck Guess=TCheck SCRF=Check GenChk RB3LYP/6-31G(d) Freq
 --------------------------------------------------------------------

 Structure from the checkpoint file:  "JID_5769.chk"
 -------------------------------
 CID_116754539_JID_5769_neutraal
 -------------------------------
 Charge =  0 Multiplicity = 1

 SCF Done:  E(RB3LYP) =  -660.327683071     A.U. after    1 cycles

  Exact polarizability: 165.613   5.680 124.486   4.725  -1.027 129.339
 Approx polarizability: 206.338   6.712 180.873  14.302  -2.915 198.511

                      1                      2                      3
                      A                      A                      A
 Frequencies --     50.2132                64.2947                83.3873
 Red. masses --      3.5154                 3.3036                 3.4374
 Frc consts  --      0.0052                 0.0080                 0.0141
 IR Inten    --      0.3834                 0.0360                 0.3661

                      4                      5                      6
                      A                      A                      A
 Frequencies --     95.1188               126.6864               171.3435
 Red. masses --      2.3996                 2.7465                 2.4306
 Frc consts  --      0.0128                 0.0260                 0.0420
 IR Inten    --      1.4637                 0.6629                 0.2337

                      7                      8                      9
                      A                      A                      A
 Frequencies --    181.1914               185.4164               201.4412
 Red. masses --      2.3634                 2.8839                 1.6282
 Frc consts  --      0.0457                 0.0584                 0.0389
 IR Inten    --      1.0228                 0.2924                 0.6457

                     10                     11                     12
                      A                      A                      A
 Frequencies --    211.9322               231.2913               243.5011
 Red. masses --      1.1346                 2.2427                 1.2010
 Frc consts  --      0.0300                 0.0707                 0.0420
 IR Inten    --      0.6796                 0.1157                 0.0397

                     13                     14                     15
                      A                      A                      A
 Frequencies --    280.5887               294.3305               308.9351
 Red. masses --      2.6315                 2.7862                 2.9083
 Frc consts  --      0.1221                 0.1422                 0.1635
 IR Inten    --      2.3912                 3.0255                 7.7182

                     16                     17                     18
                      A                      A                      A
 Frequencies --    316.1845               359.7406               393.1648
 Red. masses --      2.3774                 2.4028                 2.6861
 Frc consts  --      0.1400                 0.1832                 0.2446
 IR Inten    --      1.0012                 0.8112                 2.3942

                     19                     20                     21
                      A                      A                      A
 Frequencies --    404.9884               433.0933               442.1455
 Red. masses --      2.2575                 1.6755                 1.7869
 Frc consts  --      0.2181                 0.1852                 0.2058
 IR Inten    --      6.7228                29.1914                67.4191

                     22                     23                     24
                      A                      A                      A
 Frequencies --    454.0905               469.5825               481.5160
 Red. masses --      2.0283                 2.0816                 3.1845
 Frc consts  --      0.2464                 0.2704                 0.4350
 IR Inten    --      1.6143                71.9317                 3.6115

                     25                     26                     27
                      A                      A                      A
 Frequencies --    503.2563               563.7544               605.5261
 Red. masses --      3.2367                 2.9333                 2.6244
 Frc consts  --      0.4830                 0.5493                 0.5669
 IR Inten    --      0.2453                27.4484                 9.9713

                     28                     29                     30
                      A                      A                      A
 Frequencies --    656.1941               700.9650               759.7748
 Red. masses --      2.2086                 2.4394                 1.7377
 Frc consts  --      0.5603                 0.7062                 0.5910
 IR Inten    --      2.5535                 4.5136                 7.0648

                     31                     32                     33
                      A                      A                      A
 Frequencies --    790.2385               802.7882               836.4263
 Red. masses --      2.2814                 1.4670                 2.6266
 Frc consts  --      0.8394                 0.5571                 1.0827
 IR Inten    --      0.8751                 0.8468                 3.8034

                     34                     35                     36
                      A                      A                      A
 Frequencies --    895.7179               914.4732               917.0513
 Red. masses --      2.2029                 1.4189                 1.7278
 Frc consts  --      1.0413                 0.6991                 0.8561
 IR Inten    --      7.6286                23.8335                 7.1965

                     37                     38                     39
                      A                      A                      A
 Frequencies --    924.6579               955.6003               962.3709
 Red. masses --      1.8128                 1.9952                 1.4732
 Frc consts  --      0.9132                 1.0735                 0.8039
 IR Inten    --      4.7364                 2.8384                 3.1710

                     40                     41                     42
                      A                      A                      A
 Frequencies --    978.6664              1005.5841              1021.2663
 Red. masses --      1.6062                 1.5806                 2.8702
 Frc consts  --      0.9064                 0.9417                 1.7638
 IR Inten    --      3.7413                 4.0443                10.9231

                     43                     44                     45
                      A                      A                      A
 Frequencies --   1032.7410              1035.5274              1056.5630
 Red. masses --      1.6182                 1.6463                 1.9015
 Frc consts  --      1.0169                 1.0401                 1.2507
 IR Inten    --      2.2918                 3.9714                 5.6641

                     46                     47                     48
                      A                      A                      A
 Frequencies --   1074.1430              1085.4804              1098.3627
 Red. masses --      1.9793                 1.5113                 3.2688
 Frc consts  --      1.3455                 1.0491                 2.3235
 IR Inten    --     20.8201                 4.9696                68.8214

                     49                     50                     51
                      A                      A                      A
 Frequencies --   1114.6668              1123.9258              1136.6145
 Red. masses --      3.0705                 1.6786                 4.7051
 Frc consts  --      2.2478                 1.2493                 3.5814
 IR Inten    --     30.3809                 1.8178               124.4114

                     52                     53                     54
                      A                      A                      A
 Frequencies --   1174.9955              1188.8633              1204.5774
 Red. masses --      1.4666                 1.2974                 1.8413
 Frc consts  --      1.1929                 1.0804                 1.5741
 IR Inten    --      0.1756                 2.5264                18.6949

                     55                     56                     57
                      A                      A                      A
 Frequencies --   1209.1316              1235.5220              1238.4352
 Red. masses --      2.2929                 1.4470                 1.5585
 Frc consts  --      1.9751                 1.3014                 1.4084
 IR Inten    --      1.5270                16.9091                 9.3927

                     58                     59                     60
                      A                      A                      A
 Frequencies --   1277.6180              1296.9403              1301.8460
 Red. masses --      1.3723                 1.3765                 1.4878
 Frc consts  --      1.3197                 1.3641                 1.4856
 IR Inten    --      7.2056                 1.4382                10.5209

                     61                     62                     63
                      A                      A                      A
 Frequencies --   1313.9971              1325.2883              1351.8534
 Red. masses --      1.5232                 1.4813                 1.3717
 Frc consts  --      1.5495                 1.5329                 1.4770
 IR Inten    --      8.8283                 5.9443                 6.4932

                     64                     65                     66
                      A                      A                      A
 Frequencies --   1356.2387              1372.8171              1376.3011
 Red. masses --      1.3519                 1.5971                 1.4576
 Frc consts  --      1.4651                 1.7734                 1.6267
 IR Inten    --      2.1436                 3.6176                 2.1032

                     67                     68                     69
                      A                      A                      A
 Frequencies --   1401.5222              1407.4955              1414.7005
 Red. masses --      1.4326                 1.4207                 1.4210
 Frc consts  --      1.6580                 1.6582                 1.6756
 IR Inten    --      0.7275                 6.4842                 2.3738

                     70                     71                     72
                      A                      A                      A
 Frequencies --   1423.6195              1430.7649              1440.7790
 Red. masses --      1.6015                 1.2782                 1.2392
 Frc consts  --      1.9124                 1.5416                 1.5156
 IR Inten    --      1.0094                 9.2445                 2.4271

                     73                     74                     75
                      A                      A                      A
 Frequencies --   1462.4830              1470.8570              1502.7723
 Red. masses --      1.2106                 1.2031                 1.1254
 Frc consts  --      1.5255                 1.5335                 1.4974
 IR Inten    --     36.6648                 4.9304                 2.2402

                     76                     77                     78
                      A                      A                      A
 Frequencies --   1507.0018              1511.8910              1515.6009
 Red. masses --      1.0943                 1.0723                 1.0746
 Frc consts  --      1.4642                 1.4441                 1.4543
 IR Inten    --      1.0183                 0.3737                10.4484

                     79                     80                     81
                      A                      A                      A
 Frequencies --   1519.8632              1527.2939              1528.2784
 Red. masses --      1.0846                 1.0562                 1.0653
 Frc consts  --      1.4762                 1.4516                 1.4660
 IR Inten    --      0.6400                 1.3830                12.1498

                     82                     83                     84
                      A                      A                      A
 Frequencies --   1531.4304              1532.1314              1535.5781
 Red. masses --      1.0594                 1.0598                 1.0790
 Frc consts  --      1.4639                 1.4658                 1.4991
 IR Inten    --      3.7953                 6.9687                10.2463

                     85                     86                     87
                      A                      A                      A
 Frequencies --   1541.6429              1542.5231              1729.2785
 Red. masses --      1.0522                 1.0905                 4.8288
 Frc consts  --      1.4734                 1.5287                 8.5078
 IR Inten    --      7.6631                 4.7641                15.3140

                     88                     89                     90
                      A                      A                      A
 Frequencies --   2994.3244              3020.5817              3029.3275
 Red. masses --      1.0822                 1.0362                 1.0619
 Frc consts  --      5.7170                 5.5702                 5.7414
 IR Inten    --     13.6090                37.7505                15.8461

                     91                     92                     93
                      A                      A                      A
 Frequencies --   3035.6904              3036.0742              3041.6558
 Red. masses --      1.0444                 1.0492                 1.0544
 Frc consts  --      5.6708                 5.6983                 5.7472
 IR Inten    --     28.1865                11.0580                22.6102

                     94                     95                     96
                      A                      A                      A
 Frequencies --   3042.6540              3052.8592              3058.3198
 Red. masses --      1.0634                 1.0695                 1.0606
 Frc consts  --      5.8004                 5.8729                 5.8448
 IR Inten    --     42.9068                44.9690                15.5010

                     97                     98                     99
                      A                      A                      A
 Frequencies --   3070.0751              3075.3502              3077.6496
 Red. masses --      1.1008                 1.0970                 1.1017
 Frc consts  --      6.1128                 6.1127                 6.1482
 IR Inten    --     21.1939                70.6572                66.9412

                    100                    101                    102
                      A                      A                      A
 Frequencies --   3095.5617              3102.6573              3103.1785
 Red. masses --      1.1019                 1.0917                 1.0995
 Frc consts  --      6.2211                 6.1921                 6.2380
 IR Inten    --     30.2634                26.4253                44.6707

                    103                    104                    105
                      A                      A                      A
 Frequencies --   3107.6911              3110.0439              3114.1176
 Red. masses --      1.0866                 1.1025                 1.0931
 Frc consts  --      6.1827                 6.2829                 6.2457
 IR Inten    --     43.6441                33.6543                37.4833

                    106                    107                    108
                      A                      A                      A
 Frequencies --   3117.9957              3130.4533              3133.7946
 Red. masses --      1.0975                 1.1000                 1.1014
 Frc consts  --      6.2867                 6.3511                 6.3726
 IR Inten    --     18.8429                29.6771                21.3654

                    109                    110                    111
                      A                      A                      A
 Frequencies --   3158.4966              3238.3596              3690.5999
 Red. masses --      1.0600                 1.1157                 1.0643
 Frc consts  --      6.2302                 6.8938                 8.5411
 IR Inten    --     10.7597                16.5098                27.9256

 - Thermochemistry -
 -------------------
 Temperature   298.150 Kelvin.  Pressure   1.00000 Atm.
 Atom     1 has atomic number  6 and mass  12.00000

 Molecular mass:   212.17763 amu.
 Principal axes and moments of inertia in atomic units:
                           1         2         3
     Eigenvalues --  1824.085624765.072024960.99492
           X            0.99994   0.00888  -0.00714
           Y           -0.00888   0.99996   0.00009
           Z            0.00714  -0.00003   0.99997
 This molecule is an asymmetric top.
 Rotational symmetry number  1.
 Warning -- assumption of classical behavior for rotation
           may cause significant error
 Rotational temperatures (Kelvin)      0.04748     0.01818     0.01746
 Rotational constants (GHZ):           0.98940     0.37874     0.36379
 Zero-point vibrational energy     935335.9 (Joules/Mol)
                                  223.55066 (Kcal/Mol)
 Warning -- explicit consideration of  27 degrees of freedom as
           vibrations may cause significant error
 Vibrational temperatures:     72.25    92.51   119.98   136.85   182.27
          (Kelvin)            246.53   260.69   266.77   289.83   304.92
                              332.78   350.34   403.70   423.48   444.49
                              454.92   517.59   565.68   582.69   623.12
                              636.15   653.33   675.62   692.79   724.07
                              811.12   871.22   944.12  1008.53  1093.15
                             1136.98  1155.03  1203.43  1288.74  1315.72
                             1319.43  1330.38  1374.90  1384.64  1408.08
                             1446.81  1469.37  1485.88  1489.89  1520.16
                             1545.45  1561.76  1580.30  1603.76  1617.08
                             1635.33  1690.56  1710.51  1733.12  1739.67
                             1777.64  1781.83  1838.21  1866.01  1873.07
                             1890.55  1906.79  1945.02  1951.32  1975.18
                             1980.19  2016.48  2025.07  2035.44  2048.27
                             2058.55  2072.96  2104.19  2116.24  2162.15
                             2168.24  2175.27  2180.61  2186.74  2197.44
                             2198.85  2203.39  2204.40  2209.35  2218.08
                             2219.35  2488.05  4308.16  4345.94  4358.53
                             4367.68  4368.23  4376.26  4377.70  4392.38
                             4400.24  4417.15  4424.74  4428.05  4453.82
                             4464.03  4464.78  4471.27  4474.66  4480.52
                             4486.10  4504.02  4508.83  4544.37  4659.28
                             5309.95

 Zero-point correction=                           0.356251 (Hartree/Particle)
 Thermal correction to Energy=                    0.372818
 Thermal correction to Enthalpy=                  0.373762
 Thermal correction to Gibbs Free Energy=         0.313666
 Sum of electronic and zero-point Energies=           -659.971432
 Sum of electronic and thermal Energies=              -659.954865
 Sum of electronic and thermal Enthalpies=            -659.953921
 Sum of electronic and thermal Free Energies=         -660.014017

                     E (Thermal)             CV                S
                      KCal/Mol        Cal/Mol-Kelvin    Cal/Mol-Kelvin
 Total                  233.947             64.847            126.483
 Electronic               0.000              0.000              0.000
 Translational            0.889              2.981             41.960
 Rotational               0.889              2.981             32.133
 Vibrational            232.169             58.885             52.389
 Vibration     1          0.595              1.978              4.809
 Vibration     2          0.597              1.971              4.321
 Vibration     3          0.600              1.961              3.810
 Vibration     4          0.603              1.953              3.552
 Vibration     5          0.611              1.926              2.996
 Vibration     6          0.626              1.878              2.421
 Vibration     7          0.630              1.865              2.316
 Vibration     8          0.631              1.860              2.273
 Vibration     9          0.638              1.838              2.120
 Vibration    10          0.643              1.823              2.027
 Vibration    11          0.653              1.793              1.869
 Vibration    12          0.659              1.774              1.777
 Vibration    13          0.680              1.710              1.530
 Vibration    14          0.689              1.684              1.449
 Vibration    15          0.698              1.657              1.368
 Vibration    16          0.703              1.643              1.330
 Vibration    17          0.734              1.555              1.123
 Vibration    18          0.760              1.485              0.988
 Vibration    19          0.770              1.459              0.944
 Vibration    20          0.794              1.398              0.849
 Vibration    21          0.802              1.378              0.820
 Vibration    22          0.813              1.352              0.783
 Vibration    23          0.827              1.318              0.739
 Vibration    24          0.838              1.291              0.706
 Vibration    25          0.859              1.243              0.650
 Vibration    26          0.920              1.110              0.516
 Vibration    27          0.964              1.020              0.440

 Optimization completed.
    -- Stationary point found.
 Normal termination of Gaussian 16 at Thu Dec 10 17:41:17 2020.

 ----------------------------------------------------------------------
 # B3LYP/6-311++G(d,p) empiricaldispersion=gd3bj scf=xqc pop=npa geom=c
 heck
 ----------------------------------------------------------------------

 ---------------------------------------
 CID_116754539_JID_5769_Energie_neutraal
 ---------------------------------------
 Structure from the checkpoint file:  "JID_5769.chk"
 Charge =  0 Multiplicity = 1

 SCF Done:  E(RB3LYP) =  -660.520610789     A.U. after   14 cycles
 Normal termination of Gaussian 16 at Thu Dec 10 17:49:37 2020.

 ----------------------------------------------------------------------
 # B3LYP/6-311++G(d,p) empiricaldispersion=gd3bj scf=xqc pop=npa geom=c
 heck
 ----------------------------------------------------------------------

 -------------------------------------
 CID_116754539_JID_5769_Energie_kation
 -------------------------------------
 Structure from the checkpoint file:  "JID_5769.chk"
 Charge =  1 Multiplicity = 2

 SCF Done:  E(UB3LYP) =  -660.209786282     A.U. after   25 cycles
 Normal termination of Gaussian 16 at Thu Dec 10 18:07:55 2020.
 Gaussian 16:  ES64L-G16RevA.03 25-Dec-2016

 ----------------------------------------------------------------------
 # B3LYP/6-311++G(d,p) empiricaldispersion=gd3bj scf=xqc pop=npa geom=c
 heck
 ----------------------------------------------------------------------

 ------------------------------------
 CID_116754539_JID_5769_Energie_anion
 ------------------------------------
 Structure from the checkpoint file:  "JID_5769.chk"
 Charge = -1 Multiplicity = 2

                         Standard orientation:
 ---------------------------------------------------------------------
 Center     Atomic      Atomic             Coordinates (Angstroms)
 Number     Number       Type             X           Y           Z
 ---------------------------------------------------------------------
      1          6           0       -4.270680   -1.105883   -0.190295
      2          6           0       -3.063351   -0.176379   -0.330967
      3          6           0       -2.515669    0.252235    1.039131
      4          6           0       -1.274592    1.148332    0.918093
      5          6           0       -0.155338    0.511499    0.070214
      6          6           0       -0.725350    0.100372   -1.297180
      7          6           0       -1.949299   -0.817869   -1.173029
      8          6           0        0.480997   -0.670897    0.851402
      9          6           0        1.506165   -1.550653    0.086920
     10          6           0        2.831535   -0.892377   -0.246112
     11          6           0        3.789473   -0.784815    0.682066
     12          6           0        3.027389   -0.386110   -1.650972
     13          8           0        1.046930   -0.188894    2.059078
     14          8           0        0.959809    1.412920   -0.099120
     15          6           0        0.709919    2.745261   -0.499317
     16          1           0       -3.990359   -2.031028    0.329312
     17          1           0       -5.073574   -0.631252    0.385678
     18          1           0       -4.676857   -1.383785   -1.169928
     19          1           0       -3.388496    0.735145   -0.857970
     20          1           0       -3.293710    0.786863    1.598631
     21          1           0       -2.281539   -0.643412    1.630083
     22          1           0       -0.874007    1.390777    1.906476
     23          1           0       -1.581806    2.088658    0.444051
     24          1           0        0.053619   -0.366880   -1.905833
     25          1           0       -1.030557    1.010352   -1.830518
     26          1           0       -1.659576   -1.775810   -0.718100
     27          1           0       -2.330443   -1.058543   -2.173555
     28          1           0       -0.325791   -1.340905    1.158474
     29          1           0        1.694877   -2.403323    0.747825
     30          1           0        1.039569   -1.955024   -0.818797
     31          1           0        4.742662   -0.309840    0.462795
     32          1           0        3.652405   -1.170515    1.688336
     33          1           0        2.887903   -1.195161   -2.381266
     34          1           0        2.296228    0.394822   -1.881766
     35          1           0        4.030614    0.028404   -1.791710
     36          1           0        1.696648    0.478279    1.773245
     37          1           0        0.065493    2.806509   -1.386815
     38          1           0        0.260834    3.345483    0.302763
     39          1           0        1.684765    3.171684   -0.750796
 ---------------------------------------------------------------------

 SCF Done:  E(UB3LYP) =  -660.506265023     A.U. after   33 cycles
 SCF Done:  E(UB3LYP) =  -660.506265023     a.u. after    1 cycles

 The electronic state is 2-A.
 Alpha  occ. eigenvalues --  -19.02717 -19.02108 -10.13059 -10.12749 -10.11178
 Alpha  occ. eigenvalues --  -10.09035 -10.07815 -10.07338 -10.06800 -10.06777
 Alpha  occ. eigenvalues --  -10.06607 -10.06562 -10.06401 -10.06177 -10.06167
 Alpha  occ. eigenvalues --   -0.94708  -0.91948  -0.74259  -0.71887  -0.67922
 Alpha  occ. eigenvalues --   -0.64885  -0.63115  -0.60591  -0.59043  -0.56286
 Alpha  occ. eigenvalues --   -0.53716  -0.52049  -0.47929  -0.45401  -0.43290
 Alpha  occ. eigenvalues --   -0.40914  -0.40257  -0.37217  -0.36985  -0.36048
 Alpha  occ. eigenvalues --   -0.35093  -0.34639  -0.34396  -0.33685  -0.32159
 Alpha  occ. eigenvalues --   -0.31644  -0.31438  -0.30482  -0.29584  -0.28587
 Alpha  occ. eigenvalues --   -0.27957  -0.27353  -0.26850  -0.26002  -0.25165
 Alpha  occ. eigenvalues --   -0.24886  -0.23826  -0.23046  -0.21742  -0.20946
 Alpha  occ. eigenvalues --   -0.20227  -0.18013  -0.16113  -0.15509   0.04385
 Alpha virt. eigenvalues --    0.06392   0.06434   0.07493   0.08056   0.08490
 Alpha virt. eigenvalues --    0.08850   0.09156   0.09894   0.10193   0.10528
 Alpha virt. eigenvalues --    0.10923   0.10999   0.11969   0.12448   0.12679

  Beta  occ. eigenvalues --  -19.02704 -19.02106 -10.13060 -10.12746 -10.11142
  Beta  occ. eigenvalues --  -10.09032 -10.07807 -10.07324 -10.06788 -10.06758
  Beta  occ. eigenvalues --  -10.06588 -10.06541 -10.06389 -10.06159 -10.06152
  Beta  occ. eigenvalues --   -0.94690  -0.91936  -0.74232  -0.71873  -0.67897
  Beta  occ. eigenvalues --   -0.64854  -0.63093  -0.60546  -0.59014  -0.56229
  Beta  occ. eigenvalues --   -0.53687  -0.52001  -0.47880  -0.45362  -0.43266
  Beta  occ. eigenvalues --   -0.40873  -0.40233  -0.37196  -0.36968  -0.36028
  Beta  occ. eigenvalues --   -0.35064  -0.34594  -0.34370  -0.33656  -0.32132
  Beta  occ. eigenvalues --   -0.31617  -0.31414  -0.30444  -0.29564  -0.28560
  Beta  occ. eigenvalues --   -0.27938  -0.27327  -0.26831  -0.25970  -0.25146
  Beta  occ. eigenvalues --   -0.24848  -0.23782  -0.23015  -0.21704  -0.20919
  Beta  occ. eigenvalues --   -0.20198  -0.18003  -0.16092  -0.15491
  Beta virt. eigenvalues --    0.06401   0.06988   0.07088   0.08108   0.08407
  Beta virt. eigenvalues --    0.08837   0.09231   0.09483   0.10299   0.10457
  Beta virt. eigenvalues --    0.10773   0.11279   0.11488   0.12229   0.12629

 Mulliken charges and spin densities:
               1          2
     1  C    0.982999  -1.822484
     2  C   -0.432763   0.901256
     3  C    0.660133  -1.053682
     4  C   -0.950677   0.846194
     5  C   -0.285193  -0.227969
     6  C   -0.494658   0.579615
     7  C    0.343092  -1.040729
     8  C    0.240687  -0.676240
     9  C   -0.206768  -0.279795
    10  C   -0.546100   1.341757
    11  C   -0.100629  -0.577468
    12  C    0.511027  -1.277189
    13  O   -0.127606   0.014622
    14  O   -0.057911   0.018668
    15  C    1.103366  -1.328101
    16  H    0.044334   0.078748
    17  H   -0.153826   0.289879
    18  H   -0.206366   0.344806
    19  H   -0.289759   0.482718
    20  H   -0.205071   0.391813
    21  H    0.017699   0.131830
    22  H    0.080923   0.108066
    23  H   -0.001263   0.176379
    24  H   -0.245721   0.418416
    25  H    0.018648   0.132946
    26  H   -0.039254   0.198795
    27  H   -0.371252   0.550229
    28  H    0.381521  -0.157936
    29  H    0.029886   0.147089
    30  H    0.158099  -0.000994
    31  H   -0.050821   0.161762
    32  H    0.147765  -0.004486
    33  H   -0.154769   0.309627
    34  H   -0.070918   0.248358
    35  H   -0.062572   0.193548
    36  H    0.253564   0.004084
    37  H   -0.408322   0.570624
    38  H   -0.387271   0.535113
    39  H   -0.124250   0.270129
 Sum of Mulliken charges =  -1.00000   1.00000

 Dipole moment (field-independent basis, Debye):
    X=              3.1889    Y=             -3.2831    Z=              3.7708  Tot=              5.9301
 Quadrupole moment (field-independent basis, Debye-Ang):
   XX=           -169.2602   YY=           -142.3810   ZZ=           -142.9420
   XY=              2.1782   XZ=             -1.9750   YZ=              1.1664

 Summary of Natural Population Analysis:

                                       Natural Population
                Natural  -----------------------------------------------
    Atom  No    Charge         Core      Valence    Rydberg      Total
 -----------------------------------------------------------------------
      C    1   -0.28124      0.99965     2.27509    0.00650     3.28124
      C    2   -0.11254      0.99959     2.10312    0.00983     3.11254
      C    3   -0.18548      0.99961     2.17696    0.00892     3.18548
      C    4   -0.20708      0.99957     2.19733    0.01018     3.20708
      C    5    0.14248      0.99946     1.84062    0.01745     2.85752
      C    6   -0.20713      0.99956     2.19634    0.01122     3.20713
      C    7   -0.18658      0.99961     2.17727    0.00970     3.18658
      C    8    0.06364      0.99947     1.92217    0.01472     2.93636
      C    9   -0.21649      0.99955     2.20707    0.00986     3.21649
      C   10    0.00813      0.99953     1.98045    0.01190     2.99187
      C   11   -0.21186      0.99948     2.20472    0.00767     3.21186
      C   12   -0.30146      0.99960     2.29531    0.00656     3.30146
      O   13   -0.37438      0.99990     3.36852    0.00596     4.37438
      O   14   -0.32074      0.99987     3.30795    0.01293     4.32074
      C   15   -0.09748      0.99958     2.08859    0.00931     3.09748
      H   16    0.09359      0.00000     0.40549    0.00092     0.40641
      H   17    0.09926      0.00000     0.39979    0.00096     0.40074
      H   18    0.10063      0.00000     0.39838    0.00099     0.39937
      H   19    0.09514      0.00000     0.40233    0.00253     0.40486
      H   20    0.10180      0.00000     0.39728    0.00092     0.39820
      H   21    0.09169      0.00000     0.40703    0.00129     0.40831
      H   22    0.10960      0.00000     0.38923    0.00117     0.39040
      H   23    0.10178      0.00000     0.39635    0.00187     0.39822
      H   24    0.10389      0.00000     0.39455    0.00157     0.39611
      H   25    0.10282      0.00000     0.39491    0.00227     0.39718
      H   26    0.09044      0.00000     0.40810    0.00145     0.40956
      H   27    0.10391      0.00000     0.39478    0.00131     0.39609
      H   28    0.09143      0.00000     0.40678    0.00179     0.40857
      H   29    0.10578      0.00000     0.39325    0.00097     0.39422
      H   30    0.10443      0.00000     0.39432    0.00124     0.39557
      H   31    0.09136      0.00000     0.40776    0.00088     0.40864
      H   32    0.09543      0.00000     0.40359    0.00098     0.40457
      H   33    0.10037      0.00000     0.39851    0.00112     0.39963
      H   34    0.11266      0.00000     0.38538    0.00197     0.38734
      H   35    0.09936      0.00000     0.39969    0.00095     0.40064
      H   36    0.23618      0.00000     0.26072    0.00310     0.26382
      H   37    0.08341      0.00000     0.41484    0.00175     0.41659
      H   38    0.08167      0.00000     0.41695    0.00138     0.41833
      H   39    0.09160      0.00000     0.40728    0.00112     0.40840
 =======================================================================
   * Total *   -0.00000     14.99403    43.81880    0.18717    59.00000

 Normal termination of Gaussian 16 at Thu Dec 10 18:26:01 2020.
