 Gaussian 16, Revision A.03,

 -----------------------------------------------------------
 # opt freq B3LYP/6-31G(d) empiricaldispersion=gd3bj scf=xqc
 -----------------------------------------------------------

 ------------------------------
 CID_54483189_JID_3560_neutraal
 ------------------------------
 Symbolic Z-matrix:
 Charge =  0 Multiplicity = 1

 SCF Done:  E(RB3LYP) =  -1007.52361434     A.U. after   15 cycles
 SCF Done:  E(RB3LYP) =  -1007.53214853     A.U. after   13 cycles
 SCF Done:  E(RB3LYP) =  -1007.53333751     A.U. after   12 cycles
 SCF Done:  E(RB3LYP) =  -1007.53346822     A.U. after   10 cycles
 SCF Done:  E(RB3LYP) =  -1007.53348249     A.U. after    9 cycles
 SCF Done:  E(RB3LYP) =  -1007.53348465     A.U. after    8 cycles
 SCF Done:  E(RB3LYP) =  -1007.53348610     A.U. after    8 cycles
 SCF Done:  E(RB3LYP) =  -1007.53348694     A.U. after    8 cycles
 SCF Done:  E(RB3LYP) =  -1007.53348709     A.U. after    7 cycles
 SCF Done:  E(RB3LYP) =  -1007.53348714     A.U. after    7 cycles
 SCF Done:  E(RB3LYP) =  -1007.53348838     A.U. after    9 cycles
 SCF Done:  E(RB3LYP) =  -1007.53348893     A.U. after    9 cycles
 SCF Done:  E(RB3LYP) =  -1007.53348928     A.U. after    9 cycles
 SCF Done:  E(RB3LYP) =  -1007.53348936     A.U. after    7 cycles
 SCF Done:  E(RB3LYP) =  -1007.53348937     A.U. after    6 cycles
 SCF Done:  E(RB3LYP) =  -1007.53348937     A.U. after    6 cycles
 Optimization completed.
    -- Stationary point found.
 Normal termination of Gaussian 16 at Wed Dec  9 23:40:51 2020.

 --------------------------------------------------------------------
 #N Geom=AllCheck Guess=TCheck SCRF=Check GenChk RB3LYP/6-31G(d) Freq
 --------------------------------------------------------------------

 Structure from the checkpoint file:  "JID_3560.chk"
 ------------------------------
 CID_54483189_JID_3560_neutraal
 ------------------------------
 Charge =  0 Multiplicity = 1

 SCF Done:  E(RB3LYP) =  -1007.53348937     A.U. after    1 cycles

  Exact polarizability: 139.440  -3.221 121.703   0.249  -0.148  57.342
 Approx polarizability: 208.888  -7.920 219.995   0.284  -0.190 101.066

                      1                      2                      3
                      A                      A                      A
 Frequencies --     19.0439                80.7946               102.6343
 Red. masses --      1.0242                 6.2143                 6.9249
 Frc consts  --      0.0002                 0.0239                 0.0430
 IR Inten    --      0.2542                 0.1185                 0.8656

                      4                      5                      6
                      A                      A                      A
 Frequencies --    118.7309               187.8150               236.4095
 Red. masses --      8.5151                 5.6492                 4.6387
 Frc consts  --      0.0707                 0.1174                 0.1527
 IR Inten    --      1.1203                 1.2518                 0.9230

                      7                      8                      9
                      A                      A                      A
 Frequencies --    286.0647               311.6009               331.1403
 Red. masses --      6.1184                10.5100                 4.5386
 Frc consts  --      0.2950                 0.6012                 0.2932
 IR Inten    --      1.2782                10.1544                 2.3213

                     10                     11                     12
                      A                      A                      A
 Frequencies --    381.0960               400.2361               445.8177
 Red. masses --      5.8051                 8.2971                 3.3919
 Frc consts  --      0.4967                 0.7831                 0.3972
 IR Inten    --      8.0551                 4.1663                 8.2181

                     13                     14                     15
                      A                      A                      A
 Frequencies --    457.4507               508.8195               566.8333
 Red. masses --      6.3787                15.7639                 5.2998
 Frc consts  --      0.7865                 2.4046                 1.0033
 IR Inten    --     10.7228                53.7039                 4.0807

                     16                     17                     18
                      A                      A                      A
 Frequencies --    581.0797               600.5640               671.4193
 Red. masses --     13.1624                 9.0895                 6.4389
 Frc consts  --      2.6185                 1.9316                 1.7102
 IR Inten    --     67.1355                 5.9894                20.5940

                     19                     20                     21
                      A                      A                      A
 Frequencies --    675.4167               718.2604               755.5164
 Red. masses --      4.4361                 7.6945                 6.0308
 Frc consts  --      1.1923                 2.3388                 2.0282
 IR Inten    --     21.4239                15.2532                 7.4700

                     22                     23                     24
                      A                      A                      A
 Frequencies --    803.6540               853.2406               892.3366
 Red. masses --     11.4640                 1.3950                 1.5839
 Frc consts  --      4.3624                 0.5984                 0.7431
 IR Inten    --    113.0871                17.0680                 1.2565

                     25                     26                     27
                      A                      A                      A
 Frequencies --    893.8365               991.2392              1028.8619
 Red. masses --      3.0763                 1.3208                 1.6712
 Frc consts  --      1.4481                 0.7646                 1.0423
 IR Inten    --      4.9132                 0.2246                16.6004

                     28                     29                     30
                      A                      A                      A
 Frequencies --   1042.0757              1074.0528              1082.3880
 Red. masses --      4.6643                 1.6305                 2.9329
 Frc consts  --      2.9843                 1.1082                 2.0245
 IR Inten    --    141.3807                29.9689               102.6187

                     31                     32                     33
                      A                      A                      A
 Frequencies --   1164.8033              1175.0196              1244.5485
 Red. masses --      1.3897                 7.4535                 2.1134
 Frc consts  --      1.1109                 6.0632                 1.9286
 IR Inten    --     16.6869               179.7847                 0.7261

                     34                     35                     36
                      A                      A                      A
 Frequencies --   1261.2184              1308.4367              1372.1745
 Red. masses --      6.5467                 1.5063                20.7174
 Frc consts  --      6.1356                 1.5194                22.9828
 IR Inten    --    145.7431                12.0168               191.0732

                     37                     38                     39
                      A                      A                      A
 Frequencies --   1378.3178              1444.0181              1454.9553
 Red. masses --      7.2836                 1.2368                 2.8936
 Frc consts  --      8.1525                 1.5195                 3.6090
 IR Inten    --      1.4156                 0.8880                 2.1927

                     40                     41                     42
                      A                      A                      A
 Frequencies --   1514.0625              1520.9772              1533.6434
 Red. masses --      1.0537                 1.1424                 2.6926
 Frc consts  --      1.4231                 1.5571                 3.7314
 IR Inten    --      8.1857                 9.6244                 9.7933

                     43                     44                     45
                      A                      A                      A
 Frequencies --   1639.0487              1662.1275              1888.4338
 Red. masses --      6.7406                 6.5896                13.1212
 Frc consts  --     10.6692                10.7259                27.5694
 IR Inten    --     11.1877                41.8420               392.1905

                     46                     47                     48
                      A                      A                      A
 Frequencies --   3053.9332              3112.6053              3142.9215
 Red. masses --      1.0391                 1.0983                 1.1025
 Frc consts  --      5.7101                 6.2693                 6.4163
 IR Inten    --     12.1742                11.0189                10.3308

                     49                     50                     51
                      A                      A                      A
 Frequencies --   3199.8687              3217.3462              3230.5402
 Red. masses --      1.0897                 1.0919                 1.0938
 Frc consts  --      6.5741                 6.6595                 6.7259
 IR Inten    --      6.7370                 1.5257                 1.4547

 - Thermochemistry -
 -------------------
 Temperature   298.150 Kelvin.  Pressure   1.00000 Atm.
 Atom     1 has atomic number  6 and mass  12.00000

 Molecular mass:   197.99868 amu.
 Principal axes and moments of inertia in atomic units:
                           1         2         3
     Eigenvalues --  1571.636142899.310854092.53983
           X            0.99977  -0.02168   0.00023
           Y            0.02168   0.99977  -0.00022
           Z           -0.00023   0.00022   1.00000
 This molecule is an asymmetric top.
 Rotational symmetry number  1.
 Warning -- assumption of classical behavior for rotation
           may cause significant error
 Rotational temperatures (Kelvin)      0.05511     0.02987     0.02116
 Rotational constants (GHZ):           1.14832     0.62247     0.44098
 Zero-point vibrational energy     344628.8 (Joules/Mol)
                                   82.36825 (Kcal/Mol)
 Warning -- explicit consideration of  17 degrees of freedom as
           vibrations may cause significant error
 Vibrational temperatures:     27.40   116.25   147.67   170.83   270.22
          (Kelvin)            340.14   411.58   448.32   476.44   548.31
                              575.85   641.43   658.17   732.08   815.55
                              836.04   864.08   966.02   971.77  1033.42
                             1087.02  1156.28  1227.62  1283.87  1286.03
                             1426.17  1480.30  1499.31  1545.32  1557.31
                             1675.89  1690.59  1790.63  1814.61  1882.55
                             1974.25  1983.09  2077.62  2093.36  2178.40
                             2188.35  2206.57  2358.23  2391.43  2717.04
                             4393.93  4478.34  4521.96  4603.90  4629.04
                             4648.03

 Zero-point correction=                           0.131262 (Hartree/Particle)
 Thermal correction to Energy=                    0.142377
 Thermal correction to Enthalpy=                  0.143322
 Thermal correction to Gibbs Free Energy=         0.092677
 Sum of electronic and zero-point Energies=          -1007.402227
 Sum of electronic and thermal Energies=             -1007.391112
 Sum of electronic and thermal Enthalpies=           -1007.390168
 Sum of electronic and thermal Free Energies=        -1007.440813

                     E (Thermal)             CV                S
                      KCal/Mol        Cal/Mol-Kelvin    Cal/Mol-Kelvin
 Total                   89.343             41.370            106.592
 Electronic               0.000              0.000              0.000
 Translational            0.889              2.981             41.754
 Rotational               0.889              2.981             31.301
 Vibrational             87.566             35.409             33.537
 Vibration     1          0.593              1.986              6.731
 Vibration     2          0.600              1.962              3.871
 Vibration     3          0.605              1.947              3.404
 Vibration     4          0.609              1.934              3.121
 Vibration     5          0.632              1.857              2.249
 Vibration     6          0.655              1.785              1.830
 Vibration     7          0.684              1.700              1.497
 Vibration     8          0.700              1.652              1.354
 Vibration     9          0.714              1.613              1.255
 Vibration    10          0.751              1.510              1.035
 Vibration    11          0.766              1.470              0.962
 Vibration    12          0.805              1.370              0.809
 Vibration    13          0.816              1.344              0.774
 Vibration    14          0.864              1.230              0.636
 Vibration    15          0.923              1.103              0.510
 Vibration    16          0.938              1.072              0.483
 Vibration    17          0.959              1.031              0.449

 Optimization completed.
    -- Stationary point found.
 Normal termination of Gaussian 16 at Wed Dec  9 23:45:08 2020.

 ----------------------------------------------------------------------
 # B3LYP/6-311++G(d,p) empiricaldispersion=gd3bj scf=xqc pop=npa geom=c
 heck
 ----------------------------------------------------------------------

 --------------------------------------
 CID_54483189_JID_3560_Energie_neutraal
 --------------------------------------
 Structure from the checkpoint file:  "JID_3560.chk"
 Charge =  0 Multiplicity = 1

 SCF Done:  E(RB3LYP) =  -1007.72599146     A.U. after   15 cycles
 Normal termination of Gaussian 16 at Wed Dec  9 23:46:52 2020.

 ----------------------------------------------------------------------
 # B3LYP/6-311++G(d,p) empiricaldispersion=gd3bj scf=xqc pop=npa geom=c
 heck
 ----------------------------------------------------------------------

 ------------------------------------
 CID_54483189_JID_3560_Energie_kation
 ------------------------------------
 Structure from the checkpoint file:  "JID_3560.chk"
 Charge =  1 Multiplicity = 2

 SCF Done:  E(UB3LYP) =  -1007.35468719     A.U. after   32 cycles
 Normal termination of Gaussian 16 at Wed Dec  9 23:52:03 2020.
 Gaussian 16:  ES64L-G16RevA.03 25-Dec-2016

 ----------------------------------------------------------------------
 # B3LYP/6-311++G(d,p) empiricaldispersion=gd3bj scf=xqc pop=npa geom=c
 heck
 ----------------------------------------------------------------------

 -----------------------------------
 CID_54483189_JID_3560_Energie_anion
 -----------------------------------
 Structure from the checkpoint file:  "JID_3560.chk"
 Charge = -1 Multiplicity = 2

                         Standard orientation:
 ---------------------------------------------------------------------
 Center     Atomic      Atomic             Coordinates (Angstroms)
 Number     Number       Type             X           Y           Z
 ---------------------------------------------------------------------
      1          6           0        3.897020   -1.005354    0.009152
      2          6           0        2.564396   -0.301213   -0.007486
      3          6           0        1.369867   -1.036057   -0.006104
      4          6           0        0.175329   -0.333896   -0.000584
      5          6           0        0.116171    1.053500    0.001206
      6          6           0        1.296273    1.794527   -0.002612
      7          6           0        2.506246    1.105968   -0.007845
      8          6           0       -1.264308    1.587014    0.003180
      9          8           0       -1.621073    2.731246    0.004886
     10          8           0       -2.188469    0.540102    0.003259
     11         16           0       -1.474765   -1.001980   -0.000470
     12          8           0       -1.795854   -1.634814   -1.269068
     13          8           0       -1.793642   -1.639560    1.266304
     14          1           0        4.592831   -0.552088   -0.704585
     15          1           0        3.793660   -2.065210   -0.238488
     16          1           0        4.358408   -0.937531    1.002194
     17          1           0        1.385501   -2.121065   -0.010141
     18          1           0        1.255237    2.878517   -0.004253
     19          1           0        3.436951    1.666331   -0.013687
 ---------------------------------------------------------------------

 SCF Done:  E(UB3LYP) =  -1007.76443393     A.U. after   23 cycles

 The electronic state is 2-A.
 Alpha  occ. eigenvalues --  -88.95040 -19.03818 -19.00610 -19.00607 -18.95586
 Alpha  occ. eigenvalues --  -10.14126 -10.06404 -10.06271 -10.06186 -10.05192
 Alpha  occ. eigenvalues --  -10.04901 -10.04821 -10.03938  -8.01170  -5.97581
 Alpha  occ. eigenvalues --   -5.97357  -5.97187  -1.02124  -0.94393  -0.89983
 Alpha  occ. eigenvalues --   -0.87839  -0.74522  -0.66969  -0.63992  -0.58670
 Alpha  occ. eigenvalues --   -0.56518  -0.50524  -0.47905  -0.44798  -0.40039
 Alpha  occ. eigenvalues --   -0.37745  -0.35809  -0.35674  -0.33012  -0.32079
 Alpha  occ. eigenvalues --   -0.31664  -0.30809  -0.30379  -0.29055  -0.26966
 Alpha  occ. eigenvalues --   -0.25695  -0.25092  -0.23834  -0.22817  -0.22276
 Alpha  occ. eigenvalues --   -0.20970  -0.19296  -0.17568  -0.14195  -0.13932
 Alpha  occ. eigenvalues --   -0.13452   0.02550
 Alpha virt. eigenvalues --    0.07637   0.09293   0.09676   0.10609   0.10842
 Alpha virt. eigenvalues --    0.12628   0.13217   0.14642   0.14836   0.15969
 Alpha virt. eigenvalues --    0.16328   0.16631   0.16915   0.17423   0.17565

  Beta  occ. eigenvalues --  -88.95043 -19.03797 -19.00569 -19.00565 -18.95161
  Beta  occ. eigenvalues --  -10.13867 -10.06331 -10.06306 -10.06078 -10.05130
  Beta  occ. eigenvalues --  -10.04810 -10.04464 -10.03675  -8.01173  -5.97583
  Beta  occ. eigenvalues --   -5.97350  -5.97197  -1.02024  -0.94048  -0.89882
  Beta  occ. eigenvalues --   -0.87322  -0.74053  -0.66372  -0.63635  -0.58427
  Beta  occ. eigenvalues --   -0.56194  -0.50338  -0.47365  -0.44456  -0.39915
  Beta  occ. eigenvalues --   -0.37452  -0.35483  -0.35471  -0.32730  -0.31971
  Beta  occ. eigenvalues --   -0.31178  -0.30001  -0.29709  -0.28897  -0.26853
  Beta  occ. eigenvalues --   -0.25505  -0.24312  -0.23686  -0.22651  -0.21323
  Beta  occ. eigenvalues --   -0.20602  -0.19076  -0.16813  -0.13501  -0.13288
  Beta  occ. eigenvalues --   -0.11387
  Beta virt. eigenvalues --    0.07585   0.09003   0.09583   0.09648   0.10601
  Beta virt. eigenvalues --    0.11163   0.12567   0.13211   0.14612   0.14855
  Beta virt. eigenvalues --    0.15950   0.16504   0.16889   0.17405   0.17549

 Mulliken charges and spin densities:
               1          2
     1  C   -0.369905  -0.037427
     2  C    0.806722   0.265381
     3  C   -0.461529  -0.097342
     4  C   -1.564414   0.201164
     5  C    1.445429   0.156167
     6  C   -0.549550   0.098081
     7  C   -0.883834   0.021752
     8  C   -0.270238   0.156825
     9  O   -0.390674   0.146529
    10  O   -0.201865  -0.004018
    11  S    0.955722   0.009140
    12  O   -0.129433   0.013996
    13  O   -0.125478   0.012482
    14  H    0.111828   0.018247
    15  H    0.122288   0.001503
    16  H    0.120217   0.039099
    17  H    0.128664   0.006002
    18  H    0.156433  -0.003045
    19  H    0.099617  -0.004536
 Sum of Mulliken charges =  -1.00000   1.00000

 Dipole moment (field-independent basis, Debye):
    X=              5.1645    Y=             -2.0288    Z=             -0.0325  Tot=              5.5488
 Quadrupole moment (field-independent basis, Debye-Ang):
   XX=           -108.7254   YY=           -106.1121   ZZ=            -93.8685
   XY=              1.9244   XZ=             -0.1967   YZ=              0.0373

 Summary of Natural Population Analysis:

                                       Natural Population
                Natural  -----------------------------------------------
    Atom  No    Charge         Core      Valence    Rydberg      Total
 -----------------------------------------------------------------------
      C    1   -0.29376      0.99965     2.28975    0.00436     3.29376
      C    2    0.05992      0.99954     1.93224    0.00831     2.94008
      C    3   -0.13335      0.99948     2.12381    0.01006     3.13335
      C    4   -0.05851      0.99932     2.04708    0.01211     3.05851
      C    5   -0.04024      0.99940     2.03213    0.00871     3.04024
      C    6   -0.06202      0.99954     2.05316    0.00931     3.06202
      C    7   -0.10280      0.99954     2.09471    0.00855     3.10280
      C    8    0.42807      0.99963     1.54715    0.02515     2.57193
      O    9   -0.25167      0.99986     3.24529    0.00653     4.25167
      O   10   -0.36905      0.99988     3.35877    0.01041     4.36905
      S   11    1.12059      4.99924     1.77936    0.10081     6.87941
      O   12   -0.44457      0.99990     3.43891    0.00576     4.44457
      O   13   -0.44462      0.99990     3.43897    0.00576     4.44462
      H   14    0.09930      0.00000     0.39979    0.00091     0.40070
      H   15    0.09671      0.00000     0.40246    0.00083     0.40329
      H   16    0.10218      0.00000     0.39687    0.00096     0.39782
      H   17    0.10006      0.00000     0.39872    0.00122     0.39994
      H   18    0.10295      0.00000     0.39584    0.00120     0.39705
      H   19    0.09080      0.00000     0.40822    0.00098     0.40920
 =======================================================================
   * Total *   -0.00000     16.99488    33.78320    0.22191    51.00000

 Normal termination of Gaussian 16 at Wed Dec  9 23:55:49 2020.
