 Gaussian 16, Revision A.03,

 -----------------------------------------------------------
 # opt freq B3LYP/6-31G(d) empiricaldispersion=gd3bj scf=xqc
 -----------------------------------------------------------

 ------------------------------
 CID_61465447_JID_5239_neutraal
 ------------------------------
 Symbolic Z-matrix:
 Charge =  0 Multiplicity = 1

 SCF Done:  E(RB3LYP) =  -1068.47117131     A.U. after   14 cycles
 SCF Done:  E(RB3LYP) =  -1068.47704795     A.U. after   11 cycles
 SCF Done:  E(RB3LYP) =  -1068.47804812     A.U. after   11 cycles
 SCF Done:  E(RB3LYP) =  -1068.47834631     A.U. after   11 cycles
 SCF Done:  E(RB3LYP) =  -1068.47855922     A.U. after   12 cycles
 SCF Done:  E(RB3LYP) =  -1068.47886636     A.U. after   11 cycles
 SCF Done:  E(RB3LYP) =  -1068.47923749     A.U. after   12 cycles
 SCF Done:  E(RB3LYP) =  -1068.47934757     A.U. after   11 cycles
 SCF Done:  E(RB3LYP) =  -1068.47941542     A.U. after   11 cycles
 SCF Done:  E(RB3LYP) =  -1068.47944818     A.U. after   10 cycles
 SCF Done:  E(RB3LYP) =  -1068.47945910     A.U. after    9 cycles
 SCF Done:  E(RB3LYP) =  -1068.47946157     A.U. after    8 cycles
 SCF Done:  E(RB3LYP) =  -1068.47946182     A.U. after    7 cycles
 SCF Done:  E(RB3LYP) =  -1068.47946206     A.U. after    7 cycles
 SCF Done:  E(RB3LYP) =  -1068.47946213     A.U. after    7 cycles
 SCF Done:  E(RB3LYP) =  -1068.47946216     A.U. after    6 cycles
 Optimization completed.
    -- Stationary point found.
 Normal termination of Gaussian 16 at Thu Dec 10 14:58:07 2020.

 --------------------------------------------------------------------
 #N Geom=AllCheck Guess=TCheck SCRF=Check GenChk RB3LYP/6-31G(d) Freq
 --------------------------------------------------------------------

 Structure from the checkpoint file:  "JID_5239.chk"
 ------------------------------
 CID_61465447_JID_5239_neutraal
 ------------------------------
 Charge =  0 Multiplicity = 1

 SCF Done:  E(RB3LYP) =  -1068.47946216     A.U. after    1 cycles

  Exact polarizability: 153.243   2.381 134.974   0.065   0.436 117.875
 Approx polarizability: 189.304   1.085 188.680  -2.898  -0.114 192.040

                      1                      2                      3
                      A                      A                      A
 Frequencies --     23.8281                34.7833                42.0983
 Red. masses --      3.2842                 3.4545                 4.5419
 Frc consts  --      0.0011                 0.0025                 0.0047
 IR Inten    --      0.1962                 0.9152                 0.3929

                      4                      5                      6
                      A                      A                      A
 Frequencies --     59.3966                71.1932               110.3612
 Red. masses --      3.5092                 3.7884                 2.6382
 Frc consts  --      0.0073                 0.0113                 0.0189
 IR Inten    --      0.4056                 2.0084                 2.3116

                      7                      8                      9
                      A                      A                      A
 Frequencies --    112.7475               158.4913               171.9827
 Red. masses --      2.5911                 4.6332                 3.6457
 Frc consts  --      0.0194                 0.0686                 0.0635
 IR Inten    --      6.8031                 1.5433                 0.9982

                     10                     11                     12
                      A                      A                      A
 Frequencies --    203.5770               233.8758               251.1613
 Red. masses --      2.2491                 2.0350                 1.2863
 Frc consts  --      0.0549                 0.0656                 0.0478
 IR Inten    --     14.6720                18.3097                 0.3124

                     13                     14                     15
                      A                      A                      A
 Frequencies --    271.4551               290.0919               293.1392
 Red. masses --      3.3231                 1.7083                 2.0801
 Frc consts  --      0.1443                 0.0847                 0.1053
 IR Inten    --      1.1760                18.1177                 5.3385

                     16                     17                     18
                      A                      A                      A
 Frequencies --    343.8654               345.3933               379.5811
 Red. masses --      2.7881                 2.7237                 2.5567
 Frc consts  --      0.1942                 0.1914                 0.2170
 IR Inten    --     11.6087                 2.0642                12.7299

                     19                     20                     21
                      A                      A                      A
 Frequencies --    398.7487               429.1281               440.6790
 Red. masses --      2.3318                 2.6970                 2.7171
 Frc consts  --      0.2184                 0.2926                 0.3109
 IR Inten    --      6.7608                 6.0990                22.8923

                     22                     23                     24
                      A                      A                      A
 Frequencies --    490.0998               511.5683               569.0294
 Red. masses --      3.9548                 2.9826                 3.9970
 Frc consts  --      0.5597                 0.4599                 0.7625
 IR Inten    --     14.6956                12.3969                12.1883

                     25                     26                     27
                      A                      A                      A
 Frequencies --    597.4914               640.2014               678.2978
 Red. masses --      3.3380                 1.9521                 3.2281
 Frc consts  --      0.7021                 0.4714                 0.8751
 IR Inten    --     27.9298                72.0527                39.4350

                     28                     29                     30
                      A                      A                      A
 Frequencies --    735.9837               773.9910               809.0713
 Red. masses --      2.7743                 1.9071                 2.1029
 Frc consts  --      0.8854                 0.6731                 0.8110
 IR Inten    --     20.6105                13.5676                 3.1838

                     31                     32                     33
                      A                      A                      A
 Frequencies --    815.3688               872.0807               874.1839
 Red. masses --      1.4500                 1.3321                 2.6526
 Frc consts  --      0.5680                 0.5969                 1.1943
 IR Inten    --      1.1917               132.1662                24.7394

                     34                     35                     36
                      A                      A                      A
 Frequencies --    892.5325               905.0170               927.1868
 Red. masses --      3.1450                 2.2053                 2.1019
 Frc consts  --      1.4761                 1.0642                 1.0646
 IR Inten    --     52.1986                17.2145                85.7243

                     37                     38                     39
                      A                      A                      A
 Frequencies --    951.7938               960.0665               994.6947
 Red. masses --      2.1471                 1.7115                 1.7032
 Frc consts  --      1.1460                 0.9295                 0.9929
 IR Inten    --      2.4806                 4.1578                 3.2592

                     40                     41                     42
                      A                      A                      A
 Frequencies --    996.9932              1013.1088              1064.0984
 Red. masses --      2.1285                 2.2840                 2.0303
 Frc consts  --      1.2465                 1.3812                 1.3545
 IR Inten    --     14.3558                34.5139                14.8136

                     43                     44                     45
                      A                      A                      A
 Frequencies --   1083.7122              1084.6844              1092.3339
 Red. masses --      2.2151                 1.6783                 1.6825
 Frc consts  --      1.5327                 1.1634                 1.1828
 IR Inten    --     13.9004                21.9324                 2.9450

                     46                     47                     48
                      A                      A                      A
 Frequencies --   1108.0737              1129.4408              1135.4441
 Red. masses --      3.1250                 2.3844                 1.8115
 Frc consts  --      2.2607                 1.7921                 1.3760
 IR Inten    --     92.2842                66.7597                 8.9776

                     49                     50                     51
                      A                      A                      A
 Frequencies --   1157.7611              1160.0479              1193.9889
 Red. masses --      1.3229                 1.3244                 2.0504
 Frc consts  --      1.0447                 1.0500                 1.7222
 IR Inten    --      3.8696                10.1242                24.1931

                     52                     53                     54
                      A                      A                      A
 Frequencies --   1221.6756              1224.1051              1232.9994
 Red. masses --      1.2209                 1.4225                 1.3319
 Frc consts  --      1.0736                 1.2558                 1.1930
 IR Inten    --      5.0231                 2.7010                 1.3220

                     55                     56                     57
                      A                      A                      A
 Frequencies --   1243.5096              1264.3618              1271.8418
 Red. masses --      1.4846                 2.0006                 1.7120
 Frc consts  --      1.3526                 1.8843                 1.6317
 IR Inten    --     41.8906                12.6601                 9.6031

                     58                     59                     60
                      A                      A                      A
 Frequencies --   1295.2473              1302.5748              1319.7276
 Red. masses --      1.5156                 2.2162                 1.3548
 Frc consts  --      1.4981                 2.2155                 1.3902
 IR Inten    --      7.7848               105.3403                17.2392

                     61                     62                     63
                      A                      A                      A
 Frequencies --   1333.0401              1344.7576              1350.5315
 Red. masses --      1.3427                 1.6516                 1.4801
 Frc consts  --      1.4058                 1.7597                 1.5906
 IR Inten    --      2.4121                68.8134                21.4700

                     64                     65                     66
                      A                      A                      A
 Frequencies --   1365.7327              1376.8750              1402.5128
 Red. masses --      1.1581                 1.5657                 1.4096
 Frc consts  --      1.2727                 1.7488                 1.6337
 IR Inten    --      0.3175                 3.0632                 5.7493

                     67                     68                     69
                      A                      A                      A
 Frequencies --   1405.4197              1412.8594              1446.3735
 Red. masses --      1.5498                 1.4275                 1.4341
 Frc consts  --      1.8036                 1.6790                 1.7676
 IR Inten    --     22.0177                 2.3032                14.4092

                     70                     71                     72
                      A                      A                      A
 Frequencies --   1452.3512              1482.2797              1483.3180
 Red. masses --      1.3113                 1.1796                 1.0961
 Frc consts  --      1.6297                 1.5271                 1.4209
 IR Inten    --     87.6291                 2.6322                 3.9383

                     73                     74                     75
                      A                      A                      A
 Frequencies --   1507.2371              1517.7764              1519.5967
 Red. masses --      1.0828                 1.0514                 1.0898
 Frc consts  --      1.4494                 1.4270                 1.4827
 IR Inten    --      4.8652                16.3007                 6.9124

                     76                     77                     78
                      A                      A                      A
 Frequencies --   1525.7093              1529.7651              1534.5824
 Red. masses --      1.0787                 1.0744                 1.0665
 Frc consts  --      1.4794                 1.4813                 1.4797
 IR Inten    --      4.2888                 4.7829                 1.3100

                     79                     80                     81
                      A                      A                      A
 Frequencies --   1547.2974              1558.3707              1701.7762
 Red. masses --      1.0831                 1.1002                 1.0879
 Frc consts  --      1.5278                 1.5743                 1.8563
 IR Inten    --      4.3959                 5.6751                29.8254

                     82                     83                     84
                      A                      A                      A
 Frequencies --   2924.5324              2941.0855              2950.5523
 Red. masses --      1.0728                 1.0656                 1.0702
 Frc consts  --      5.4059                 5.4306                 5.4895
 IR Inten    --     49.3873                31.4708               180.6428

                     85                     86                     87
                      A                      A                      A
 Frequencies --   2970.8845              3052.4248              3063.9178
 Red. masses --      1.0726                 1.0677                 1.0706
 Frc consts  --      5.5776                 5.8613                 5.9213
 IR Inten    --     99.0890                17.8787                13.3377

                     88                     89                     90
                      A                      A                      A
 Frequencies --   3077.7319              3081.1464              3082.2013
 Red. masses --      1.0814                 1.0717                 1.0601
 Frc consts  --      6.0352                 5.9942                 5.9336
 IR Inten    --     51.2091                37.2983                 1.4926

                     91                     92                     93
                      A                      A                      A
 Frequencies --   3086.4253              3092.4557              3106.5199
 Red. masses --      1.0878                 1.0700                 1.0954
 Frc consts  --      6.1055                 6.0292                 6.2283
 IR Inten    --     37.7235                20.9609                10.5323

                     94                     95                     96
                      A                      A                      A
 Frequencies --   3110.5718              3120.2579              3124.4016
 Red. masses --      1.0891                 1.1007                 1.1043
 Frc consts  --      6.2084                 6.3137                 6.3514
 IR Inten    --     21.3823                33.7126                24.6187

                     97                     98                     99
                      A                      A                      A
 Frequencies --   3127.2381              3134.3917              3163.1783
 Red. masses --      1.0870                 1.1051                 1.0984
 Frc consts  --      6.2634                 6.3970                 6.4753
 IR Inten    --     23.5907                 9.3529                 8.0031

                    100                    101                    102
                      A                      A                      A
 Frequencies --   3468.6586              3519.8403              3550.8570
 Red. masses --      1.0500                 1.0746                 1.0920
 Frc consts  --      7.4430                 7.8438                 8.1120
 IR Inten    --      1.9740                48.4508                 0.9509

 - Thermochemistry -
 -------------------
 Temperature   298.150 Kelvin.  Pressure   1.00000 Atm.
 Atom     1 has atomic number  6 and mass  12.00000

 Molecular mass:   235.13545 amu.
 Principal axes and moments of inertia in atomic units:
                           1         2         3
     Eigenvalues --  2631.674295026.750826595.89237
           X            0.99999  -0.00352   0.00363
           Y            0.00349   0.99997   0.00742
           Z           -0.00365  -0.00741   0.99997
 This molecule is an asymmetric top.
 Rotational symmetry number  1.
 Warning -- assumption of classical behavior for rotation
           may cause significant error
 Rotational temperatures (Kelvin)      0.03291     0.01723     0.01313
 Rotational constants (GHZ):           0.68578     0.35903     0.27362
 Zero-point vibrational energy     836234.0 (Joules/Mol)
                                  199.86472 (Kcal/Mol)
 Warning -- explicit consideration of  25 degrees of freedom as
           vibrations may cause significant error
 Vibrational temperatures:     34.28    50.05    60.57    85.46   102.43
          (Kelvin)            158.79   162.22   228.03   247.44   292.90
                              336.50   361.37   390.56   417.38   421.76
                              494.75   496.94   546.13   573.71   617.42
                              634.04   705.14   736.03   818.71   859.66
                              921.11   975.92  1058.92  1113.60  1164.07
                             1173.13  1254.73  1257.76  1284.16  1302.12
                             1334.01  1369.42  1381.32  1431.14  1434.45
                             1457.64  1531.00  1559.22  1560.62  1571.62
                             1594.27  1625.01  1633.65  1665.76  1669.05
                             1717.88  1757.72  1761.21  1774.01  1789.13
                             1819.13  1829.90  1863.57  1874.11  1898.79
                             1917.95  1934.81  1943.11  1964.98  1981.02
                             2017.90  2022.09  2032.79  2081.01  2089.61
                             2132.67  2134.16  2168.58  2183.74  2186.36
                             2195.16  2200.99  2207.92  2226.22  2242.15
                             2448.48  4207.75  4231.57  4245.19  4274.44
                             4391.76  4408.29  4428.17  4433.08  4434.60
                             4440.68  4449.35  4469.59  4475.42  4489.36
                             4495.32  4499.40  4509.69  4551.11  4990.63
                             5064.27  5108.89

 Zero-point correction=                           0.318505 (Hartree/Particle)
 Thermal correction to Energy=                    0.335343
 Thermal correction to Enthalpy=                  0.336287
 Thermal correction to Gibbs Free Energy=         0.272296
 Sum of electronic and zero-point Energies=          -1068.160957
 Sum of electronic and thermal Energies=             -1068.144119
 Sum of electronic and thermal Enthalpies=           -1068.143175
 Sum of electronic and thermal Free Energies=        -1068.207166

                     E (Thermal)             CV                S
                      KCal/Mol        Cal/Mol-Kelvin    Cal/Mol-Kelvin
 Total                  210.431             62.627            134.680
 Electronic               0.000              0.000              0.000
 Translational            0.889              2.981             42.267
 Rotational               0.889              2.981             32.834
 Vibrational            208.653             56.666             59.579
 Vibration     1          0.593              1.985              6.286
 Vibration     2          0.594              1.983              5.536
 Vibration     3          0.595              1.980              5.158
 Vibration     4          0.597              1.974              4.477
 Vibration     5          0.598              1.968              4.120
 Vibration     6          0.606              1.941              3.263
 Vibration     7          0.607              1.939              3.221
 Vibration     8          0.621              1.893              2.568
 Vibration     9          0.626              1.877              2.414
 Vibration    10          0.639              1.835              2.101
 Vibration    11          0.654              1.789              1.849
 Vibration    12          0.663              1.761              1.722
 Vibration    13          0.675              1.726              1.587
 Vibration    14          0.686              1.692              1.473
 Vibration    15          0.688              1.687              1.456
 Vibration    16          0.723              1.588              1.194
 Vibration    17          0.724              1.585              1.187
 Vibration    18          0.750              1.514              1.041
 Vibration    19          0.765              1.473              0.967
 Vibration    20          0.790              1.407              0.862
 Vibration    21          0.801              1.381              0.824
 Vibration    22          0.846              1.272              0.683
 Vibration    23          0.867              1.224              0.630
 Vibration    24          0.925              1.098              0.506
 Vibration    25          0.955              1.037              0.454

                           ! Non-Optimized Parameters !
 Normal termination of Gaussian 16 at Thu Dec 10 15:11:40 2020.

 ----------------------------------------------------------------------
 # B3LYP/6-311++G(d,p) empiricaldispersion=gd3bj scf=xqc pop=npa geom=c
 heck
 ----------------------------------------------------------------------

 --------------------------------------
 CID_61465447_JID_5239_Energie_neutraal
 --------------------------------------
 Structure from the checkpoint file:  "JID_5239.chk"
 Charge =  0 Multiplicity = 1

 SCF Done:  E(RB3LYP) =  -1068.71012139     A.U. after   14 cycles
 Normal termination of Gaussian 16 at Thu Dec 10 15:18:24 2020.

 ----------------------------------------------------------------------
 # B3LYP/6-311++G(d,p) empiricaldispersion=gd3bj scf=xqc pop=npa geom=c
 heck
 ----------------------------------------------------------------------

 ------------------------------------
 CID_61465447_JID_5239_Energie_kation
 ------------------------------------
 Structure from the checkpoint file:  "JID_5239.chk"
 Charge =  1 Multiplicity = 2

 SCF Done:  E(UB3LYP) =  -1068.40933388     A.U. after   24 cycles
 Normal termination of Gaussian 16 at Thu Dec 10 15:35:14 2020.
 Gaussian 16:  ES64L-G16RevA.03 25-Dec-2016

 ----------------------------------------------------------------------
 # B3LYP/6-311++G(d,p) empiricaldispersion=gd3bj scf=xqc pop=npa geom=c
 heck
 ----------------------------------------------------------------------

 -----------------------------------
 CID_61465447_JID_5239_Energie_anion
 -----------------------------------
 Structure from the checkpoint file:  "JID_5239.chk"
 Charge = -1 Multiplicity = 2

                         Standard orientation:
 ---------------------------------------------------------------------
 Center     Atomic      Atomic             Coordinates (Angstroms)
 Number     Number       Type             X           Y           Z
 ---------------------------------------------------------------------
      1          6           0        3.787153    1.933048    0.913839
      2          7           0        2.888705    0.887511    0.469435
      3          6           0        3.562343   -0.300037   -0.073911
      4          6           0        2.469989   -1.023231   -0.901179
      5          6           0        1.261098   -0.051938   -0.870265
      6          6           0        1.936314    1.287044   -0.562613
      7          7           0        0.308950   -0.305315    0.223468
      8         16           0       -0.726432   -1.629368    0.137638
      9          8           0       -0.265513   -2.563769   -0.899380
     10          8           0       -0.932336   -2.067171    1.523717
     11          6           0       -2.269168   -0.910148   -0.487852
     12          6           0       -3.074449   -0.112226    0.539496
     13          6           0       -2.465267    1.217375    1.007360
     14          6           0       -2.144272    2.201561   -0.119259
     15          7           0       -3.348285    2.536644   -0.891954
     16          1           0        4.437264    1.548321    1.706716
     17          1           0        4.430964    2.318859    0.099357
     18          1           0        3.210892    2.769809    1.322448
     19          1           0        4.410183   -0.013291   -0.723764
     20          1           0        3.965502   -0.908767    0.742194
     21          1           0        2.193521   -1.999545   -0.503132
     22          1           0        2.801154   -1.176659   -1.932491
     23          1           0        0.703702   -0.045305   -1.808787
     24          1           0        1.238447    2.041570   -0.188112
     25          1           0        2.432570    1.683068   -1.471554
     26          1           0        0.764327   -0.285308    1.135203
     27          1           0       -1.987189   -0.326501   -1.369882
     28          1           0       -2.830571   -1.783909   -0.833213
     29          1           0       -4.057857    0.081615    0.092272
     30          1           0       -3.251139   -0.755708    1.407251
     31          1           0       -3.184062    1.691297    1.685612
     32          1           0       -1.551293    1.025626    1.577318
     33          1           0       -1.772208    3.130527    0.328639
     34          1           0       -1.317124    1.800088   -0.730406
     35          1           0       -3.141135    3.295546   -1.538655
     36          1           0       -3.618273    1.745516   -1.474261
 ---------------------------------------------------------------------

 SCF Done:  E(UB3LYP) =  -1068.70306653     A.U. after   28 cycles

 The electronic state is 2-A.
 Alpha  occ. eigenvalues --  -88.96810 -19.02624 -19.02363 -14.24575 -14.22102
 Alpha  occ. eigenvalues --  -14.19251 -10.12689 -10.11771 -10.10582 -10.10489
 Alpha  occ. eigenvalues --  -10.10029 -10.09148 -10.08948 -10.07962 -10.07165
 Alpha  occ. eigenvalues --   -8.03027  -5.99322  -5.99282  -5.99071  -1.02572
 Alpha  occ. eigenvalues --   -0.91696  -0.86330  -0.82317  -0.78456  -0.72088
 Alpha  occ. eigenvalues --   -0.69047  -0.64875  -0.63898  -0.59228  -0.57504
 Alpha  occ. eigenvalues --   -0.53140  -0.50348  -0.49151  -0.47581  -0.44209
 Alpha  occ. eigenvalues --   -0.41869  -0.41142  -0.39847  -0.39347  -0.38567
 Alpha  occ. eigenvalues --   -0.37576  -0.35983  -0.35701  -0.34961  -0.33374
 Alpha  occ. eigenvalues --   -0.32840  -0.31282  -0.30880  -0.30340  -0.29755
 Alpha  occ. eigenvalues --   -0.28081  -0.27667  -0.26235  -0.26153  -0.25910
 Alpha  occ. eigenvalues --   -0.25241  -0.25090  -0.24147  -0.22936  -0.21938
 Alpha  occ. eigenvalues --   -0.20737  -0.18121  -0.14540  -0.13676   0.03867
 Alpha virt. eigenvalues --    0.05730   0.07104   0.07346   0.08230   0.08302
 Alpha virt. eigenvalues --    0.08899   0.10021   0.10104   0.10767   0.10894
 Alpha virt. eigenvalues --    0.11044   0.11455   0.11824   0.13081   0.13434

  Beta  occ. eigenvalues --  -88.96809 -19.02617 -19.02361 -14.24570 -14.22090
  Beta  occ. eigenvalues --  -14.19199 -10.12675 -10.11740 -10.10566 -10.10463
  Beta  occ. eigenvalues --  -10.10000 -10.09122 -10.08937 -10.07955 -10.07163
  Beta  occ. eigenvalues --   -8.03024  -5.99320  -5.99280  -5.99070  -1.02560
  Beta  occ. eigenvalues --   -0.91684  -0.86309  -0.82301  -0.78373  -0.72050
  Beta  occ. eigenvalues --   -0.69018  -0.64833  -0.63855  -0.59175  -0.57450
  Beta  occ. eigenvalues --   -0.53095  -0.50317  -0.49080  -0.47534  -0.44173
  Beta  occ. eigenvalues --   -0.41836  -0.41114  -0.39808  -0.39308  -0.38531
  Beta  occ. eigenvalues --   -0.37536  -0.35965  -0.35658  -0.34923  -0.33338
  Beta  occ. eigenvalues --   -0.32792  -0.31245  -0.30842  -0.30301  -0.29723
  Beta  occ. eigenvalues --   -0.28043  -0.27638  -0.26217  -0.26130  -0.25880
  Beta  occ. eigenvalues --   -0.25214  -0.25073  -0.24120  -0.22926  -0.21928
  Beta  occ. eigenvalues --   -0.20720  -0.18108  -0.14488  -0.13603
  Beta virt. eigenvalues --    0.06077   0.06737   0.07573   0.07967   0.08405
  Beta virt. eigenvalues --    0.08760   0.09200   0.10387   0.10470   0.11049
  Beta virt. eigenvalues --    0.11110   0.11261   0.11569   0.12145   0.13317

 Mulliken charges and spin densities:
               1          2
     1  C    0.518344  -0.804674
     2  N   -0.056454   0.187810
     3  C   -0.243991  -0.120655
     4  C    0.597938  -0.991236
     5  C   -1.570114   1.291500
     6  C    0.782337  -1.432470
     7  N   -0.084684  -0.082025
     8  S    0.299170   0.051417
     9  O   -0.140226   0.017578
    10  O   -0.195150  -0.006596
    11  C   -0.498552  -0.185072
    12  C   -0.038470  -0.446153
    13  C   -0.081113   0.186279
    14  C    1.030219  -1.556624
    15  N   -0.478803   0.116064
    16  H   -0.180395   0.317570
    17  H   -0.147358   0.262924
    18  H   -0.234069   0.369077
    19  H    0.014861   0.109100
    20  H   -0.069642   0.223155
    21  H    0.179086  -0.002414
    22  H    0.038085   0.122590
    23  H   -0.402791   0.672333
    24  H    0.670978  -0.464675
    25  H   -0.430858   0.586676
    26  H    0.333170  -0.003007
    27  H    0.075661   0.168508
    28  H   -0.049126   0.293315
    29  H   -0.048416   0.217981
    30  H    0.221319  -0.017169
    31  H    0.156649   0.009897
    32  H    0.019659   0.107983
    33  H   -0.138674   0.302472
    34  H   -0.564748   0.740278
    35  H   -0.218025   0.469286
    36  H   -0.065819   0.288981
 Sum of Mulliken charges =  -1.00000   1.00000

 Dipole moment (field-independent basis, Debye):
    X=              0.6361    Y=             -3.8470    Z=              3.5321  Tot=              5.2612
 Quadrupole moment (field-independent basis, Debye-Ang):
   XX=           -168.6530   YY=           -160.0243   ZZ=           -143.6209
   XY=              3.3181   XZ=             -6.6953   YZ=              9.1222

 Summary of Natural Population Analysis:

                                       Natural Population
                Natural  -----------------------------------------------
    Atom  No    Charge         Core      Valence    Rydberg      Total
 -----------------------------------------------------------------------
      C    1   -0.17255      0.99965     2.16567    0.00723     3.17255
      N    2   -0.28531      0.99972     2.77370    0.01189     3.78531
      C    3   -0.08583      0.99963     2.07549    0.01071     3.08583
      C    4   -0.20273      0.99961     2.19500    0.00812     3.20273
      C    5   -0.01896      0.99958     2.00254    0.01684     3.01896
      C    6   -0.08708      0.99960     2.07420    0.01329     3.08708
      N    7   -0.44573      0.99974     2.93302    0.01297     3.94573
      S    8    1.09613      4.99928     1.80514    0.09945     6.90387
      O    9   -0.46775      0.99991     3.46254    0.00530     4.46775
      O   10   -0.46968      0.99991     3.46455    0.00523     4.46968
      C   11   -0.28775      0.99957     2.27612    0.01206     3.28775
      C   12   -0.20476      0.99961     2.19506    0.01009     3.20476
      C   13   -0.19284      0.99962     2.18487    0.00836     3.19284
      C   14   -0.09342      0.99963     2.08178    0.01202     3.09342
      N   15   -0.42541      0.99977     2.91516    0.01047     3.92541
      H   16    0.09488      0.00000     0.40383    0.00130     0.40512
      H   17    0.08151      0.00000     0.41645    0.00204     0.41849
      H   18    0.09706      0.00000     0.40162    0.00132     0.40294
      H   19    0.08306      0.00000     0.41547    0.00147     0.41694
      H   20    0.09505      0.00000     0.40392    0.00104     0.40495
      H   21    0.11107      0.00000     0.38775    0.00118     0.38893
      H   22    0.10397      0.00000     0.39519    0.00084     0.39603
      H   23    0.10865      0.00000     0.38953    0.00182     0.39135
      H   24    0.10459      0.00000     0.39331    0.00210     0.39541
      H   25    0.08799      0.00000     0.40990    0.00211     0.41201
      H   26    0.20354      0.00000     0.29367    0.00279     0.29646
      H   27    0.11774      0.00000     0.38041    0.00186     0.38226
      H   28    0.11646      0.00000     0.38255    0.00099     0.38354
      H   29    0.10484      0.00000     0.39408    0.00109     0.39516
      H   30    0.10809      0.00000     0.39085    0.00106     0.39191
      H   31    0.09860      0.00000     0.40022    0.00117     0.40140
      H   32    0.10159      0.00000     0.39704    0.00137     0.39841
      H   33    0.09174      0.00000     0.40710    0.00116     0.40826
      H   34    0.08151      0.00000     0.41544    0.00305     0.41849
      H   35    0.17954      0.00000     0.31750    0.00296     0.32046
      H   36    0.17222      0.00000     0.32490    0.00288     0.32778
 =======================================================================
   * Total *    0.00000     18.99484    44.72556    0.27961    64.00000

 Normal termination of Gaussian 16 at Thu Dec 10 15:57:01 2020.
