 Gaussian 16, Revision A.03,

 -----------------------------------------------------------
 # opt freq B3LYP/6-31G(d) empiricaldispersion=gd3bj scf=xqc
 -----------------------------------------------------------

 ------------------------------
 CID_79224920_JID_6949_neutraal
 ------------------------------
 Symbolic Z-matrix:
 Charge =  0 Multiplicity = 1

 SCF Done:  E(RB3LYP) =  -674.759432056     A.U. after   14 cycles
 SCF Done:  E(RB3LYP) =  -674.762518941     A.U. after   12 cycles
 SCF Done:  E(RB3LYP) =  -674.763055560     A.U. after   12 cycles
 SCF Done:  E(RB3LYP) =  -674.763277866     A.U. after   11 cycles
 SCF Done:  E(RB3LYP) =  -674.763430912     A.U. after   12 cycles
 SCF Done:  E(RB3LYP) =  -674.763528641     A.U. after   10 cycles
 SCF Done:  E(RB3LYP) =  -674.763570959     A.U. after   10 cycles
 SCF Done:  E(RB3LYP) =  -674.763592636     A.U. after    9 cycles
 SCF Done:  E(RB3LYP) =  -674.763608977     A.U. after    9 cycles
 SCF Done:  E(RB3LYP) =  -674.763618063     A.U. after    9 cycles
 SCF Done:  E(RB3LYP) =  -674.763622107     A.U. after    9 cycles
 SCF Done:  E(RB3LYP) =  -674.763622498     A.U. after    8 cycles
 SCF Done:  E(RB3LYP) =  -674.763622653     A.U. after    7 cycles
 SCF Done:  E(RB3LYP) =  -674.763622767     A.U. after    7 cycles
 SCF Done:  E(RB3LYP) =  -674.763622794     A.U. after    6 cycles
 SCF Done:  E(RB3LYP) =  -674.763622811     A.U. after    6 cycles
 Optimization completed.
    -- Stationary point found.
 Normal termination of Gaussian 16 at Fri Dec 11 01:19:58 2020.

 --------------------------------------------------------------------
 #N Geom=AllCheck Guess=TCheck SCRF=Check GenChk RB3LYP/6-31G(d) Freq
 --------------------------------------------------------------------

 Structure from the checkpoint file:  "JID_6949.chk"
 ------------------------------
 CID_79224920_JID_6949_neutraal
 ------------------------------
 Charge =  0 Multiplicity = 1

 SCF Done:  E(RB3LYP) =  -674.763622811     A.U. after    1 cycles

  Exact polarizability: 175.267  -3.088 173.281 -10.263   1.875 117.330
 Approx polarizability: 225.971  -2.532 244.687 -24.241   6.330 184.638

                      1                      2                      3
                      A                      A                      A
 Frequencies --     16.4020                44.2222                49.1971
 Red. masses --      3.6074                 3.1809                 2.7908
 Frc consts  --      0.0006                 0.0037                 0.0040
 IR Inten    --      0.3267                 0.0780                 0.1206

                      4                      5                      6
                      A                      A                      A
 Frequencies --     57.2905                66.0194                90.7103
 Red. masses --      3.0884                 2.8537                 2.7583
 Frc consts  --      0.0060                 0.0073                 0.0134
 IR Inten    --      0.3634                 0.0274                 0.5962

                      7                      8                      9
                      A                      A                      A
 Frequencies --    109.1486               131.6127               142.8865
 Red. masses --      3.4705                 1.5275                 1.6958
 Frc consts  --      0.0244                 0.0156                 0.0204
 IR Inten    --      0.6311                 1.1404                 0.3357

                     10                     11                     12
                      A                      A                      A
 Frequencies --    147.5441               173.5427               196.0580
 Red. masses --      1.3453                 1.4465                 2.3987
 Frc consts  --      0.0173                 0.0257                 0.0543
 IR Inten    --      0.1966                 0.9104                 1.4142

                     13                     14                     15
                      A                      A                      A
 Frequencies --    215.9382               239.5382               262.5154
 Red. masses --      1.2043                 1.8635                 1.8556
 Frc consts  --      0.0331                 0.0630                 0.0753
 IR Inten    --      0.1626                 1.2964                 1.4616

                     16                     17                     18
                      A                      A                      A
 Frequencies --    264.2013               294.6016               307.1383
 Red. masses --      2.3060                 2.2225                 2.5387
 Frc consts  --      0.0948                 0.1137                 0.1411
 IR Inten    --      0.6967                 0.0918                 2.2621

                     19                     20                     21
                      A                      A                      A
 Frequencies --    312.7501               316.8929               339.0583
 Red. masses --      1.8371                 1.9538                 2.4597
 Frc consts  --      0.1059                 0.1156                 0.1666
 IR Inten    --      1.4205                 1.3446                 3.7698

                     22                     23                     24
                      A                      A                      A
 Frequencies --    402.0192               413.2745               465.5712
 Red. masses --      2.4145                 3.8530                 2.1823
 Frc consts  --      0.2299                 0.3877                 0.2787
 IR Inten    --      2.1901                 0.8762                 0.2324

                     25                     26                     27
                      A                      A                      A
 Frequencies --    533.8337               551.3415               598.9957
 Red. masses --      2.5379                 2.7900                 3.6284
 Frc consts  --      0.4261                 0.4997                 0.7670
 IR Inten    --      0.5280                 1.7261                 0.4899

                     28                     29                     30
                      A                      A                      A
 Frequencies --    625.7617               656.7416               700.6461
 Red. masses --      3.2693                 6.5330                 4.0834
 Frc consts  --      0.7543                 1.6602                 1.1811
 IR Inten    --      4.0030                 0.8236                 4.9247

                     31                     32                     33
                      A                      A                      A
 Frequencies --    717.3124               740.4497               772.4323
 Red. masses --      1.6916                 1.7227                 1.7165
 Frc consts  --      0.5128                 0.5565                 0.6034
 IR Inten    --     31.7303                24.2065                12.2174

                     34                     35                     36
                      A                      A                      A
 Frequencies --    794.4505               806.8689               836.7649
 Red. masses --      1.3500                 1.3179                 2.6316
 Frc consts  --      0.5020                 0.5055                 1.0856
 IR Inten    --     12.6868                 3.3844                 1.0081

                     37                     38                     39
                      A                      A                      A
 Frequencies --    863.8382               898.8083               921.3925
 Red. masses --      2.4332                 2.1615                 1.4950
 Frc consts  --      1.0698                 1.0288                 0.7478
 IR Inten    --      8.6883                 5.5391                 7.6095

                     40                     41                     42
                      A                      A                      A
 Frequencies --    948.7539               979.6702               990.2955
 Red. masses --      1.6602                 2.0103                 1.7171
 Frc consts  --      0.8805                 1.1367                 0.9922
 IR Inten    --      9.4586                 7.4143                 4.8887

                     43                     44                     45
                      A                      A                      A
 Frequencies --   1022.1060              1034.6879              1048.0656
 Red. masses --      1.8674                 1.7069                 1.5669
 Frc consts  --      1.1494                 1.0767                 1.0141
 IR Inten    --     12.5279                 0.2432                 5.7735

                     46                     47                     48
                      A                      A                      A
 Frequencies --   1072.4003              1076.8578              1079.3524
 Red. masses --      1.4681                 1.6231                 2.2757
 Frc consts  --      0.9948                 1.1089                 1.5621
 IR Inten    --      0.3662                 2.8844                 2.5137

                     49                     50                     51
                      A                      A                      A
 Frequencies --   1094.2251              1104.9955              1115.4126
 Red. masses --      2.0748                 2.3613                 1.9057
 Frc consts  --      1.4637                 1.6987                 1.3969
 IR Inten    --      7.2132                 6.7953                 7.5266

                     52                     53                     54
                      A                      A                      A
 Frequencies --   1152.2548              1157.9070              1172.6014
 Red. masses --      1.9587                 2.1347                 1.8203
 Frc consts  --      1.5322                 1.6863                 1.4747
 IR Inten    --      6.6958                29.3560                 1.2752

                     55                     56                     57
                      A                      A                      A
 Frequencies --   1186.6412              1231.4504              1243.0093
 Red. masses --      2.8321                 1.5441                 1.8637
 Frc consts  --      2.3496                 1.3796                 1.6965
 IR Inten    --      8.4050                 9.1675                 3.6890

                     58                     59                     60
                      A                      A                      A
 Frequencies --   1247.7833              1294.5693              1298.7801
 Red. masses --      1.6226                 1.7415                 1.4411
 Frc consts  --      1.4884                 1.7196                 1.4322
 IR Inten    --      2.2801                 7.2453                11.7192

                     61                     62                     63
                      A                      A                      A
 Frequencies --   1317.0556              1351.8868              1364.9268
 Red. masses --      1.1939                 1.2279                 1.8523
 Frc consts  --      1.2202                 1.3222                 2.0332
 IR Inten    --      0.6413                11.1720                33.5976

                     64                     65                     66
                      A                      A                      A
 Frequencies --   1387.2616              1389.6774              1398.0781
 Red. masses --      1.5134                 1.4007                 1.4301
 Frc consts  --      1.7160                 1.5938                 1.6470
 IR Inten    --      6.1921                 6.9736                 8.1403

                     67                     68                     69
                      A                      A                      A
 Frequencies --   1406.8447              1419.0669              1424.4148
 Red. masses --      1.3385                 1.3609                 1.3335
 Frc consts  --      1.5609                 1.6147                 1.5941
 IR Inten    --     19.8679                13.4403                 2.8364

                     70                     71                     72
                      A                      A                      A
 Frequencies --   1428.1380              1435.5950              1438.4283
 Red. masses --      2.1270                 1.2683                 1.4993
 Frc consts  --      2.5560                 1.5400                 1.8278
 IR Inten    --     14.7954                12.1325                10.6895

                     73                     74                     75
                      A                      A                      A
 Frequencies --   1441.4454              1446.6788              1498.6381
 Red. masses --      1.3128                 1.3207                 1.5998
 Frc consts  --      1.6071                 1.6286                 2.1169
 IR Inten    --      1.3631                 6.1980                56.9589

                     76                     77                     78
                      A                      A                      A
 Frequencies --   1504.9718              1505.9808              1508.3278
 Red. masses --      1.1143                 1.1806                 1.0771
 Frc consts  --      1.4871                 1.5775                 1.4438
 IR Inten    --     12.7275                 7.1549                 1.3842

                     79                     80                     81
                      A                      A                      A
 Frequencies --   1508.7307              1510.7641              1515.5758
 Red. masses --      1.0934                 1.1899                 1.0993
 Frc consts  --      1.4664                 1.6001                 1.4878
 IR Inten    --      0.3272                 0.3092                16.4613

                     82                     83                     84
                      A                      A                      A
 Frequencies --   1518.5422              1519.1979              1520.6856
 Red. masses --      1.1431                 1.4656                 1.1589
 Frc consts  --      1.5530                 1.9930                 1.5790
 IR Inten    --      1.0746                18.4425                17.6223

                     85                     86                     87
                      A                      A                      A
 Frequencies --   1524.1343              1530.2698              1533.3249
 Red. masses --      1.3406                 1.0733                 1.1981
 Frc consts  --      1.8349                 1.4808                 1.6597
 IR Inten    --      0.6458                22.0821                 3.3706

                     88                     89                     90
                      A                      A                      A
 Frequencies --   1535.5868              1538.6791              1541.8416
 Red. masses --      1.3473                 1.5597                 1.0927
 Frc consts  --      1.8718                 2.1756                 1.5305
 IR Inten    --      4.5211                 7.8320                 2.6286

                     91                     92                     93
                      A                      A                      A
 Frequencies --   1547.4734              1626.4805              2924.4340
 Red. masses --      1.0646                 5.8303                 1.0731
 Frc consts  --      1.5020                 9.0873                 5.4073
 IR Inten    --      3.1757                16.6660                63.7075

                     94                     95                     96
                      A                      A                      A
 Frequencies --   3028.5846              3037.0026              3037.9714
 Red. masses --      1.0644                 1.0610                 1.0436
 Frc consts  --      5.7520                 5.7657                 5.6750
 IR Inten    --     21.5677                31.1342                26.0988

                     97                     98                     99
                      A                      A                      A
 Frequencies --   3039.4332              3040.9594              3043.5558
 Red. masses --      1.0410                 1.0641                 1.0409
 Frc consts  --      5.6662                 5.7975                 5.6807
 IR Inten    --     34.1804                22.4150                13.4950

                    100                    101                    102
                      A                      A                      A
 Frequencies --   3050.4381              3056.7373              3057.3045
 Red. masses --      1.0603                 1.0358                 1.0822
 Frc consts  --      5.8131                 5.7020                 5.9598
 IR Inten    --     51.1516                26.1925                62.4135

                    103                    104                    105
                      A                      A                      A
 Frequencies --   3064.9927              3081.7477              3082.3368
 Red. masses --      1.0988                 1.0996                 1.0988
 Frc consts  --      6.0815                 6.1527                 6.1505
 IR Inten    --     14.6332                36.2691                15.8898

                    106                    107                    108
                      A                      A                      A
 Frequencies --   3083.2874              3086.0968              3092.5692
 Red. masses --      1.0701                 1.0918                 1.1002
 Frc consts  --      5.9936                 6.1264                 6.1994
 IR Inten    --     30.3247                15.6326                25.3552

                    109                    110                    111
                      A                      A                      A
 Frequencies --   3096.0439              3107.4897              3116.8511
 Red. masses --      1.1013                 1.1000                 1.1020
 Frc consts  --      6.2196                 6.2585                 6.3078
 IR Inten    --     72.8625                54.7474                60.7612

                    112                    113                    114
                      A                      A                      A
 Frequencies --   3119.6370              3133.8250              3140.3139
 Red. masses --      1.1033                 1.1015                 1.0993
 Frc consts  --      6.3261                 6.3733                 6.3875
 IR Inten    --     13.9888                32.4338                 6.2904

                    115                    116                    117
                      A                      A                      A
 Frequencies --   3140.5087              3148.5036              3533.2434
 Red. masses --      1.0966                 1.1049                 1.0725
 Frc consts  --      6.3722                 6.4533                 7.8885
 IR Inten    --     22.0426                22.4469                 0.4645

 - Thermochemistry -
 -------------------
 Temperature   298.150 Kelvin.  Pressure   1.00000 Atm.
 Atom     1 has atomic number  6 and mass  12.00000

 Molecular mass:   223.20485 amu.
 Principal axes and moments of inertia in atomic units:
                           1         2         3
     Eigenvalues --  2461.961285791.112297568.88089
           X            1.00000  -0.00193  -0.00145
           Y            0.00192   0.99999  -0.00299
           Z            0.00145   0.00299   0.99999
 This molecule is an asymmetric top.
 Rotational symmetry number  1.
 Warning -- assumption of classical behavior for rotation
           may cause significant error
 Rotational temperatures (Kelvin)      0.03518     0.01496     0.01144
 Rotational constants (GHZ):           0.73305     0.31164     0.23844
 Zero-point vibrational energy     981608.7 (Joules/Mol)
                                  234.61011 (Kcal/Mol)
 Warning -- explicit consideration of  27 degrees of freedom as
           vibrations may cause significant error
 Vibrational temperatures:     23.60    63.63    70.78    82.43    94.99
          (Kelvin)            130.51   157.04   189.36   205.58   212.28
                              249.69   282.08   310.69   344.64   377.70
                              380.13   423.87   441.90   449.98   455.94
                              487.83   578.42   594.61   669.85   768.07
                              793.26   861.82   900.33   944.90  1008.07
                             1032.05  1065.34  1111.36  1143.04  1160.90
                             1203.92  1242.87  1293.18  1325.68  1365.05
                             1409.53  1424.81  1470.58  1488.69  1507.93
                             1542.94  1549.36  1552.95  1574.35  1589.84
                             1604.83  1657.84  1665.97  1687.11  1707.31
                             1771.78  1788.41  1795.28  1862.60  1868.65
                             1894.95  1945.06  1963.83  1995.96  1999.44
                             2011.52  2024.14  2041.72  2049.42  2054.77
                             2065.50  2069.58  2073.92  2081.45  2156.21
                             2165.32  2166.77  2170.15  2170.73  2173.65
                             2180.58  2184.84  2185.79  2187.93  2192.89
                             2201.72  2206.11  2209.37  2213.82  2218.37
                             2226.47  2340.14  4207.61  4357.46  4369.57
                             4370.96  4373.07  4375.26  4379.00  4388.90
                             4397.96  4398.78  4409.84  4433.95  4434.80
                             4436.16  4440.20  4449.52  4454.52  4470.98
                             4484.45  4488.46  4508.88  4518.21  4518.49
                             4529.99  5083.55

 Zero-point correction=                           0.373875 (Hartree/Particle)
 Thermal correction to Energy=                    0.392704
 Thermal correction to Enthalpy=                  0.393648
 Thermal correction to Gibbs Free Energy=         0.325516
 Sum of electronic and zero-point Energies=           -674.389748
 Sum of electronic and thermal Energies=              -674.370919
 Sum of electronic and thermal Enthalpies=            -674.369974
 Sum of electronic and thermal Free Energies=         -674.438107

                     E (Thermal)             CV                S
                      KCal/Mol        Cal/Mol-Kelvin    Cal/Mol-Kelvin
 Total                  246.426             68.912            143.397
 Electronic               0.000              0.000              0.000
 Translational            0.889              2.981             42.111
 Rotational               0.889              2.981             33.045
 Vibrational            244.648             62.950             68.240
 Vibration     1          0.593              1.986              7.028
 Vibration     2          0.595              1.980              5.060
 Vibration     3          0.595              1.978              4.849
 Vibration     4          0.596              1.975              4.548
 Vibration     5          0.597              1.970              4.269
 Vibration     6          0.602              1.956              3.645
 Vibration     7          0.606              1.942              3.284
 Vibration     8          0.612              1.922              2.922
 Vibration     9          0.616              1.910              2.765
 Vibration    10          0.617              1.905              2.704
 Vibration    11          0.627              1.875              2.397
 Vibration    12          0.636              1.845              2.170
 Vibration    13          0.645              1.817              1.993
 Vibration    14          0.657              1.780              1.806
 Vibration    15          0.670              1.741              1.645
 Vibration    16          0.671              1.739              1.634
 Vibration    17          0.689              1.684              1.447
 Vibration    18          0.697              1.660              1.378
 Vibration    19          0.701              1.649              1.348
 Vibration    20          0.704              1.641              1.326
 Vibration    21          0.719              1.597              1.217
 Vibration    22          0.768              1.466              0.955
 Vibration    23          0.777              1.441              0.915
 Vibration    24          0.823              1.326              0.750
 Vibration    25          0.889              1.175              0.579
 Vibration    26          0.907              1.137              0.541
 Vibration    27          0.957              1.034              0.451

                           ! Non-Optimized Parameters !
 Normal termination of Gaussian 16 at Fri Dec 11 01:34:37 2020.

 ----------------------------------------------------------------------
 # B3LYP/6-311++G(d,p) empiricaldispersion=gd3bj scf=xqc pop=npa geom=c
 heck
 ----------------------------------------------------------------------

 --------------------------------------
 CID_79224920_JID_6949_Energie_neutraal
 --------------------------------------
 Structure from the checkpoint file:  "JID_6949.chk"
 Charge =  0 Multiplicity = 1

 SCF Done:  E(RB3LYP) =  -674.948434619     A.U. after   14 cycles
 Normal termination of Gaussian 16 at Fri Dec 11 01:41:19 2020.

 ----------------------------------------------------------------------
 # B3LYP/6-311++G(d,p) empiricaldispersion=gd3bj scf=xqc pop=npa geom=c
 heck
 ----------------------------------------------------------------------

 ------------------------------------
 CID_79224920_JID_6949_Energie_kation
 ------------------------------------
 Structure from the checkpoint file:  "JID_6949.chk"
 Charge =  1 Multiplicity = 2

 SCF Done:  E(UB3LYP) =  -674.667818883     A.U. after   29 cycles
 Normal termination of Gaussian 16 at Fri Dec 11 01:59:34 2020.
 Gaussian 16:  ES64L-G16RevA.03 25-Dec-2016

 ----------------------------------------------------------------------
 # B3LYP/6-311++G(d,p) empiricaldispersion=gd3bj scf=xqc pop=npa geom=c
 heck
 ----------------------------------------------------------------------

 -----------------------------------
 CID_79224920_JID_6949_Energie_anion
 -----------------------------------
 Structure from the checkpoint file:  "JID_6949.chk"
 Charge = -1 Multiplicity = 2

                         Standard orientation:
 ---------------------------------------------------------------------
 Center     Atomic      Atomic             Coordinates (Angstroms)
 Number     Number       Type             X           Y           Z
 ---------------------------------------------------------------------
      1          6           0       -3.583518   -2.298460    0.339438
      2          6           0       -4.362640   -1.098584   -0.208149
      3          6           0       -3.606291    0.226764   -0.089496
      4          7           0       -2.390382    0.224136   -0.895495
      5          6           0       -1.704697    1.512161   -0.985977
      6          6           0       -1.284998    2.172590    0.339381
      7          6           0       -0.407913    1.275224    1.236518
      8          6           0        0.811488    0.724123    0.555539
      9          6           0        1.100291   -0.602264    0.256842
     10          7           0        2.300402   -0.597607   -0.397097
     11          7           0        2.819425    0.649113   -0.517600
     12          6           0        1.921174    1.456403    0.046781
     13          6           0        2.151134    2.935475    0.083151
     14          6           0        3.106234   -1.734850   -0.806223
     15          6           0        4.085999   -2.174604    0.282404
     16          6           0        0.348932   -1.863320    0.540689
     17          1           0       -2.679678   -2.492270   -0.248948
     18          1           0       -4.188862   -3.211048    0.312499
     19          1           0       -3.280501   -2.131251    1.381540
     20          1           0       -4.607179   -1.268647   -1.263548
     21          1           0       -5.312482   -1.005024    0.334597
     22          1           0       -4.242278    1.040571   -0.462122
     23          1           0       -3.428462    0.439876    0.983039
     24          1           0       -1.740720   -0.471311   -0.539389
     25          1           0       -0.813887    1.359532   -1.605524
     26          1           0       -2.359501    2.202547   -1.534614
     27          1           0       -0.743711    3.097097    0.102344
     28          1           0       -2.172307    2.475428    0.909746
     29          1           0       -0.112258    1.855727    2.121414
     30          1           0       -1.018534    0.447389    1.617794
     31          1           0        3.188848    3.155871   -0.180963
     32          1           0        1.501837    3.467391   -0.623529
     33          1           0        1.949623    3.346026    1.079876
     34          1           0        2.429742   -2.550327   -1.080035
     35          1           0        3.643561   -1.428694   -1.707172
     36          1           0        3.554048   -2.497514    1.183926
     37          1           0        4.703946   -3.007680   -0.070411
     38          1           0        4.740558   -1.340338    0.550839
     39          1           0        0.017225   -2.363968   -0.378491
     40          1           0        0.953594   -2.584508    1.104031
     41          1           0       -0.539897   -1.648322    1.139038
 ---------------------------------------------------------------------

 SCF Done:  E(UB3LYP) =  -674.935576692     A.U. after   31 cycles

 The electronic state is 2-A.
 Alpha  occ. eigenvalues --  -14.28041 -14.22189 -14.20006 -10.11738 -10.11039
 Alpha  occ. eigenvalues --  -10.09627 -10.09534 -10.09348 -10.08179 -10.07960
 Alpha  occ. eigenvalues --  -10.07746 -10.07267 -10.07265 -10.07138 -10.06632
 Alpha  occ. eigenvalues --  -10.06467  -0.94523  -0.81229  -0.75571  -0.71946
 Alpha  occ. eigenvalues --   -0.69096  -0.67400  -0.65496  -0.61707  -0.61012
 Alpha  occ. eigenvalues --   -0.59187  -0.56929  -0.53268  -0.50433  -0.48387
 Alpha  occ. eigenvalues --   -0.46431  -0.44729  -0.40562  -0.40088  -0.38243
 Alpha  occ. eigenvalues --   -0.37190  -0.36070  -0.35762  -0.34693  -0.33859
 Alpha  occ. eigenvalues --   -0.33192  -0.32770  -0.32136  -0.31561  -0.31441
 Alpha  occ. eigenvalues --   -0.30656  -0.30202  -0.29517  -0.28516  -0.27851
 Alpha  occ. eigenvalues --   -0.27358  -0.26617  -0.25932  -0.25310  -0.25086
 Alpha  occ. eigenvalues --   -0.24497  -0.24121  -0.23486  -0.19093  -0.14209
 Alpha  occ. eigenvalues --   -0.13686  -0.12841   0.04167
 Alpha virt. eigenvalues --    0.05874   0.06395   0.07399   0.07605   0.08112
 Alpha virt. eigenvalues --    0.08622   0.09216   0.09244   0.09678   0.10104
 Alpha virt. eigenvalues --    0.10731   0.10960   0.11141   0.11763   0.12109

  Beta  occ. eigenvalues --  -14.28042 -14.22180 -14.19998 -10.11717 -10.11037
  Beta  occ. eigenvalues --  -10.09613 -10.09528 -10.09346 -10.08133 -10.07942
  Beta  occ. eigenvalues --  -10.07733 -10.07255 -10.07255 -10.07104 -10.06632
  Beta  occ. eigenvalues --  -10.06434  -0.94516  -0.81214  -0.75556  -0.71927
  Beta  occ. eigenvalues --   -0.69069  -0.67370  -0.65467  -0.61668  -0.60966
  Beta  occ. eigenvalues --   -0.59144  -0.56884  -0.53213  -0.50396  -0.48341
  Beta  occ. eigenvalues --   -0.46405  -0.44698  -0.40532  -0.40060  -0.38218
  Beta  occ. eigenvalues --   -0.37160  -0.36041  -0.35733  -0.34661  -0.33831
  Beta  occ. eigenvalues --   -0.33163  -0.32745  -0.32094  -0.31527  -0.31404
  Beta  occ. eigenvalues --   -0.30631  -0.30166  -0.29496  -0.28486  -0.27826
  Beta  occ. eigenvalues --   -0.27321  -0.26584  -0.25905  -0.25282  -0.25059
  Beta  occ. eigenvalues --   -0.24462  -0.24093  -0.23467  -0.19062  -0.14189
  Beta  occ. eigenvalues --   -0.13671  -0.12825
  Beta virt. eigenvalues --    0.06056   0.06788   0.06836   0.07783   0.07969
  Beta virt. eigenvalues --    0.08450   0.09004   0.09357   0.09563   0.10056
  Beta virt. eigenvalues --    0.10195   0.10985   0.11225   0.11264   0.11982

 Mulliken charges and spin densities:
               1          2
     1  C    0.464828  -0.974666
     2  C   -0.582376   0.261512
     3  C    0.293586  -0.600462
     4  N   -0.129254   0.068516
     5  C   -0.217829  -0.321579
     6  C   -0.067638   0.010014
     7  C   -0.726956   0.033464
     8  C    0.987617  -0.082196
     9  C   -0.425752   0.453229
    10  N    0.313463  -0.055321
    11  N   -0.157796   0.140480
    12  C   -0.726626   0.256176
    13  C    0.103053  -0.960968
    14  C   -0.750769   0.566126
    15  C    1.021813  -1.449928
    16  C    0.825419  -1.498423
    17  H   -0.078740   0.208663
    18  H   -0.334422   0.491692
    19  H   -0.156411   0.304662
    20  H    0.097402   0.051952
    21  H   -0.133322   0.257480
    22  H   -0.011126   0.165011
    23  H    0.106294   0.003203
    24  H    0.586456  -0.363718
    25  H    0.065775   0.149602
    26  H    0.065679   0.076372
    27  H   -0.008041   0.149268
    28  H   -0.204724   0.364158
    29  H   -0.066817   0.260481
    30  H   -0.315946   0.500297
    31  H    0.106845   0.043331
    32  H    0.081450   0.064807
    33  H    0.036097   0.118119
    34  H   -0.225305   0.351515
    35  H   -0.068207   0.250641
    36  H   -0.097139   0.248064
    37  H   -0.433217   0.573817
    38  H    0.080708   0.070415
    39  H   -0.258059   0.476467
    40  H   -0.578831   0.750918
    41  H    0.518818  -0.413191
 Sum of Mulliken charges =  -1.00000   1.00000

 Dipole moment (field-independent basis, Debye):
    X=             -0.4219    Y=              5.7788    Z=             -1.2915  Tot=              5.9364
 Quadrupole moment (field-independent basis, Debye-Ang):
   XX=           -182.3567   YY=           -165.2458   ZZ=           -137.0935
   XY=              4.0072   XZ=              4.1794   YZ=              1.1931

 Summary of Natural Population Analysis:

                                       Natural Population
                Natural  -----------------------------------------------
    Atom  No    Charge         Core      Valence    Rydberg      Total
 -----------------------------------------------------------------------
      C    1   -0.28918      0.99967     2.28433    0.00518     3.28918
      C    2   -0.19215      0.99964     2.18328    0.00923     3.19215
      C    3   -0.08711      0.99962     2.07681    0.01067     3.08711
      N    4   -0.34416      0.99974     2.83393    0.01049     3.84416
      C    5   -0.08629      0.99963     2.07620    0.01046     3.08629
      C    6   -0.19664      0.99962     2.18888    0.00813     3.19664
      C    7   -0.20034      0.99960     2.19121    0.00953     3.20034
      C    8   -0.07515      0.99942     2.06459    0.01114     3.07515
      C    9    0.09155      0.99947     1.89757    0.01142     2.90845
      N   10   -0.11208      0.99961     2.59935    0.01312     3.61208
      N   11   -0.16279      0.99970     2.65247    0.01062     3.66279
      C   12    0.07550      0.99954     1.91165    0.01331     2.92450
      C   13   -0.29738      0.99963     2.29326    0.00449     3.29738
      C   14   -0.08333      0.99962     2.07269    0.01102     3.08333
      C   15   -0.28900      0.99966     2.28470    0.00464     3.28900
      C   16   -0.30788      0.99963     2.30208    0.00616     3.30788
      H   17    0.09686      0.00000     0.40168    0.00147     0.40314
      H   18    0.10028      0.00000     0.39871    0.00101     0.39972
      H   19    0.09635      0.00000     0.40212    0.00153     0.40365
      H   20    0.09571      0.00000     0.40307    0.00122     0.40429
      H   21    0.09395      0.00000     0.40509    0.00095     0.40605
      H   22    0.09050      0.00000     0.40835    0.00115     0.40950
      H   23    0.07746      0.00000     0.42096    0.00159     0.42254
      H   24    0.17400      0.00000     0.32094    0.00507     0.32600
      H   25    0.09687      0.00000     0.40201    0.00112     0.40313
      H   26    0.08912      0.00000     0.40989    0.00099     0.41088
      H   27    0.09637      0.00000     0.40239    0.00123     0.40363
      H   28    0.09577      0.00000     0.40312    0.00111     0.40423
      H   29    0.10369      0.00000     0.39519    0.00112     0.39631
      H   30    0.10138      0.00000     0.39681    0.00181     0.39862
      H   31    0.10745      0.00000     0.39156    0.00099     0.39255
      H   32    0.10094      0.00000     0.39773    0.00133     0.39906
      H   33    0.10192      0.00000     0.39696    0.00113     0.39808
      H   34    0.10136      0.00000     0.39705    0.00159     0.39864
      H   35    0.10257      0.00000     0.39602    0.00141     0.39743
      H   36    0.10054      0.00000     0.39814    0.00131     0.39946
      H   37    0.10093      0.00000     0.39767    0.00139     0.39907
      H   38    0.10218      0.00000     0.39675    0.00107     0.39782
      H   39    0.10796      0.00000     0.39034    0.00171     0.39204
      H   40    0.11244      0.00000     0.38586    0.00170     0.38756
      H   41    0.10984      0.00000     0.38863    0.00153     0.39016
 =======================================================================
   * Total *   -0.00000     15.99381    45.82004    0.18614    62.00000

 Normal termination of Gaussian 16 at Fri Dec 11 02:18:23 2020.
