 Gaussian 16, Revision A.03,

 -----------------------------------------------------------
 # opt freq B3LYP/6-31G(d) empiricaldispersion=gd3bj scf=xqc
 -----------------------------------------------------------

 -------------------------------
 CID_146904743_JID_6219_neutraal
 -------------------------------
 Symbolic Z-matrix:
 Charge =  0 Multiplicity = 1

 SCF Done:  E(RB3LYP) =  -823.441942693     A.U. after   14 cycles
 SCF Done:  E(RB3LYP) =  -823.436725336     A.U. after   13 cycles
 SCF Done:  E(RB3LYP) =  -823.448896213     A.U. after   12 cycles
 SCF Done:  E(RB3LYP) =  -823.449613334     A.U. after   12 cycles
 SCF Done:  E(RB3LYP) =  -823.446463763     A.U. after   14 cycles
 SCF Done:  E(RB3LYP) =  -823.449704394     A.U. after   12 cycles
 SCF Done:  E(RB3LYP) =  -823.450281073     A.U. after   12 cycles
 SCF Done:  E(RB3LYP) =  -823.450599846     A.U. after   11 cycles
 SCF Done:  E(RB3LYP) =  -823.450642267     A.U. after   12 cycles
 SCF Done:  E(RB3LYP) =  -823.450855483     A.U. after   11 cycles
 SCF Done:  E(RB3LYP) =  -823.450929442     A.U. after    8 cycles
 SCF Done:  E(RB3LYP) =  -823.450930228     A.U. after    8 cycles
 SCF Done:  E(RB3LYP) =  -823.450930524     A.U. after    8 cycles
 SCF Done:  E(RB3LYP) =  -823.450930657     A.U. after    7 cycles
 SCF Done:  E(RB3LYP) =  -823.450930752     A.U. after    7 cycles
 Optimization completed.
    -- Stationary point found.
 Normal termination of Gaussian 16 at Thu Dec 10 21:26:35 2020.

 --------------------------------------------------------------------
 #N Geom=AllCheck Guess=TCheck SCRF=Check GenChk RB3LYP/6-31G(d) Freq
 --------------------------------------------------------------------

 Structure from the checkpoint file:  "JID_6219.chk"
 -------------------------------
 CID_146904743_JID_6219_neutraal
 -------------------------------
 Charge =  0 Multiplicity = 1

 SCF Done:  E(RB3LYP) =  -823.450930752     A.U. after    1 cycles

  Exact polarizability: 145.321   2.146 116.978  -0.294   5.428 109.724
 Approx polarizability: 177.662   6.793 186.427  -4.192  11.471 171.612

                      1                      2                      3
                      A                      A                      A
 Frequencies --     34.9219                49.4815                60.2118
 Red. masses --      6.1534                 5.5320                 5.9033
 Frc consts  --      0.0044                 0.0080                 0.0126
 IR Inten    --      0.8676                 0.8098                 0.4424

                      4                      5                      6
                      A                      A                      A
 Frequencies --     72.9645               109.6674               114.8128
 Red. masses --      5.2038                 5.5456                 3.0794
 Frc consts  --      0.0163                 0.0393                 0.0239
 IR Inten    --      0.6444                 1.2225                 1.6104

                      7                      8                      9
                      A                      A                      A
 Frequencies --    154.5600               164.1319               210.7068
 Red. masses --      5.7882                 3.4333                 2.9680
 Frc consts  --      0.0815                 0.0545                 0.0776
 IR Inten    --      0.6354                 1.2023                 1.4063

                     10                     11                     12
                      A                      A                      A
 Frequencies --    231.6968               233.8818               249.4167
 Red. masses --      1.6859                 1.6129                 1.4743
 Frc consts  --      0.0533                 0.0520                 0.0540
 IR Inten    --      2.4732                 0.0661                 7.9949

                     13                     14                     15
                      A                      A                      A
 Frequencies --    270.3547               299.6291               309.8253
 Red. masses --      1.5772                 2.1099                 2.2536
 Frc consts  --      0.0679                 0.1116                 0.1275
 IR Inten    --      8.1306                 5.7653                 6.7531

                     16                     17                     18
                      A                      A                      A
 Frequencies --    330.8226               334.1553               351.3414
 Red. masses --      2.0406                 3.0354                 2.4379
 Frc consts  --      0.1316                 0.1997                 0.1773
 IR Inten    --     14.3981                 9.5798                26.0521

                     19                     20                     21
                      A                      A                      A
 Frequencies --    363.5372               371.1699               372.4904
 Red. masses --      1.5306                 2.4466                 2.4750
 Frc consts  --      0.1192                 0.1986                 0.2023
 IR Inten    --     70.7621                 7.7458                 0.8091

                     22                     23                     24
                      A                      A                      A
 Frequencies --    419.6499               442.6104               477.6898
 Red. masses --      2.5371                 5.5570                 2.7911
 Frc consts  --      0.2632                 0.6414                 0.3753
 IR Inten    --     10.6709                16.8924                14.0288

                     25                     26                     27
                      A                      A                      A
 Frequencies --    496.8576               527.5203               557.0165
 Red. masses --      2.0137                 2.9415                 3.3708
 Frc consts  --      0.2929                 0.4823                 0.6162
 IR Inten    --     15.8363                44.5343                 3.6664

                     28                     29                     30
                      A                      A                      A
 Frequencies --    572.5509               603.6690               614.7628
 Red. masses --      3.4128                 1.2740                 3.0104
 Frc consts  --      0.6592                 0.2735                 0.6703
 IR Inten    --      6.6062                68.4951                13.8905

                     31                     32                     33
                      A                      A                      A
 Frequencies --    630.4312               639.5610               693.1067
 Red. masses --      3.5409                 2.4947                 1.6236
 Frc consts  --      0.8292                 0.6012                 0.4596
 IR Inten    --      1.0199                62.0531                80.4318

                     34                     35                     36
                      A                      A                      A
 Frequencies --    709.1286               781.9657               819.1213
 Red. masses --      2.1577                 1.7340                 2.8156
 Frc consts  --      0.6393                 0.6247                 1.1130
 IR Inten    --     20.9388                86.7196                32.5265

                     37                     38                     39
                      A                      A                      A
 Frequencies --    830.7287               874.1926               914.3222
 Red. masses --      2.8513                 2.0377                 2.3232
 Frc consts  --      1.1594                 0.9175                 1.1443
 IR Inten    --     17.8623                 1.7750                36.9949

                     40                     41                     42
                      A                      A                      A
 Frequencies --    918.9416               960.6675               965.0321
 Red. masses --      1.8441                 2.2538                 1.4844
 Frc consts  --      0.9175                 1.2255                 0.8145
 IR Inten    --      6.5377                 7.4998                 4.1369

                     43                     44                     45
                      A                      A                      A
 Frequencies --    996.4715              1000.4336              1032.2092
 Red. masses --      1.6530                 1.8785                 1.3474
 Frc consts  --      0.9671                 1.1077                 0.8458
 IR Inten    --     36.3512                 9.2939                10.0965

                     46                     47                     48
                      A                      A                      A
 Frequencies --   1061.0525              1078.1120              1108.7605
 Red. masses --      2.4090                 4.4809                 2.2193
 Frc consts  --      1.5979                 3.0686                 1.6075
 IR Inten    --     13.4822                51.0919                16.2042

                     49                     50                     51
                      A                      A                      A
 Frequencies --   1137.2911              1155.4033              1176.5581
 Red. masses --      3.1155                 2.0794                 2.0930
 Frc consts  --      2.3742                 1.6355                 1.7071
 IR Inten    --    150.7054                22.0057                14.6555

                     52                     53                     54
                      A                      A                      A
 Frequencies --   1189.1315              1196.4076              1224.4491
 Red. masses --      2.0452                 2.4587                 2.8058
 Frc consts  --      1.7039                 2.0735                 2.4785
 IR Inten    --    134.3514               166.2141                 5.8629

                     55                     56                     57
                      A                      A                      A
 Frequencies --   1230.4068              1268.9237              1297.3238
 Red. masses --      1.2010                 2.9322                 1.8605
 Frc consts  --      1.0713                 2.7817                 1.8449
 IR Inten    --      1.5355                 5.9630                11.4382

                     58                     59                     60
                      A                      A                      A
 Frequencies --   1306.9669              1349.3321              1376.8196
 Red. masses --      1.4635                 1.4604                 1.6363
 Frc consts  --      1.4729                 1.5666                 1.8275
 IR Inten    --     15.6953                 4.3547               222.6236

                     61                     62                     63
                      A                      A                      A
 Frequencies --   1398.9358              1419.9507              1429.8835
 Red. masses --      1.2073                 1.2340                 1.3472
 Frc consts  --      1.3921                 1.4659                 1.6228
 IR Inten    --      0.4485                 7.3374                11.8494

                     64                     65                     66
                      A                      A                      A
 Frequencies --   1434.2112              1437.7154              1444.7259
 Red. masses --      1.3301                 1.6249                 1.3819
 Frc consts  --      1.6120                 1.9789                 1.6994
 IR Inten    --     30.0280                72.0279                48.9698

                     67                     68                     69
                      A                      A                      A
 Frequencies --   1456.8621              1473.8868              1479.9067
 Red. masses --      1.2383                 1.4953                 1.1328
 Frc consts  --      1.5485                 1.9139                 1.4618
 IR Inten    --     65.5018                31.0239                21.7085

                     70                     71                     72
                      A                      A                      A
 Frequencies --   1512.2095              1519.4377              1523.9856
 Red. masses --      1.0488                 1.4185                 1.0863
 Frc consts  --      1.4130                 1.9294                 1.4864
 IR Inten    --      4.2107                31.2438                 8.8075

                     73                     74                     75
                      A                      A                      A
 Frequencies --   1526.4709              1531.4644              1538.9279
 Red. masses --      1.2635                 1.0855                 1.0732
 Frc consts  --      1.7346                 1.5000                 1.4974
 IR Inten    --     10.2126                 2.6757                 3.8441

                     76                     77                     78
                      A                      A                      A
 Frequencies --   1540.7121              1556.3618              1560.2589
 Red. masses --      1.0670                 1.0553                 1.0617
 Frc consts  --      1.4924                 1.5061                 1.5228
 IR Inten    --      4.2638                24.3866                 1.8793

                     79                     80                     81
                      A                      A                      A
 Frequencies --   1730.9012              1833.1702              3012.8731
 Red. masses --      6.3685                 9.1370                 1.0726
 Frc consts  --     11.2417                18.0908                 5.7367
 IR Inten    --    310.0057               219.4532                54.8610

                     82                     83                     84
                      A                      A                      A
 Frequencies --   3046.4233              3061.0504              3066.9730
 Red. masses --      1.0389                 1.0391                 1.0626
 Frc consts  --      5.6810                 5.7367                 5.8888
 IR Inten    --     29.3759                28.9502                 6.6845

                     85                     86                     87
                      A                      A                      A
 Frequencies --   3075.5836              3083.3511              3101.2851
 Red. masses --      1.0428                 1.0749                 1.1013
 Frc consts  --      5.8115                 6.0212                 6.2408
 IR Inten    --     19.1584                14.3534                46.3460

                     88                     89                     90
                      A                      A                      A
 Frequencies --   3111.6778              3120.8422              3128.6017
 Red. masses --      1.0969                 1.0993                 1.0930
 Frc consts  --      6.2574                 6.3083                 6.3034
 IR Inten    --     12.1102                14.4455                34.1508

                     91                     92                     93
                      A                      A                      A
 Frequencies --   3139.1658              3152.8536              3158.2534
 Red. masses --      1.0984                 1.0980                 1.0993
 Frc consts  --      6.3774                 6.4307                 6.4604
 IR Inten    --     25.4990                 3.8599                13.4270

                     94                     95                     96
                      A                      A                      A
 Frequencies --   3188.2044              3209.7012              3536.0330
 Red. masses --      1.0998                 1.0924                 1.0640
 Frc consts  --      6.5864                 6.6310                 7.8382
 IR Inten    --      8.7666                13.2248               131.0754

                     97                     98                     99
                      A                      A                      A
 Frequencies --   3564.3239              3681.1505              3752.3429
 Red. masses --      1.0748                 1.0640                 1.0658
 Frc consts  --      8.0450                 8.4948                 8.8414
 IR Inten    --     58.6728                54.3170                15.3509

 - Thermochemistry -
 -------------------
 Temperature   298.150 Kelvin.  Pressure   1.00000 Atm.
 Atom     1 has atomic number  6 and mass  12.00000

 Molecular mass:   233.12632 amu.
 Principal axes and moments of inertia in atomic units:
                           1         2         3
     Eigenvalues --  1969.054005989.279446538.16474
           X            0.99998  -0.00165   0.00535
           Y            0.00152   0.99972   0.02350
           Z           -0.00539  -0.02349   0.99971
 This molecule is an asymmetric top.
 Rotational symmetry number  1.
 Warning -- assumption of classical behavior for rotation
           may cause significant error
 Rotational temperatures (Kelvin)      0.04399     0.01446     0.01325
 Rotational constants (GHZ):           0.91655     0.30133     0.27603
 Zero-point vibrational energy     788734.0 (Joules/Mol)
                                  188.51195 (Kcal/Mol)
 Warning -- explicit consideration of  30 degrees of freedom as
           vibrations may cause significant error
 Vibrational temperatures:     50.24    71.19    86.63   104.98   157.79
          (Kelvin)            165.19   222.38   236.15   303.16   333.36
                              336.50   358.85   388.98   431.10   445.77
                              475.98   480.77   505.50   523.05   534.03
                              535.93   603.78   636.82   687.29   714.87
                              758.98   801.42   823.77   868.55   884.51
                              907.05   920.19   997.23  1020.28  1125.07
                             1178.53  1195.23  1257.77  1315.51  1322.15
                             1382.19  1388.47  1433.70  1439.40  1485.12
                             1526.62  1551.16  1595.26  1636.31  1662.37
                             1692.80  1710.89  1721.36  1761.71  1770.28
                             1825.70  1866.56  1880.43  1941.39  1980.94
                             2012.76  2042.99  2057.28  2063.51  2068.55
                             2078.64  2096.10  2120.59  2129.26  2175.73
                             2186.13  2192.68  2196.25  2203.44  2214.17
                             2216.74  2239.26  2244.86  2490.38  2637.52
                             4334.85  4383.12  4404.17  4412.69  4425.08
                             4436.25  4462.06  4477.01  4490.20  4501.36
                             4516.56  4536.25  4544.02  4587.12  4618.04
                             5087.56  5128.27  5296.35  5398.78

 Zero-point correction=                           0.300413 (Hartree/Particle)
 Thermal correction to Energy=                    0.318058
 Thermal correction to Enthalpy=                  0.319003
 Thermal correction to Gibbs Free Energy=         0.255552
 Sum of electronic and zero-point Energies=           -823.150518
 Sum of electronic and thermal Energies=              -823.132872
 Sum of electronic and thermal Enthalpies=            -823.131928
 Sum of electronic and thermal Free Energies=         -823.195379

                     E (Thermal)             CV                S
                      KCal/Mol        Cal/Mol-Kelvin    Cal/Mol-Kelvin
 Total                  199.585             67.417            133.543
 Electronic               0.000              0.000              0.000
 Translational            0.889              2.981             42.241
 Rotational               0.889              2.981             32.711
 Vibrational            197.807             61.456             58.591
 Vibration     1          0.594              1.983              5.528
 Vibration     2          0.595              1.978              4.838
 Vibration     3          0.597              1.973              4.450
 Vibration     4          0.599              1.967              4.072
 Vibration     5          0.606              1.941              3.275
 Vibration     6          0.608              1.937              3.186
 Vibration     7          0.620              1.898              2.615
 Vibration     8          0.623              1.886              2.502
 Vibration     9          0.643              1.824              2.038
 Vibration    10          0.653              1.793              1.866
 Vibration    11          0.654              1.789              1.849
 Vibration    12          0.662              1.764              1.735
 Vibration    13          0.674              1.728              1.594
 Vibration    14          0.692              1.674              1.419
 Vibration    15          0.699              1.655              1.363
 Vibration    16          0.713              1.614              1.256
 Vibration    17          0.716              1.607              1.240
 Vibration    18          0.728              1.573              1.160
 Vibration    19          0.737              1.547              1.107
 Vibration    20          0.743              1.531              1.075
 Vibration    21          0.744              1.529              1.070
 Vibration    22          0.782              1.428              0.893
 Vibration    23          0.802              1.377              0.818
 Vibration    24          0.834              1.300              0.716
 Vibration    25          0.852              1.257              0.666
 Vibration    26          0.882              1.189              0.593
 Vibration    27          0.913              1.124              0.530
 Vibration    28          0.929              1.091              0.499
 Vibration    29          0.962              1.024              0.443
 Vibration    30          0.974              1.001              0.425

 Optimization completed.
    -- Stationary point found.
 Normal termination of Gaussian 16 at Thu Dec 10 21:40:48 2020.

 ----------------------------------------------------------------------
 # B3LYP/6-311++G(d,p) empiricaldispersion=gd3bj scf=xqc pop=npa geom=c
 heck
 ----------------------------------------------------------------------

 ---------------------------------------
 CID_146904743_JID_6219_Energie_neutraal
 ---------------------------------------
 Structure from the checkpoint file:  "JID_6219.chk"
 Charge =  0 Multiplicity = 1

 SCF Done:  E(RB3LYP) =  -823.721948188     A.U. after   14 cycles
 Normal termination of Gaussian 16 at Thu Dec 10 21:47:22 2020.

 ----------------------------------------------------------------------
 # B3LYP/6-311++G(d,p) empiricaldispersion=gd3bj scf=xqc pop=npa geom=c
 heck
 ----------------------------------------------------------------------

 -------------------------------------
 CID_146904743_JID_6219_Energie_kation
 -------------------------------------
 Structure from the checkpoint file:  "JID_6219.chk"
 Charge =  1 Multiplicity = 2

 SCF Done:  E(UB3LYP) =  -823.390856631     A.U. after   28 cycles
 Normal termination of Gaussian 16 at Thu Dec 10 22:05:48 2020.
 Gaussian 16:  ES64L-G16RevA.03 25-Dec-2016

 ----------------------------------------------------------------------
 # B3LYP/6-311++G(d,p) empiricaldispersion=gd3bj scf=xqc pop=npa geom=c
 heck
 ----------------------------------------------------------------------

 ------------------------------------
 CID_146904743_JID_6219_Energie_anion
 ------------------------------------
 Structure from the checkpoint file:  "JID_6219.chk"
 Charge = -1 Multiplicity = 2

                         Standard orientation:
 ---------------------------------------------------------------------
 Center     Atomic      Atomic             Coordinates (Angstroms)
 Number     Number       Type             X           Y           Z
 ---------------------------------------------------------------------
      1          6           0       -0.720417    0.296185    1.813379
      2          6           0       -1.264005   -0.549941    0.652086
      3          6           0       -0.145348   -1.154677   -0.252695
      4          8           0       -0.228001   -2.360643   -0.513350
      5          7           0        0.868076   -0.430190   -0.794164
      6          6           0        1.379272    0.907288   -0.521460
      7          6           0        2.536609    0.901978    0.480815
      8          6           0        3.719464    0.104097   -0.018916
      9          8           0        3.766602   -0.505207   -1.068349
     10          8           0        4.753934    0.138458    0.848836
     11          6           0       -2.368653    0.170403   -0.228050
     12          6           0       -2.944709   -0.841788   -1.237300
     13          6           0       -3.507245    0.634216    0.698264
     14          6           0       -1.866188    1.366338   -1.061486
     15          8           0       -1.355907    2.478332   -0.323615
     16          8           0       -1.873635   -1.674799    1.273974
     17          1           0       -0.438293    1.306526    1.522493
     18          1           0        0.133027   -0.213971    2.271270
     19          1           0       -1.498706    0.361986    2.577397
     20          1           0        1.516956   -1.017593   -1.308987
     21          1           0        1.734146    1.314865   -1.473574
     22          1           0        0.582972    1.560387   -0.175541
     23          1           0        2.873617    1.925985    0.685127
     24          1           0        2.221485    0.484624    1.443721
     25          1           0        5.461878   -0.405820    0.454599
     26          1           0       -3.327480   -1.720822   -0.715298
     27          1           0       -3.771117   -0.389213   -1.796569
     28          1           0       -2.191571   -1.177317   -1.957463
     29          1           0       -3.190495    1.418015    1.396333
     30          1           0       -4.341380    1.027208    0.104605
     31          1           0       -3.871205   -0.205664    1.294031
     32          1           0       -1.053918    1.056172   -1.723214
     33          1           0       -2.695045    1.699012   -1.704468
     34          1           0       -2.072368    2.811753    0.237581
     35          1           0       -1.565652   -2.438523    0.739301
 ---------------------------------------------------------------------

 SCF Done:  E(UB3LYP) =  -823.713890836     A.U. after   33 cycles
 SCF Done:  E(UB3LYP) =  -823.713890836     a.u. after    1 cycles

 The electronic state is 2-A.
 Alpha  occ. eigenvalues --  -19.08277 -19.03688 -19.03476 -19.02081 -19.01257
 Alpha  occ. eigenvalues --  -14.25591 -10.22577 -10.19371 -10.15374 -10.12841
 Alpha  occ. eigenvalues --  -10.12597 -10.10485 -10.10378 -10.07209 -10.07097
 Alpha  occ. eigenvalues --  -10.06869  -1.02655  -0.97360  -0.93873  -0.93787
 Alpha  occ. eigenvalues --   -0.92290  -0.84332  -0.73211  -0.70326  -0.66006
 Alpha  occ. eigenvalues --   -0.60738  -0.60388  -0.58884  -0.55852  -0.51751
 Alpha  occ. eigenvalues --   -0.50390  -0.46274  -0.45018  -0.43086  -0.42081
 Alpha  occ. eigenvalues --   -0.41606  -0.39727  -0.38494  -0.38015  -0.37075
 Alpha  occ. eigenvalues --   -0.35782  -0.35211  -0.34527  -0.33319  -0.32746
 Alpha  occ. eigenvalues --   -0.31554  -0.31072  -0.30521  -0.29907  -0.29459
 Alpha  occ. eigenvalues --   -0.29004  -0.28399  -0.28137  -0.26153  -0.25932
 Alpha  occ. eigenvalues --   -0.24652  -0.24326  -0.23684  -0.20434  -0.19738
 Alpha  occ. eigenvalues --   -0.18780  -0.18089  -0.17225   0.03870
 Alpha virt. eigenvalues --    0.05197   0.06979   0.07255   0.07886   0.08194
 Alpha virt. eigenvalues --    0.08785   0.09357   0.09641   0.09970   0.10584
 Alpha virt. eigenvalues --    0.11002   0.11951   0.12249   0.12847   0.13373

  Beta  occ. eigenvalues --  -19.08213 -19.03648 -19.03463 -19.02078 -19.01256
  Beta  occ. eigenvalues --  -14.25584 -10.22573 -10.19371 -10.15370 -10.12825
  Beta  occ. eigenvalues --  -10.12585 -10.10450 -10.10377 -10.07204 -10.07080
  Beta  occ. eigenvalues --  -10.06829  -1.02579  -0.97357  -0.93808  -0.93704
  Beta  occ. eigenvalues --   -0.92286  -0.84319  -0.73190  -0.70278  -0.65986
  Beta  occ. eigenvalues --   -0.60678  -0.60319  -0.58835  -0.55821  -0.51664
  Beta  occ. eigenvalues --   -0.50338  -0.46239  -0.44993  -0.43041  -0.42053
  Beta  occ. eigenvalues --   -0.41569  -0.39700  -0.38447  -0.37971  -0.37040
  Beta  occ. eigenvalues --   -0.35760  -0.35188  -0.34477  -0.33294  -0.32713
  Beta  occ. eigenvalues --   -0.31520  -0.31051  -0.30491  -0.29873  -0.29434
  Beta  occ. eigenvalues --   -0.28977  -0.28377  -0.28103  -0.26124  -0.25916
  Beta  occ. eigenvalues --   -0.24628  -0.24285  -0.23658  -0.20392  -0.19714
  Beta  occ. eigenvalues --   -0.18765  -0.18065  -0.17207
  Beta virt. eigenvalues --    0.06246   0.06793   0.07444   0.07609   0.08297
  Beta virt. eigenvalues --    0.08560   0.09001   0.09525   0.10034   0.10340
  Beta virt. eigenvalues --    0.10754   0.11087   0.12085   0.12340   0.13103

 Mulliken charges and spin densities:
               1          2
     1  C    0.299867  -0.841929
     2  C   -0.416243   0.277786
     3  C   -0.094571  -0.203743
     4  O   -0.287440   0.007769
     5  N   -0.323374   0.061261
     6  C   -0.538653   0.203356
     7  C    1.077144  -1.336175
     8  C    0.016374  -0.029851
     9  O   -0.276122  -0.012480
    10  O   -0.177501   0.041966
    11  C   -0.575031   1.096535
    12  C   -0.127031  -0.340759
    13  C    0.698583  -1.135115
    14  C   -0.143280  -0.596156
    15  O   -0.127075  -0.031878
    16  O   -0.131762   0.001290
    17  H   -0.027327   0.180091
    18  H    0.200913  -0.021816
    19  H    0.046511   0.159450
    20  H    0.358177   0.010473
    21  H   -0.081809   0.276884
    22  H    0.729113  -0.505246
    23  H   -0.443782   0.657098
    24  H   -0.003008   0.226903
    25  H   -0.610089   0.911836
    26  H    0.118131   0.032555
    27  H    0.077192   0.083349
    28  H    0.183545   0.000296
    29  H   -0.229736   0.342834
    30  H   -0.310632   0.481614
    31  H    0.113853   0.083446
    32  H    0.043555   0.179583
    33  H   -0.100657   0.256384
    34  H   -0.193677   0.471839
    35  H    0.255843   0.010549
 Sum of Mulliken charges =  -1.00000   1.00000

 Dipole moment (field-independent basis, Debye):
    X=             -4.0736    Y=             -2.3352    Z=             -1.8308  Tot=              5.0398
 Quadrupole moment (field-independent basis, Debye-Ang):
   XX=           -201.0855   YY=           -146.0086   ZZ=           -127.0780
   XY=             12.0639   XZ=              0.2080   YZ=             -3.2716

 Summary of Natural Population Analysis:

                                       Natural Population
                Natural  -----------------------------------------------
    Atom  No    Charge         Core      Valence    Rydberg      Total
 -----------------------------------------------------------------------
      C    1   -0.29842      0.99961     2.29060    0.00820     3.29842
      C    2    0.10517      0.99949     1.87769    0.01766     2.89483
      C    3    0.34277      0.99960     1.63441    0.02322     2.65723
      O    4   -0.33912      0.99987     3.33361    0.00565     4.33912
      N    5   -0.31206      0.99965     2.80311    0.00930     3.81206
      C    6   -0.10147      0.99959     2.09008    0.01180     3.10147
      C    7   -0.24446      0.99957     2.23667    0.00822     3.24446
      C    8    0.41046      0.99972     1.56495    0.02487     2.58954
      O    9   -0.31584      0.99987     3.30966    0.00632     4.31584
      O   10   -0.33906      0.99988     3.33256    0.00662     4.33906
      C   11   -0.05970      0.99953     2.04564    0.01453     3.05970
      C   12   -0.29038      0.99962     2.28327    0.00748     3.29038
      C   13   -0.29508      0.99962     2.28680    0.00866     3.29508
      C   14   -0.01149      0.99950     1.99817    0.01382     3.01149
      O   15   -0.37453      0.99990     3.36739    0.00724     4.37453
      O   16   -0.38689      0.99989     3.38038    0.00662     4.38689
      H   17    0.10919      0.00000     0.38926    0.00155     0.39081
      H   18    0.10097      0.00000     0.39790    0.00113     0.39903
      H   19    0.10941      0.00000     0.38957    0.00102     0.39059
      H   20    0.20528      0.00000     0.29227    0.00245     0.29472
      H   21    0.10165      0.00000     0.39722    0.00114     0.39835
      H   22    0.12114      0.00000     0.37657    0.00229     0.37886
      H   23    0.12060      0.00000     0.37798    0.00142     0.37940
      H   24    0.11682      0.00000     0.38197    0.00120     0.38318
      H   25    0.24666      0.00000     0.22586    0.02748     0.25334
      H   26    0.10839      0.00000     0.39068    0.00093     0.39161
      H   27    0.09965      0.00000     0.39956    0.00079     0.40035
      H   28    0.10366      0.00000     0.39558    0.00076     0.39634
      H   29    0.10025      0.00000     0.39823    0.00152     0.39975
      H   30    0.10179      0.00000     0.39707    0.00114     0.39821
      H   31    0.11221      0.00000     0.38672    0.00107     0.38779
      H   32    0.09064      0.00000     0.40767    0.00169     0.40936
      H   33    0.08291      0.00000     0.41586    0.00123     0.41709
      H   34    0.23645      0.00000     0.25576    0.00779     0.26355
      H   35    0.24245      0.00000     0.25431    0.00324     0.25755
 =======================================================================
   * Total *    0.00000     15.99492    46.76503    0.24005    63.00000

 Normal termination of Gaussian 16 at Thu Dec 10 22:27:58 2020.
