 Gaussian 16, Revision A.03,

 -----------------------------------------------------------
 # opt freq B3LYP/6-31G(d) empiricaldispersion=gd3bj scf=xqc
 -----------------------------------------------------------

 -----------------------------
 CID_21707413_JID_222_neutraal
 -----------------------------
 Symbolic Z-matrix:
 Charge =  0 Multiplicity = 1

 SCF Done:  E(RB3LYP) =  -426.638920243     A.U. after   15 cycles
 SCF Done:  E(RB3LYP) =  -426.641751814     A.U. after   14 cycles
 SCF Done:  E(RB3LYP) =  -426.638200345     A.U. after   14 cycles
 SCF Done:  E(RB3LYP) =  -426.642988186     A.U. after   13 cycles
 SCF Done:  E(RB3LYP) =  -426.643357966     A.U. after   13 cycles
 SCF Done:  E(RB3LYP) =  -426.643500933     A.U. after   12 cycles
 SCF Done:  E(RB3LYP) =  -426.643661567     A.U. after   13 cycles
 SCF Done:  E(RB3LYP) =  -426.643715888     A.U. after   13 cycles
 SCF Done:  E(RB3LYP) =  -426.643760169     A.U. after   10 cycles
 SCF Done:  E(RB3LYP) =  -426.643922388     A.U. after   12 cycles
 SCF Done:  E(RB3LYP) =  -426.643939975     A.U. after   10 cycles
 SCF Done:  E(RB3LYP) =  -426.643950954     A.U. after   11 cycles
 SCF Done:  E(RB3LYP) =  -426.643953986     A.U. after   10 cycles
 SCF Done:  E(RB3LYP) =  -426.643953877     A.U. after    9 cycles
 SCF Done:  E(RB3LYP) =  -426.643954349     A.U. after    9 cycles
 Optimization completed.
    -- Stationary point found.

 1\1\GINC-NODE123\FOpt\RB3LYP\6-31G(d)\C9H14O1\VSC10255\08-Dec-2020\0\\
 # opt freq B3LYP/6-31G(d) empiricaldispersion=gd3bj scf=xqc\\CID_21707
 413_JID_222_neutraal\\0,1\C,0.9552298205,-0.078079348,0.0724613465\C,0
 .1576706704,-1.163749496,0.8268839579\C,0.9228863462,-2.495004996,0.88
 89576731\C,0.8119372435,-3.2567706296,-0.4326697243\C,-0.6534067044,-3
 .585253776,-0.7179855126\C,-1.5843833664,-2.4086270638,-0.4849971215\C
 ,-1.2281215076,-1.3068898624,0.2234798486\C,-2.1568788557,-0.141965082
 7,0.4599801481\C,-2.9289894441,-2.5675230455,-1.0692047807\O,-3.848960

 Normal termination of Gaussian 16 at Tue Dec  8 10:23:40 2020.

 --------------------------------------------------------------------
 #N Geom=AllCheck Guess=TCheck SCRF=Check GenChk RB3LYP/6-31G(d) Freq
 --------------------------------------------------------------------

 Structure from the checkpoint file:  "JID_222.chk"
 -----------------------------
 CID_21707413_JID_222_neutraal
 -----------------------------
 Charge =  0 Multiplicity = 1

 SCF Done:  E(RB3LYP) =  -426.643954349     A.U. after    1 cycles

  Exact polarizability: 109.814  -6.434 106.983   2.129  -2.427  68.114
 Approx polarizability: 156.451 -12.156 155.788   5.459  -5.999 104.008

                      1                      2                      3
                      A                      A                      A
 Frequencies --     77.8559                99.2001               140.8179
 Red. masses --      2.4505                 2.8203                 1.5165
 Frc consts  --      0.0088                 0.0164                 0.0177
 IR Inten    --      2.3419                 0.0416                 0.0738

                      4                      5                      6
                      A                      A                      A
 Frequencies --    189.9841               220.1063               235.8073
 Red. masses --      1.6688                 1.1975                 3.9946
 Frc consts  --      0.0355                 0.0342                 0.1309
 IR Inten    --      5.3487                 0.0828                 3.5743

                      7                      8                      9
                      A                      A                      A
 Frequencies --    251.9344               291.2803               350.7058
 Red. masses --      1.9873                 2.2613                 2.3539
 Frc consts  --      0.0743                 0.1130                 0.1706
 IR Inten    --      0.7100                 1.3617                 1.8620

                     10                     11                     12
                      A                      A                      A
 Frequencies --    366.8204               387.0366               423.5308
 Red. masses --      2.7845                 3.5478                 2.7586
 Frc consts  --      0.2207                 0.3131                 0.2915
 IR Inten    --      0.9537                 0.5213                 2.2527

                     13                     14                     15
                      A                      A                      A
 Frequencies --    477.2493               573.6216               621.9133
 Red. masses --      2.9846                 2.8625                 3.2949
 Frc consts  --      0.4005                 0.5549                 0.7508
 IR Inten    --      0.4524                 2.2663                 5.9740

                     16                     17                     18
                      A                      A                      A
 Frequencies --    650.1621               725.3297               849.3635
 Red. masses --      3.0572                 2.6225                 2.3302
 Frc consts  --      0.7614                 0.8129                 0.9905
 IR Inten    --      1.2528                27.5136                 7.5149

                     19                     20                     21
                      A                      A                      A
 Frequencies --    872.3029               903.2103               929.0849
 Red. masses --      1.4999                 2.4836                 2.0454
 Frc consts  --      0.6724                 1.1937                 1.0402
 IR Inten    --      4.1662                 1.9896                11.1348

                     22                     23                     24
                      A                      A                      A
 Frequencies --    978.7815               996.4481              1012.2404
 Red. masses --      1.6213                 1.5595                 1.7231
 Frc consts  --      0.9151                 0.9123                 1.0403
 IR Inten    --      2.0764                 0.9918                 7.9097

                     25                     26                     27
                      A                      A                      A
 Frequencies --   1036.7988              1047.9522              1074.6793
 Red. masses --      1.5740                 1.5621                 1.7220
 Frc consts  --      0.9969                 1.0107                 1.1718
 IR Inten    --      0.9758                 1.9972                 0.6554

                     28                     29                     30
                      A                      A                      A
 Frequencies --   1114.0338              1136.8040              1156.5456
 Red. masses --      2.6229                 1.9286                 1.7595
 Frc consts  --      1.9179                 1.4684                 1.3866
 IR Inten    --     12.3477                 0.8373                 1.5479

                     31                     32                     33
                      A                      A                      A
 Frequencies --   1176.6653              1211.6020              1226.2924
 Red. masses --      2.6383                 1.4914                 1.6848
 Frc consts  --      2.1522                 1.2900                 1.4927
 IR Inten    --     43.0134                 8.0974                 6.4356

                     34                     35                     36
                      A                      A                      A
 Frequencies --   1245.7928              1306.7168              1346.4378
 Red. masses --      1.8294                 1.2031                 1.3693
 Frc consts  --      1.6728                 1.2104                 1.4626
 IR Inten    --      0.6427                 3.8359                 2.3577

                     37                     38                     39
                      A                      A                      A
 Frequencies --   1381.5740              1389.0508              1401.1449
 Red. masses --      1.5281                 1.4152                 1.7978
 Frc consts  --      1.7185                 1.6088                 2.0795
 IR Inten    --      0.1422                 0.1927                 0.7533

                     40                     41                     42
                      A                      A                      A
 Frequencies --   1411.7487              1432.7080              1438.8352
 Red. masses --      1.4790                 1.2120                 1.1915
 Frc consts  --      1.7367                 1.4657                 1.4534
 IR Inten    --      1.6971                 5.0207                10.2345

                     43                     44                     45
                      A                      A                      A
 Frequencies --   1463.6160              1503.5460              1506.8359
 Red. masses --      1.2679                 1.0797                 1.0564
 Frc consts  --      1.6003                 1.4382                 1.4132
 IR Inten    --      6.7927                 4.2631                 3.3948

                     46                     47                     48
                      A                      A                      A
 Frequencies --   1510.1235              1515.9992              1529.6096
 Red. masses --      1.0890                 1.0728                 1.0707
 Frc consts  --      1.4631                 1.4526                 1.4759
 IR Inten    --      0.9124                 1.0438                 7.9047

                     49                     50                     51
                      A                      A                      A
 Frequencies --   1531.6204              1538.8577              1661.7782
 Red. masses --      1.0792                 1.0668                 8.2608
 Frc consts  --      1.4916                 1.4884                13.4405
 IR Inten    --      2.6662                 3.4621               187.4843

                     52                     53                     54
                      A                      A                      A
 Frequencies --   1787.3455              2882.3205              3007.4246
 Red. masses --      8.6760                 1.0819                 1.0686
 Frc consts  --     16.3300                 5.2955                 5.6943
 IR Inten    --    112.3210               166.4506                29.9405

                     55                     56                     57
                      A                      A                      A
 Frequencies --   3012.1788              3040.0827              3043.9927
 Red. masses --      1.0814                 1.0656                 1.0733
 Frc consts  --      5.7810                 5.8026                 5.8595
 IR Inten    --     17.7798                38.4148                 4.1784

                     58                     59                     60
                      A                      A                      A
 Frequencies --   3054.4617              3057.6343              3060.2119
 Red. masses --      1.0468                 1.0678                 1.0381
 Frc consts  --      5.7544                 5.8820                 5.7278
 IR Inten    --     23.2831                45.1821                14.7453

                     61                     62                     63
                      A                      A                      A
 Frequencies --   3081.5280              3091.5841              3122.2366
 Red. masses --      1.0976                 1.1044                 1.0998
 Frc consts  --      6.1410                 6.2191                 6.3167
 IR Inten    --     50.3696                55.7512                 3.7400

                     64                     65                     66
                      A                      A                      A
 Frequencies --   3123.9171              3130.1671              3134.5904
 Red. masses --      1.1019                 1.1022                 1.1028
 Frc consts  --      6.3357                 6.3629                 6.3839
 IR Inten    --     38.7341                18.4026                26.8745

 - Thermochemistry -
 -------------------
 Temperature   298.150 Kelvin.  Pressure   1.00000 Atm.
 Atom     1 has atomic number  6 and mass  12.00000

 Molecular mass:   138.10447 amu.
 Principal axes and moments of inertia in atomic units:
                           1         2         3
     Eigenvalues --   923.497991614.748332298.31778
           X            0.99998  -0.00190  -0.00642
           Y            0.00191   1.00000   0.00208
           Z            0.00642  -0.00209   0.99998
 This molecule is an asymmetric top.
 Rotational symmetry number  1.
 Warning -- assumption of classical behavior for rotation
           may cause significant error
 Rotational temperatures (Kelvin)      0.09379     0.05364     0.03769
 Rotational constants (GHZ):           1.95424     1.11766     0.78524
 Zero-point vibrational energy     559564.2 (Joules/Mol)
                                  133.73906 (Kcal/Mol)
 Warning -- explicit consideration of  14 degrees of freedom as
           vibrations may cause significant error
 Vibrational temperatures:    112.02   142.73   202.61   273.34   316.68
          (Kelvin)            339.27   362.48   419.09   504.59   527.77
                              556.86   609.37   686.66   825.31   894.79
                              935.44  1043.59  1222.04  1255.05  1299.52
                             1336.75  1408.25  1433.67  1456.39  1491.72
                             1507.77  1546.22  1602.85  1635.61  1664.01
                             1692.96  1743.23  1764.36  1792.42  1880.07
                             1937.22  1987.78  1998.53  2015.93  2031.19
                             2061.35  2070.16  2105.82  2163.27  2168.00
                             2172.73  2181.18  2200.77  2203.66  2214.07
                             2390.93  2571.59  4147.02  4327.01  4333.85
                             4374.00  4379.63  4394.69  4399.25  4402.96
                             4433.63  4448.10  4492.20  4494.62  4503.61
                             4509.98

 Zero-point correction=                           0.213127 (Hartree/Particle)
 Thermal correction to Energy=                    0.223439
 Thermal correction to Enthalpy=                  0.224383
 Thermal correction to Gibbs Free Energy=         0.177913
 Sum of electronic and zero-point Energies=           -426.430828
 Sum of electronic and thermal Energies=              -426.420516
 Sum of electronic and thermal Enthalpies=            -426.419571
 Sum of electronic and thermal Free Energies=         -426.466042

                     E (Thermal)             CV                S
                      KCal/Mol        Cal/Mol-Kelvin    Cal/Mol-Kelvin
 Total                  140.210             39.057             97.805
 Electronic               0.000              0.000              0.000
 Translational            0.889              2.981             40.680
 Rotational               0.889              2.981             29.617
 Vibrational            138.432             33.095             27.507
 Vibration     1          0.599              1.964              3.944
 Vibration     2          0.604              1.950              3.470
 Vibration     3          0.615              1.912              2.793
 Vibration     4          0.633              1.854              2.228
 Vibration     5          0.647              1.810              1.958
 Vibration     6          0.655              1.786              1.834
 Vibration     7          0.664              1.760              1.717
 Vibration     8          0.687              1.690              1.467
 Vibration     9          0.728              1.574              1.163
 Vibration    10          0.740              1.540              1.093
 Vibration    11          0.755              1.498              1.012
 Vibration    12          0.786              1.419              0.880
 Vibration    13          0.834              1.301              0.718
 Vibration    14          0.930              1.088              0.497

 Optimization completed.
    -- Stationary point found.

 1\1\GINC-NODE123\Freq\RB3LYP\6-31G(d)\C9H14O1\VSC10255\08-Dec-2020\0\\
 #N Geom=AllCheck Guess=TCheck SCRF=Check GenChk RB3LYP/6-31G(d) Freq\\
 CID_21707413_JID_222_neutraal\\0,1\C,0.9552298205,-0.078079348,0.07246
 13465\C,0.1576706704,-1.163749496,0.8268839579\C,0.9228863462,-2.49500
 4996,0.8889576731\C,0.8119372435,-3.2567706296,-0.4326697243\C,-0.6534
 067044,-3.585253776,-0.7179855126\C,-1.5843833664,-2.4086270638,-0.484
 9971215\C,-1.2281215076,-1.3068898624,0.2234798486\C,-2.1568788557,-0.
 1419650827,0.4599801481\C,-2.9289894441,-2.5675230455,-1.0692047807\O,

 Normal termination of Gaussian 16 at Tue Dec  8 10:28:27 2020.

 ----------------------------------------------------------------------
 # B3LYP/6-311++G(d,p) empiricaldispersion=gd3bj scf=xqc pop=npa geom=c
 heck
 ----------------------------------------------------------------------

 -------------------------------------
 CID_21707413_JID_222_Energie_neutraal
 -------------------------------------
 Structure from the checkpoint file:  "JID_222.chk"
 Charge =  0 Multiplicity = 1

 SCF Done:  E(RB3LYP) =  -426.761989653     A.U. after   14 cycles
 Normal termination of Gaussian 16 at Tue Dec  8 10:30:32 2020.

 ----------------------------------------------------------------------
 # B3LYP/6-311++G(d,p) empiricaldispersion=gd3bj scf=xqc pop=npa geom=c
 heck
 ----------------------------------------------------------------------

 -----------------------------------
 CID_21707413_JID_222_Energie_kation
 -----------------------------------
 Structure from the checkpoint file:  "JID_222.chk"
 Charge =  1 Multiplicity = 2

 SCF Done:  E(UB3LYP) =  -426.438166507     A.U. after   24 cycles
 Normal termination of Gaussian 16 at Tue Dec  8 10:37:03 2020.
 Gaussian 16:  ES64L-G16RevA.03 25-Dec-2016

 ----------------------------------
 CID_21707413_JID_222_Energie_anion
 ----------------------------------
 Structure from the checkpoint file:  "JID_222.chk"
 Charge = -1 Multiplicity = 2

                         Standard orientation:
 ---------------------------------------------------------------------
 Center     Atomic      Atomic             Coordinates (Angstroms)
 Number     Number       Type             X           Y           Z
 ---------------------------------------------------------------------
      1          6           0       -1.878224    1.538106    0.836674
      2          6           0       -1.286816    0.813536   -0.391809
      3          6           0       -2.010737   -0.511824   -0.676425
      4          6           0       -1.533944   -1.614684    0.269970
      5          6           0       -0.038617   -1.858442    0.067194
      6          6           0        0.769717   -0.575329   -0.008103
      7          6           0        0.212615    0.643352   -0.225219
      8          6           0        1.018136    1.916162   -0.306851
      9          6           0        2.224696   -0.759081    0.146116
     10          8           0        3.084116    0.108668    0.139597
     11          1           0       -1.364695    2.484480    1.032737
     12          1           0       -1.790414    0.920699    1.736584
     13          1           0       -2.939346    1.756489    0.672858
     14          1           0       -1.433860    1.479912   -1.254661
     15          1           0       -1.808726   -0.819268   -1.711291
     16          1           0       -3.094278   -0.364414   -0.594498
     17          1           0       -1.720730   -1.318399    1.309880
     18          1           0       -2.094239   -2.541222    0.101219
     19          1           0        0.354930   -2.489939    0.875132
     20          1           0        0.115175   -2.435882   -0.857841
     21          1           0        0.373456    2.766234   -0.551184
     22          1           0        1.537380    2.126743    0.633746
     23          1           0        1.806556    1.838496   -1.061106
     24          1           0        2.524895   -1.824054    0.282378
 ---------------------------------------------------------------------

 SCF Done:  E(UB3LYP) =  -426.759902226     A.U. after   33 cycles
 SCF Done:  E(UB3LYP) =  -426.759902226     a.u. after    1 cycles

 The electronic state is 2-A.
 Alpha  occ. eigenvalues --  -18.91739 -10.05551 -10.04492 -10.04210 -10.04125
 Alpha  occ. eigenvalues --  -10.03768 -10.03113 -10.01494 -10.01425 -10.00649
 Alpha  occ. eigenvalues --   -0.85401  -0.70950  -0.63878  -0.62515  -0.56431
 Alpha  occ. eigenvalues --   -0.53537  -0.47933  -0.46741  -0.42049  -0.35837
 Alpha  occ. eigenvalues --   -0.34434  -0.32209  -0.30168  -0.29420  -0.28499
 Alpha  occ. eigenvalues --   -0.27275  -0.26666  -0.25434  -0.24693  -0.23892
 Alpha  occ. eigenvalues --   -0.22725  -0.21689  -0.21285  -0.19908  -0.18557
 Alpha  occ. eigenvalues --   -0.17564  -0.09477  -0.07473   0.05486
 Alpha virt. eigenvalues --    0.07843   0.09174   0.10018   0.10271   0.11393
 Alpha virt. eigenvalues --    0.11881   0.12409   0.12523   0.13578   0.14406
 Alpha virt. eigenvalues --    0.14807   0.15252   0.16185   0.16867   0.17885

  Beta  occ. eigenvalues --  -18.91218 -10.05266 -10.04492 -10.04245 -10.04116
  Beta  occ. eigenvalues --  -10.03762 -10.03042 -10.01454 -10.01056 -10.00676
  Beta  occ. eigenvalues --   -0.84458  -0.70745  -0.63703  -0.62213  -0.56262
  Beta  occ. eigenvalues --   -0.53409  -0.47509  -0.46523  -0.41606  -0.35686
  Beta  occ. eigenvalues --   -0.34263  -0.31962  -0.30033  -0.29245  -0.28243
  Beta  occ. eigenvalues --   -0.26896  -0.26386  -0.25223  -0.24470  -0.23766
  Beta  occ. eigenvalues --   -0.22648  -0.21450  -0.20040  -0.18883  -0.18321
  Beta  occ. eigenvalues --   -0.17408  -0.07846  -0.07048
  Beta virt. eigenvalues --    0.08164   0.09286   0.10083   0.10383   0.11402
  Beta virt. eigenvalues --    0.11924   0.12048   0.12506   0.12800   0.13705
  Beta virt. eigenvalues --    0.14504   0.14871   0.15313   0.16207   0.16846

 Mulliken charges and spin densities:
               1          2
     1  C    0.559921  -1.282469
     2  C   -0.918007   1.141800
     3  C   -0.061277  -0.348059
     4  C   -0.180740  -0.081216
     5  C   -0.772636  -0.120881
     6  C    0.381525   0.154859
     7  C    0.731901   0.098911
     8  C   -0.121216  -0.497287
     9  C   -0.528406   0.246103
    10  O   -0.368190   0.160859
    11  H    0.079126   0.058249
    12  H   -0.002010   0.123814
    13  H   -0.479009   0.609213
    14  H   -0.185865   0.376891
    15  H    0.147832  -0.036357
    16  H   -0.171092   0.326448
    17  H    0.137818  -0.034164
    18  H    0.107322   0.027223
    19  H    0.116055  -0.003805
    20  H    0.134613  -0.001031
    21  H    0.006157   0.081291
    22  H    0.183183   0.007525
    23  H    0.173258   0.007981
    24  H    0.029740  -0.015897
 Sum of Mulliken charges =  -1.00000   1.00000

 Dipole moment (field-independent basis, Debye):
    X=             -1.7118    Y=             -3.2051    Z=             -0.0653  Tot=              3.6341
 Quadrupole moment (field-independent basis, Debye-Ang):
   XX=           -117.3556   YY=            -82.9586   ZZ=            -74.7118
   XY=              9.2148   XZ=             -0.4587   YZ=              0.3021

 Summary of Natural Population Analysis:

                                       Natural Population
                Natural  -----------------------------------------------
    Atom  No    Charge         Core      Valence    Rydberg      Total
 -----------------------------------------------------------------------
      C    1   -0.27706      0.99964     2.27141    0.00601     3.27706
      C    2   -0.12506      0.99957     2.11402    0.01147     3.12506
      C    3   -0.18561      0.99962     2.17587    0.01012     3.18561
      C    4   -0.18897      0.99964     2.18036    0.00897     3.18897
      C    5   -0.18760      0.99961     2.18091    0.00708     3.18760
      C    6   -0.09959      0.99941     2.08842    0.01177     3.09959
      C    7    0.11018      0.99945     1.88143    0.00895     2.88982
      C    8   -0.30676      0.99963     2.29991    0.00721     3.30676
      C    9    0.23594      0.99967     1.74384    0.02055     2.76406
      O   10   -0.25417      0.99988     3.24703    0.00725     4.25417
      H   11    0.09828      0.00000     0.40095    0.00078     0.40172
      H   12    0.09324      0.00000     0.40578    0.00098     0.40676
      H   13    0.09629      0.00000     0.40072    0.00299     0.40371
      H   14    0.09901      0.00000     0.39861    0.00238     0.40099
      H   15    0.09285      0.00000     0.40613    0.00102     0.40715
      H   16    0.09435      0.00000     0.40461    0.00104     0.40565
      H   17    0.09211      0.00000     0.40670    0.00119     0.40789
      H   18    0.08980      0.00000     0.40924    0.00096     0.41020
      H   19    0.09474      0.00000     0.40396    0.00130     0.40526
      H   20    0.09045      0.00000     0.40793    0.00163     0.40955
      H   21    0.08726      0.00000     0.41187    0.00087     0.41274
      H   22    0.11128      0.00000     0.38777    0.00095     0.38872
      H   23    0.11500      0.00000     0.38384    0.00115     0.38500
      H   24    0.02404      0.00000     0.47285    0.00311     0.47596
 =======================================================================
   * Total *   -0.00000      9.99612    27.88415    0.11973    38.00000

 Normal termination of Gaussian 16 at Tue Dec  8 10:45:42 2020.
