 Gaussian 16, Revision A.03,

 -----------------------------------------------------------
 # opt freq B3LYP/6-31G(d) empiricaldispersion=gd3bj scf=xqc
 -----------------------------------------------------------

 -------------------------------
 CID_115671378_JID_6661_neutraal
 -------------------------------
 Symbolic Z-matrix:
 Charge =  0 Multiplicity = 1

 SCF Done:  E(RB3LYP) =  -1404.90019514     A.U. after   15 cycles
 SCF Done:  E(RB3LYP) =  -1404.90663699     A.U. after   12 cycles
 SCF Done:  E(RB3LYP) =  -1404.90787118     A.U. after   12 cycles
 SCF Done:  E(RB3LYP) =  -1404.90846184     A.U. after   12 cycles
 SCF Done:  E(RB3LYP) =  -1404.90920350     A.U. after   13 cycles
 SCF Done:  E(RB3LYP) =  -1404.90946813     A.U. after   13 cycles
 SCF Done:  E(RB3LYP) =  -1404.91013675     A.U. after   11 cycles
 SCF Done:  E(RB3LYP) =  -1404.91058610     A.U. after   12 cycles
 SCF Done:  E(RB3LYP) =  -1404.91061890     A.U. after   12 cycles
 SCF Done:  E(RB3LYP) =  -1404.91071028     A.U. after   10 cycles
 SCF Done:  E(RB3LYP) =  -1404.91075005     A.U. after    9 cycles
 SCF Done:  E(RB3LYP) =  -1404.91075100     A.U. after    9 cycles
 SCF Done:  E(RB3LYP) =  -1404.91075117     A.U. after    7 cycles
 SCF Done:  E(RB3LYP) =  -1404.91075128     A.U. after    7 cycles
 SCF Done:  E(RB3LYP) =  -1404.91075131     A.U. after    6 cycles
 Optimization completed.
    -- Stationary point found.
 Normal termination of Gaussian 16 at Fri Dec 11 00:11:03 2020.

 --------------------------------------------------------------------
 #N Geom=AllCheck Guess=TCheck SCRF=Check GenChk RB3LYP/6-31G(d) Freq
 --------------------------------------------------------------------

 Structure from the checkpoint file:  "JID_6661.chk"
 -------------------------------
 CID_115671378_JID_6661_neutraal
 -------------------------------
 Charge =  0 Multiplicity = 1

 SCF Done:  E(RB3LYP) =  -1404.91075131     A.U. after    1 cycles

  Exact polarizability: 193.350   7.394 165.129 -12.594  -5.743 121.936
 Approx polarizability: 256.303  30.558 281.444 -29.007 -27.041 214.559

                      1                      2                      3
                      A                      A                      A
 Frequencies --     22.6753                25.3700                33.2623
 Red. masses --      6.0631                 5.1125                 6.3029
 Frc consts  --      0.0018                 0.0019                 0.0041
 IR Inten    --      0.3888                 0.0487                 1.0709

                      4                      5                      6
                      A                      A                      A
 Frequencies --     61.0314                79.3122                94.5587
 Red. masses --      3.2471                 3.5476                 5.2007
 Frc consts  --      0.0071                 0.0131                 0.0274
 IR Inten    --      0.1365                 0.5160                 0.4478

                      7                      8                      9
                      A                      A                      A
 Frequencies --    128.0351               155.9351               168.5633
 Red. masses --      1.6248                 1.8469                 1.3577
 Frc consts  --      0.0157                 0.0265                 0.0227
 IR Inten    --      4.4703                10.2980                 1.5978

                     10                     11                     12
                      A                      A                      A
 Frequencies --    189.2611               219.5415               220.1515
 Red. masses --      3.3066                 4.6912                 2.5918
 Frc consts  --      0.0698                 0.1332                 0.0740
 IR Inten    --      2.3403                 3.2126                 0.4573

                     13                     14                     15
                      A                      A                      A
 Frequencies --    241.8191               292.0682               327.0497
 Red. masses --      3.4771                 5.6858                 2.7769
 Frc consts  --      0.1198                 0.2858                 0.1750
 IR Inten    --      1.3980                 4.2803                 5.1657

                     16                     17                     18
                      A                      A                      A
 Frequencies --    358.8278               394.0193               422.0051
 Red. masses --      2.2354                 3.4127                 6.0079
 Frc consts  --      0.1696                 0.3122                 0.6304
 IR Inten    --      3.1831                 2.2535                 2.4981

                     19                     20                     21
                      A                      A                      A
 Frequencies --    472.3858               494.9414               551.8958
 Red. masses --      4.4508                 4.7654                 5.5933
 Frc consts  --      0.5852                 0.6878                 1.0038
 IR Inten    --      8.0649                 7.6443                 0.3619

                     22                     23                     24
                      A                      A                      A
 Frequencies --    571.3005               587.0729               641.2285
 Red. masses --      4.4351                 7.0566                 6.0895
 Frc consts  --      0.8529                 1.4330                 1.4752
 IR Inten    --     10.6959                 5.4592                 9.4525

                     25                     26                     27
                      A                      A                      A
 Frequencies --    662.1581               676.5218               717.4141
 Red. masses --      7.5989                 5.5828                 5.4331
 Frc consts  --      1.9630                 1.5055                 1.6476
 IR Inten    --      2.3496                 3.1442                25.7191

                     28                     29                     30
                      A                      A                      A
 Frequencies --    721.0285               734.4061               748.3493
 Red. masses --      1.4178                 1.3357                 2.1260
 Frc consts  --      0.4343                 0.4245                 0.7015
 IR Inten    --     18.0058                10.3947                 9.5810

                     31                     32                     33
                      A                      A                      A
 Frequencies --    810.2541               818.9158               848.9794
 Red. masses --      2.8827                 1.3334                 3.2267
 Frc consts  --      1.1151                 0.5268                 1.3703
 IR Inten    --     19.8670                35.2699                63.9400

                     34                     35                     36
                      A                      A                      A
 Frequencies --    859.9257               880.2275               932.1091
 Red. masses --      2.2083                 4.5033                 3.0131
 Frc consts  --      0.9621                 2.0557                 1.5424
 IR Inten    --     71.4182                26.6585                 1.7348

                     37                     38                     39
                      A                      A                      A
 Frequencies --    945.0076               960.6564              1012.0450
 Red. masses --      3.4434                 3.2136                 2.0141
 Frc consts  --      1.8118                 1.7473                 1.2154
 IR Inten    --     27.2807                 8.6343                 9.7960

                     40                     41                     42
                      A                      A                      A
 Frequencies --   1016.3898              1094.6680              1114.7087
 Red. masses --      3.7956                 1.4528                 1.7435
 Frc consts  --      2.3102                 1.0257                 1.2764
 IR Inten    --     18.8441                16.2834                33.4049

                     43                     44                     45
                      A                      A                      A
 Frequencies --   1136.6370              1141.0715              1155.7725
 Red. masses --      1.2806                 1.7878                 2.3775
 Frc consts  --      0.9748                 1.3715                 1.8712
 IR Inten    --     18.1817                54.3038                23.0746

                     46                     47                     48
                      A                      A                      A
 Frequencies --   1168.2991              1173.7342              1183.9532
 Red. masses --      1.6980                 1.6138                 1.6075
 Frc consts  --      1.3655                 1.3099                 1.3276
 IR Inten    --      6.9460                83.1341                 4.9319

                     49                     50                     51
                      A                      A                      A
 Frequencies --   1225.2802              1268.9150              1280.5790
 Red. masses --      1.2838                 1.4283                 2.7583
 Frc consts  --      1.1356                 1.3549                 2.6650
 IR Inten    --      2.2162                 6.4226                41.0771

                     52                     53                     54
                      A                      A                      A
 Frequencies --   1314.5259              1341.0101              1367.9867
 Red. masses --      1.7760                 2.3338                 2.0227
 Frc consts  --      1.8081                 2.4727                 2.2302
 IR Inten    --     26.4149                57.8409                 5.0150

                     55                     56                     57
                      A                      A                      A
 Frequencies --   1380.5805              1385.8754              1433.9916
 Red. masses --      3.9051                 1.4330                 1.9933
 Frc consts  --      4.3854                 1.6216                 2.4149
 IR Inten    --     69.4364                16.6553                15.2410

                     58                     59                     60
                      A                      A                      A
 Frequencies --   1464.6608              1486.9681              1495.2804
 Red. masses --      1.1574                 1.2954                 1.9531
 Frc consts  --      1.4629                 1.6875                 2.5729
 IR Inten    --     11.1980                43.7919                31.3076

                     61                     62                     63
                      A                      A                      A
 Frequencies --   1496.9058              1511.3814              1518.4672
 Red. masses --      1.7963                 1.0664                 1.2530
 Frc consts  --      2.3715                 1.4353                 1.7023
 IR Inten    --     19.9024                18.4223                38.2169

                     64                     65                     66
                      A                      A                      A
 Frequencies --   1522.2483              1527.1602              1530.9004
 Red. masses --      1.0761                 1.0512                 1.1200
 Frc consts  --      1.4692                 1.4444                 1.5466
 IR Inten    --     52.0299                 5.3802                20.5406

                     67                     68                     69
                      A                      A                      A
 Frequencies --   1538.7484              1571.0382              1596.4076
 Red. masses --      1.1062                 6.6927                 6.1060
 Frc consts  --      1.5431                 9.7325                 9.1684
 IR Inten    --      2.2641                13.3971                37.3160

                     70                     71                     72
                      A                      A                      A
 Frequencies --   1618.1898              2983.9134              3004.0502
 Red. masses --      4.0304                 1.0681                 1.0516
 Frc consts  --      6.2181                 5.6029                 5.5916
 IR Inten    --    371.5056                34.3226                49.6415

                     73                     74                     75
                      A                      A                      A
 Frequencies --   3015.5729              3033.4210              3055.0859
 Red. masses --      1.0542                 1.0914                 1.0599
 Frc consts  --      5.6481                 5.9168                 5.8284
 IR Inten    --     91.2146                25.3045                41.0061

                     76                     77                     78
                      A                      A                      A
 Frequencies --   3094.8442              3099.8547              3108.4469
 Red. masses --      1.0841                 1.1052                 1.0858
 Frc consts  --      6.1176                 6.2573                 6.1815
 IR Inten    --     19.7923                18.8873                34.8477

                     79                     80                     81
                      A                      A                      A
 Frequencies --   3140.5243              3182.1261              3246.1558
 Red. masses --      1.1019                 1.0997                 1.0940
 Frc consts  --      6.4033                 6.5606                 6.7919
 IR Inten    --     23.8177                 3.8876                 1.6414

                     82                     83                     84
                      A                      A                      A
 Frequencies --   3277.7979              3299.0407              3486.6012
 Red. masses --      1.0948                 1.0942                 1.0734
 Frc consts  --      6.9301                 7.0163                 7.6883
 IR Inten    --      1.4444                 3.1194                 0.9052

 - Thermochemistry -
 -------------------
 Temperature   298.150 Kelvin.  Pressure   1.00000 Atm.
 Atom     1 has atomic number  6 and mass  12.00000

 Molecular mass:   254.06599 amu.
 Principal axes and moments of inertia in atomic units:
                           1         2         3
     Eigenvalues --  1983.64266********************
           X            0.99979  -0.02006  -0.00331
           Y            0.02009   0.99976   0.00855
           Z            0.00314  -0.00861   0.99996
 This molecule is an asymmetric top.
 Rotational symmetry number  1.
 Warning -- assumption of classical behavior for rotation
           may cause significant error
 Rotational temperatures (Kelvin)      0.04366     0.00784     0.00705
 Rotational constants (GHZ):           0.90981     0.16333     0.14693
 Zero-point vibrational energy     629056.8 (Joules/Mol)
                                  150.34818 (Kcal/Mol)
 Warning -- explicit consideration of  23 degrees of freedom as
           vibrations may cause significant error
 Vibrational temperatures:     32.62    36.50    47.86    87.81   114.11
          (Kelvin)            136.05   184.21   224.36   242.53   272.30
                              315.87   316.75   347.92   420.22   470.55
                              516.27   566.91   607.17   679.66   712.11
                              794.06   821.97   844.67   922.58   952.70
                              973.36  1032.20  1037.40  1056.65  1076.71
                             1165.77  1178.24  1221.49  1237.24  1266.45
                             1341.10  1359.66  1382.17  1456.11  1462.36
                             1574.98  1603.82  1635.37  1641.75  1662.90
                             1680.92  1688.74  1703.44  1762.90  1825.69
                             1842.47  1891.31  1929.41  1968.23  1986.35
                             1993.97  2063.19  2107.32  2139.42  2151.37
                             2153.71  2174.54  2184.74  2190.18  2197.24
                             2202.62  2213.92  2260.37  2296.87  2328.21
                             4293.19  4322.16  4338.74  4364.42  4395.59
                             4452.79  4460.00  4472.36  4518.51  4578.37
                             4670.49  4716.02  4746.58  5016.44

 Zero-point correction=                           0.239595 (Hartree/Particle)
 Thermal correction to Energy=                    0.255904
 Thermal correction to Enthalpy=                  0.256848
 Thermal correction to Gibbs Free Energy=         0.192478
 Sum of electronic and zero-point Energies=          -1404.671156
 Sum of electronic and thermal Energies=             -1404.654847
 Sum of electronic and thermal Enthalpies=           -1404.653903
 Sum of electronic and thermal Free Energies=        -1404.718273

                     E (Thermal)             CV                S
                      KCal/Mol        Cal/Mol-Kelvin    Cal/Mol-Kelvin
 Total                  160.582             59.219            135.478
 Electronic               0.000              0.000              0.000
 Translational            0.889              2.981             42.497
 Rotational               0.889              2.981             33.953
 Vibrational            158.805             53.258             59.028
 Vibration     1          0.593              1.985              6.385
 Vibration     2          0.593              1.985              6.162
 Vibration     3          0.594              1.983              5.625
 Vibration     4          0.597              1.973              4.424
 Vibration     5          0.600              1.963              3.908
 Vibration     6          0.603              1.953              3.563
 Vibration     7          0.611              1.925              2.975
 Vibration     8          0.620              1.896              2.599
 Vibration     9          0.625              1.881              2.451
 Vibration    10          0.633              1.855              2.235
 Vibration    11          0.647              1.811              1.963
 Vibration    12          0.647              1.810              1.958
 Vibration    13          0.658              1.776              1.789
 Vibration    14          0.687              1.689              1.462
 Vibration    15          0.711              1.621              1.275
 Vibration    16          0.734              1.557              1.127
 Vibration    17          0.761              1.483              0.985
 Vibration    18          0.784              1.422              0.885
 Vibration    19          0.829              1.311              0.731
 Vibration    20          0.851              1.261              0.671
 Vibration    21          0.907              1.136              0.540
 Vibration    22          0.927              1.093              0.502
 Vibration    23          0.944              1.059              0.472

                           ! Non-Optimized Parameters !
 Normal termination of Gaussian 16 at Fri Dec 11 00:19:29 2020.

 ----------------------------------------------------------------------
 # B3LYP/6-311++G(d,p) empiricaldispersion=gd3bj scf=xqc pop=npa geom=c
 heck
 ----------------------------------------------------------------------

 ---------------------------------------
 CID_115671378_JID_6661_Energie_neutraal
 ---------------------------------------
 Structure from the checkpoint file:  "JID_6661.chk"
 Charge =  0 Multiplicity = 1

 SCF Done:  E(RB3LYP) =  -1405.12978832     A.U. after   16 cycles
 Normal termination of Gaussian 16 at Fri Dec 11 00:24:13 2020.

 ----------------------------------------------------------------------
 # B3LYP/6-311++G(d,p) empiricaldispersion=gd3bj scf=xqc pop=npa geom=c
 heck
 ----------------------------------------------------------------------

 -------------------------------------
 CID_115671378_JID_6661_Energie_kation
 -------------------------------------
 Structure from the checkpoint file:  "JID_6661.chk"
 Charge =  1 Multiplicity = 2

 SCF Done:  E(UB3LYP) =  -1404.86433085     A.U. after   27 cycles
 Normal termination of Gaussian 16 at Fri Dec 11 00:35:41 2020.
 Gaussian 16:  ES64L-G16RevA.03 25-Dec-2016

 ----------------------------------------------------------------------
 # B3LYP/6-311++G(d,p) empiricaldispersion=gd3bj scf=xqc pop=npa geom=c
 heck
 ----------------------------------------------------------------------

 ------------------------------------
 CID_115671378_JID_6661_Energie_anion
 ------------------------------------
 Structure from the checkpoint file:  "JID_6661.chk"
 Charge = -1 Multiplicity = 2

                         Standard orientation:
 ---------------------------------------------------------------------
 Center     Atomic      Atomic             Coordinates (Angstroms)
 Number     Number       Type             X           Y           Z
 ---------------------------------------------------------------------
      1          6           0       -3.625440    2.571433   -0.400255
      2          7           0       -4.032632    1.185302   -0.210590
      3          6           0       -5.283326    0.950512    0.486172
      4          6           0       -3.034923    0.249568   -0.130956
      5          7           0       -1.793593    0.465019   -0.478786
      6          6           0       -1.032388   -0.681846   -0.343083
      7          6           0       -1.679399   -1.780729    0.132054
      8         16           0       -3.359471   -1.401740    0.444958
      9          6           0        0.419159   -0.622447   -0.726145
     10          7           0        1.158817   -1.752153   -0.167320
     11          6           0        2.560819   -1.788035   -0.578570
     12          6           0        3.360734   -0.581311   -0.147698
     13          6           0        4.025864    0.298631   -0.954105
     14         16           0        4.754037    1.560618   -0.009189
     15          6           0        4.089146    0.802306    1.419759
     16          7           0        3.402582   -0.278804    1.203374
     17          1           0       -4.471596    3.135652   -0.802980
     18          1           0       -2.794371    2.601697   -1.104321
     19          1           0       -3.298923    3.038936    0.541404
     20          1           0       -5.674229   -0.040951    0.235827
     21          1           0       -5.181322    1.019688    1.580936
     22          1           0       -6.014712    1.692163    0.155256
     23          1           0       -1.279108   -2.768512    0.299828
     24          1           0        0.510204   -0.670481   -1.821112
     25          1           0        0.815799    0.363895   -0.431691
     26          1           0        1.129367   -1.684703    0.849696
     27          1           0        3.010434   -2.690181   -0.147054
     28          1           0        2.605571   -1.889865   -1.668767
     29          1           0        4.122730    0.277720   -2.030472
     30          1           0        4.259411    1.228844    2.401361
 ---------------------------------------------------------------------

 SCF Done:  E(UB3LYP) =  -1405.12067305     A.U. after   33 cycles
 SCF Done:  E(UB3LYP) =  -1405.12067305     a.u. after    1 cycles

 The electronic state is 2-A.
 Alpha  occ. eigenvalues --  -88.77819 -88.76918 -14.24995 -14.20499 -14.20139
 Alpha  occ. eigenvalues --  -14.19971 -10.16825 -10.11181 -10.10686 -10.10661
 Alpha  occ. eigenvalues --  -10.10530 -10.10020 -10.09976 -10.09700 -10.08837
 Alpha  occ. eigenvalues --  -10.08756  -7.86444  -7.85585  -5.82746  -5.82397
 Alpha  occ. eigenvalues --   -5.81987  -5.81856  -5.81514  -5.81215  -0.89076
 Alpha  occ. eigenvalues --   -0.85545  -0.83235  -0.81052  -0.69655  -0.68886
 Alpha  occ. eigenvalues --   -0.67471  -0.64397  -0.62882  -0.59805  -0.55890
 Alpha  occ. eigenvalues --   -0.54168  -0.49252  -0.47441  -0.44738  -0.44451
 Alpha  occ. eigenvalues --   -0.41783  -0.40137  -0.38133  -0.37959  -0.37209
 Alpha  occ. eigenvalues --   -0.35474  -0.34998  -0.32430  -0.31626  -0.31048
 Alpha  occ. eigenvalues --   -0.30811  -0.30453  -0.29773  -0.29172  -0.29002
 Alpha  occ. eigenvalues --   -0.28457  -0.27829  -0.26009  -0.25130  -0.19875
 Alpha  occ. eigenvalues --   -0.18124  -0.17918  -0.17324  -0.17181  -0.14784
 Alpha  occ. eigenvalues --   -0.13684  -0.10597   0.04376
 Alpha virt. eigenvalues --    0.05403   0.07150   0.07926   0.07967   0.08493
 Alpha virt. eigenvalues --    0.08607   0.09062   0.09402   0.09805   0.10666
 Alpha virt. eigenvalues --    0.11209   0.11284   0.11563   0.11745   0.12292

  Beta  occ. eigenvalues --  -88.77816 -88.76877 -14.24995 -14.20496 -14.20069
  Beta  occ. eigenvalues --  -14.19964 -10.16815 -10.10878 -10.10687 -10.10663
  Beta  occ. eigenvalues --  -10.10471 -10.10020 -10.09941 -10.09695 -10.08832
  Beta  occ. eigenvalues --  -10.08578  -7.86440  -7.85548  -5.82743  -5.82395
  Beta  occ. eigenvalues --   -5.81982  -5.81841  -5.81499  -5.81074  -0.89064
  Beta  occ. eigenvalues --   -0.85306  -0.83218  -0.81024  -0.69641  -0.68635
  Beta  occ. eigenvalues --   -0.67404  -0.64231  -0.62818  -0.59694  -0.55800
  Beta  occ. eigenvalues --   -0.54104  -0.48876  -0.47385  -0.44682  -0.44277
  Beta  occ. eigenvalues --   -0.41752  -0.40035  -0.38080  -0.37921  -0.37160
  Beta  occ. eigenvalues --   -0.35438  -0.34921  -0.32336  -0.31563  -0.30908
  Beta  occ. eigenvalues --   -0.30705  -0.30291  -0.29609  -0.29059  -0.28895
  Beta  occ. eigenvalues --   -0.28334  -0.27577  -0.25847  -0.25108  -0.19848
  Beta  occ. eigenvalues --   -0.17911  -0.17435  -0.17179  -0.17064  -0.14157
  Beta  occ. eigenvalues --   -0.13217  -0.10574
  Beta virt. eigenvalues --    0.06859   0.07130   0.07952   0.08056   0.08313
  Beta virt. eigenvalues --    0.08820   0.08857   0.09196   0.09784   0.10064
  Beta virt. eigenvalues --    0.11088   0.11224   0.11410   0.11621   0.12110

 Mulliken charges and spin densities:
               1          2
     1  C    0.440228  -0.796657
     2  N   -0.091821   0.270657
     3  C    1.382606  -1.676767
     4  C    0.156897   0.217325
     5  N   -0.061481   0.037220
     6  C   -0.263394  -0.107803
     7  C    0.580423   0.130509
     8  S   -0.262313  -0.227718
     9  C   -1.577126  -0.012243
    10  N    0.058104   0.004022
    11  C   -0.883887  -0.002384
    12  C   -0.621766  -0.022973
    13  C    0.605463   0.154248
    14  S   -0.415529   0.058369
    15  C    0.100967   0.230209
    16  N    0.004020   0.012562
    17  H   -0.276974   0.423836
    18  H    0.042127   0.128513
    19  H   -0.111553   0.274778
    20  H   -0.478369   0.609876
    21  H   -0.213884   0.385187
    22  H   -0.776089   0.930038
    23  H    0.289763   0.006152
    24  H    0.146602   0.008844
    25  H    0.226613  -0.021301
    26  H    0.221683  -0.000441
    27  H    0.182039   0.004621
    28  H    0.118703   0.001947
    29  H    0.248051  -0.009423
    30  H    0.229899  -0.011205
 Sum of Mulliken charges =  -1.00000   1.00000

 Dipole moment (field-independent basis, Debye):
    X=              8.3201    Y=             -4.2452    Z=             -1.3750  Tot=              9.4412
 Quadrupole moment (field-independent basis, Debye-Ang):
   XX=           -242.4659   YY=           -143.0466   ZZ=           -128.1445
   XY=             22.4644   XZ=             -2.3639   YZ=              0.9174

 Summary of Natural Population Analysis:

                                       Natural Population
                Natural  -----------------------------------------------
    Atom  No    Charge         Core      Valence    Rydberg      Total
 -----------------------------------------------------------------------
      C    1   -0.17370      0.99964     2.16549    0.00857     3.17370
      N    2   -0.25446      0.99963     2.74215    0.01268     3.75446
      C    3   -0.17695      0.99964     2.16853    0.00878     3.17695
      C    4    0.15375      0.99957     1.82631    0.02038     2.84625
      N    5   -0.28064      0.99962     2.77061    0.01041     3.78064
      C    6    0.06794      0.99948     1.91695    0.01563     2.93206
      C    7   -0.22389      0.99944     2.21542    0.00902     3.22389
      S    8    0.15468      4.99947     2.82577    0.02008     7.84532
      C    9   -0.09843      0.99958     2.08803    0.01082     3.09843
      N   10   -0.33752      0.99976     2.82528    0.01248     3.83752
      C   11   -0.09287      0.99959     2.08244    0.01084     3.09287
      C   12    0.04528      0.99949     1.94201    0.01322     2.95472
      C   13   -0.18116      0.99945     2.17210    0.00960     3.18116
      S   14    0.17522      4.99949     2.80274    0.02255     7.82478
      C   15   -0.00040      0.99967     1.98451    0.01621     3.00040
      N   16   -0.24838      0.99966     2.73524    0.01348     3.74838
      H   17    0.09822      0.00000     0.40039    0.00138     0.40178
      H   18    0.10964      0.00000     0.38863    0.00173     0.39036
      H   19    0.09063      0.00000     0.40801    0.00136     0.40937
      H   20    0.10009      0.00000     0.39802    0.00189     0.39991
      H   21    0.09254      0.00000     0.40554    0.00192     0.40746
      H   22    0.10605      0.00000     0.39028    0.00368     0.39395
      H   23    0.11700      0.00000     0.38194    0.00106     0.38300
      H   24    0.09638      0.00000     0.40262    0.00100     0.40362
      H   25    0.09566      0.00000     0.40148    0.00286     0.40434
      H   26    0.17864      0.00000     0.31926    0.00211     0.32136
      H   27    0.09818      0.00000     0.40074    0.00108     0.40182
      H   28    0.09182      0.00000     0.40710    0.00108     0.40818
      H   29    0.10565      0.00000     0.39334    0.00101     0.39435
      H   30    0.09099      0.00000     0.40786    0.00114     0.40901
 =======================================================================
   * Total *    0.00000     23.99317    42.76877    0.23806    67.00000

 Normal termination of Gaussian 16 at Fri Dec 11 00:49:58 2020.
