 Gaussian 16, Revision A.03,

 -----------------------------------------------------------
 # opt freq B3LYP/6-31G(d) empiricaldispersion=gd3bj scf=xqc
 -----------------------------------------------------------

 -----------------------------
 CID_12794840_JID_871_neutraal
 -----------------------------
 Symbolic Z-matrix:
 Charge =  0 Multiplicity = 1

 SCF Done:  E(RB3LYP) =  -463.744796089     A.U. after   13 cycles
 SCF Done:  E(RB3LYP) =  -463.748377415     A.U. after   10 cycles
 SCF Done:  E(RB3LYP) =  -463.748607058     A.U. after   10 cycles
 SCF Done:  E(RB3LYP) =  -463.748629005     A.U. after    8 cycles
 SCF Done:  E(RB3LYP) =  -463.748631078     A.U. after    7 cycles
 SCF Done:  E(RB3LYP) =  -463.748631874     A.U. after    7 cycles
 SCF Done:  E(RB3LYP) =  -463.748633112     A.U. after    8 cycles
 SCF Done:  E(RB3LYP) =  -463.748634044     A.U. after    8 cycles
 SCF Done:  E(RB3LYP) =  -463.748634787     A.U. after    8 cycles
 SCF Done:  E(RB3LYP) =  -463.748634943     A.U. after    7 cycles
 Optimization completed.
    -- Stationary point found.

 1\1\GINC-NODE374\FOpt\RB3LYP\6-31G(d)\C8H14O2\VSC10255\08-Dec-2020\0\\
 # opt freq B3LYP/6-31G(d) empiricaldispersion=gd3bj scf=xqc\\CID_12794
 840_JID_871_neutraal\\0,1\C,0.9660505798,0.0976149684,0.1064545996\C,0
 .1075983988,-0.9860536708,-0.5539697981\C,-0.2965162937,-2.1212009883,
 0.425344069\O,0.6569599272,-3.1938617221,0.2769732826\C,1.5606182572,-
 2.8460892856,-0.736653038\C,0.8399665183,-1.8249086501,-1.6090049189\C
 ,1.8231802472,-1.2603989487,-2.6290508242\C,2.4053026899,-2.4677951803
 ,-3.3971848505\C,2.916914235,-3.5665531822,-2.4492163463\O,1.941861888

 Normal termination of Gaussian 16 at Tue Dec  8 13:08:24 2020.

 --------------------------------------------------------------------
 #N Geom=AllCheck Guess=TCheck SCRF=Check GenChk RB3LYP/6-31G(d) Freq
 --------------------------------------------------------------------

 Structure from the checkpoint file:  "JID_871.chk"
 -----------------------------
 CID_12794840_JID_871_neutraal
 -----------------------------
 Charge =  0 Multiplicity = 1

 SCF Done:  E(RB3LYP) =  -463.748634943     A.U. after    1 cycles

  Exact polarizability: 101.259   1.831  78.841   1.578   1.244  75.087
 Approx polarizability: 125.098   1.911 113.476   2.115   2.483 114.546

                      1                      2                      3
                      A                      A                      A
 Frequencies --     68.3339               130.4306               191.2815
 Red. masses --      2.8212                 2.9774                 2.8232
 Frc consts  --      0.0078                 0.0298                 0.0609
 IR Inten    --      2.6399                 0.1029                 0.0591

                      4                      5                      6
                      A                      A                      A
 Frequencies --    234.1139               252.7754               322.2629
 Red. masses --      1.0723                 2.6604                 2.5004
 Frc consts  --      0.0346                 0.1002                 0.1530
 IR Inten    --      0.2166                 1.0372                 1.5020

                      7                      8                      9
                      A                      A                      A
 Frequencies --    342.6025               392.9860               431.5854
 Red. masses --      1.9078                 2.5569                 3.5243
 Frc consts  --      0.1319                 0.2327                 0.3868
 IR Inten    --      0.8934                 0.6097                 2.4013

                     10                     11                     12
                      A                      A                      A
 Frequencies --    443.7690               522.1157               566.5307
 Red. masses --      4.5981                 2.5656                 3.9771
 Frc consts  --      0.5335                 0.4121                 0.7521
 IR Inten    --      2.6189                 2.0646                 4.1888

                     13                     14                     15
                      A                      A                      A
 Frequencies --    645.3595               716.1756               827.0810
 Red. masses --      2.6552                 3.7250                 2.5147
 Frc consts  --      0.6516                 1.1257                 1.0135
 IR Inten    --      6.4156                 1.1801                 3.6388

                     16                     17                     18
                      A                      A                      A
 Frequencies --    851.6950               876.5435               889.9661
 Red. masses --      2.4804                 1.8600                 2.2271
 Frc consts  --      1.0601                 0.8420                 1.0393
 IR Inten    --      6.8080                 2.2343                 1.4565

                     19                     20                     21
                      A                      A                      A
 Frequencies --    928.6809               960.5378               972.1073
 Red. masses --      1.9693                 1.4682                 2.2791
 Frc consts  --      1.0007                 0.7981                 1.2689
 IR Inten    --      7.0632                 2.9106                11.2332

                     22                     23                     24
                      A                      A                      A
 Frequencies --    984.6731              1012.8564              1064.9242
 Red. masses --      2.6651                 2.2734                 1.4245
 Frc consts  --      1.5224                 1.3741                 0.9518
 IR Inten    --     49.6025                11.2281                25.3689

                     25                     26                     27
                      A                      A                      A
 Frequencies --   1079.0896              1111.2597              1129.3384
 Red. masses --      2.8628                 1.9092                 3.1007
 Frc consts  --      1.9641                 1.3891                 2.3300
 IR Inten    --     45.1122                 1.1978                15.7817

                     28                     29                     30
                      A                      A                      A
 Frequencies --   1135.7802              1159.8723              1178.9547
 Red. masses --      2.7092                 4.1002                 1.9596
 Frc consts  --      2.0591                 3.2499                 1.6048
 IR Inten    --     50.7710               222.4664                 1.3481

                     31                     32                     33
                      A                      A                      A
 Frequencies --   1189.4475              1225.3128              1235.5355
 Red. masses --      2.4372                 1.3954                 1.2621
 Frc consts  --      2.0316                 1.2344                 1.1352
 IR Inten    --     20.3078                 4.5632                 7.2756

                     34                     35                     36
                      A                      A                      A
 Frequencies --   1262.9952              1283.3377              1317.4956
 Red. masses --      1.3175                 1.6808                 1.2571
 Frc consts  --      1.2382                 1.6310                 1.2857
 IR Inten    --      5.7071                 1.9216                11.3172

                     37                     38                     39
                      A                      A                      A
 Frequencies --   1325.9034              1350.8835              1385.0182
 Red. masses --      1.2628                 1.2895                 1.3440
 Frc consts  --      1.3080                 1.3864                 1.5190
 IR Inten    --      1.9070                 1.8003                 1.4240

                     40                     41                     42
                      A                      A                      A
 Frequencies --   1389.1717              1391.2377              1412.8538
 Red. masses --      1.3784                 1.3782                 1.2500
 Frc consts  --      1.5673                 1.5717                 1.4702
 IR Inten    --      6.7882                 2.8176                12.0713

                     43                     44                     45
                      A                      A                      A
 Frequencies --   1420.6531              1438.2902              1450.9850
 Red. masses --      1.3860                 1.4024                 1.4016
 Frc consts  --      1.6481                 1.7093                 1.7386
 IR Inten    --      4.2720                12.2861                12.1055

                     46                     47                     48
                      A                      A                      A
 Frequencies --   1461.5747              1509.3037              1522.5412
 Red. masses --      1.2430                 1.0898                 1.1029
 Frc consts  --      1.5644                 1.4626                 1.5063
 IR Inten    --     21.2436                 4.3771                 6.2241

                     49                     50                     51
                      A                      A                      A
 Frequencies --   1529.1350              1530.2491              1533.6552
 Red. masses --      1.0768                 1.0514                 1.0697
 Frc consts  --      1.4834                 1.4505                 1.4824
 IR Inten    --      3.3957                 3.9077                 3.7020

                     52                     53                     54
                      A                      A                      A
 Frequencies --   1554.0475              2901.7100              2983.1465
 Red. masses --      1.0923                 1.0807                 1.0726
 Frc consts  --      1.5543                 5.3614                 5.6241
 IR Inten    --      0.2273                66.1633                64.1290

                     55                     56                     57
                      A                      A                      A
 Frequencies --   3027.7494              3041.7306              3043.3578
 Red. masses --      1.0816                 1.0604                 1.0613
 Frc consts  --      5.8422                 5.7802                 5.7914
 IR Inten    --      8.2755                56.1508                24.5107

                     58                     59                     60
                      A                      A                      A
 Frequencies --   3048.1757              3050.8609              3065.7696
 Red. masses --      1.0611                 1.0384                 1.0843
 Frc consts  --      5.8090                 5.6947                 6.0045
 IR Inten    --     26.7866                23.4056                32.2948

                     61                     62                     63
                      A                      A                      A
 Frequencies --   3083.2071              3084.5645              3094.8062
 Red. masses --      1.1013                 1.1077                 1.1047
 Frc consts  --      6.1681                 6.2096                 6.2341
 IR Inten    --     23.2946                56.1099                59.5037

                     64                     65                     66
                      A                      A                      A
 Frequencies --   3116.0498              3120.7331              3123.2673
 Red. masses --      1.1022                 1.1019                 1.0929
 Frc consts  --      6.3058                 6.3228                 6.2810
 IR Inten    --     40.3238                36.0542                37.3979

 - Thermochemistry -
 -------------------
 Temperature   298.150 Kelvin.  Pressure   1.00000 Atm.
 Atom     1 has atomic number  6 and mass  12.00000

 Molecular mass:   142.09938 amu.
 Principal axes and moments of inertia in atomic units:
                           1         2         3
     Eigenvalues --   803.005881536.564082054.15401
           X            1.00000   0.00055  -0.00258
           Y           -0.00052   0.99990   0.01412
           Z            0.00258  -0.01412   0.99990
 This molecule is an asymmetric top.
 Rotational symmetry number  1.
 Warning -- assumption of classical behavior for rotation
           may cause significant error
 Rotational temperatures (Kelvin)      0.10786     0.05637     0.04217
 Rotational constants (GHZ):           2.24748     1.17453     0.87858
 Zero-point vibrational energy     567798.2 (Joules/Mol)
                                  135.70702 (Kcal/Mol)
 Warning -- explicit consideration of  12 degrees of freedom as
           vibrations may cause significant error
 Vibrational temperatures:     98.32   187.66   275.21   336.84   363.69
          (Kelvin)            463.66   492.93   565.42   620.96   638.48
                              751.21   815.11   928.53  1030.42  1189.99
                             1225.40  1261.15  1280.46  1336.16  1382.00
                             1398.65  1416.72  1457.27  1532.19  1552.57
                             1598.85  1624.87  1634.13  1668.80  1696.25
                             1711.35  1762.95  1777.66  1817.17  1846.44
                             1895.58  1907.68  1943.62  1992.73  1998.71
                             2001.68  2032.78  2044.00  2069.38  2087.64
                             2102.88  2171.55  2190.60  2200.08  2201.69
                             2206.59  2235.93  4174.91  4292.08  4356.26
                             4376.37  4378.71  4385.65  4389.51  4410.96
                             4436.05  4438.00  4452.74  4483.30  4490.04
                             4493.69

 Zero-point correction=                           0.216263 (Hartree/Particle)
 Thermal correction to Energy=                    0.225197
 Thermal correction to Enthalpy=                  0.226141
 Thermal correction to Gibbs Free Energy=         0.182447
 Sum of electronic and zero-point Energies=           -463.532372
 Sum of electronic and thermal Energies=              -463.523438
 Sum of electronic and thermal Enthalpies=            -463.522494
 Sum of electronic and thermal Free Energies=         -463.566188

                     E (Thermal)             CV                S
                      KCal/Mol        Cal/Mol-Kelvin    Cal/Mol-Kelvin
 Total                  141.313             35.400             91.963
 Electronic               0.000              0.000              0.000
 Translational            0.889              2.981             40.765
 Rotational               0.889              2.981             29.318
 Vibrational            139.536             29.439             21.880
 Vibration     1          0.598              1.969              4.201
 Vibration     2          0.612              1.923              2.940
 Vibration     3          0.634              1.852              2.215
 Vibration     4          0.654              1.789              1.847
 Vibration     5          0.664              1.758              1.711
 Vibration     6          0.707              1.631              1.299
 Vibration     7          0.722              1.590              1.200
 Vibration     8          0.760              1.485              0.989
 Vibration     9          0.793              1.401              0.853
 Vibration    10          0.803              1.375              0.815
 Vibration    11          0.877              1.201              0.605
 Vibration    12          0.922              1.104              0.511

 Optimization completed.
    -- Stationary point found.

 1\1\GINC-NODE374\Freq\RB3LYP\6-31G(d)\C8H14O2\VSC10255\08-Dec-2020\0\\
 #N Geom=AllCheck Guess=TCheck SCRF=Check GenChk RB3LYP/6-31G(d) Freq\\
 CID_12794840_JID_871_neutraal\\0,1\C,0.9660505798,0.0976149684,0.10645
 45996\C,0.1075983988,-0.9860536708,-0.5539697981\C,-0.2965162937,-2.12
 12009883,0.425344069\O,0.6569599272,-3.1938617221,0.2769732826\C,1.560
 6182572,-2.8460892856,-0.736653038\C,0.8399665183,-1.8249086501,-1.609
 0049189\C,1.8231802472,-1.2603989487,-2.6290508242\C,2.4053026899,-2.4
 677951803,-3.3971848505\C,2.916914235,-3.5665531822,-2.4492163463\O,1.

 Normal termination of Gaussian 16 at Tue Dec  8 13:17:14 2020.

 ----------------------------------------------------------------------
 # B3LYP/6-311++G(d,p) empiricaldispersion=gd3bj scf=xqc pop=npa geom=c
 heck
 ----------------------------------------------------------------------

 -------------------------------------
 CID_12794840_JID_871_Energie_neutraal
 -------------------------------------
 Structure from the checkpoint file:  "JID_871.chk"
 Charge =  0 Multiplicity = 1

 SCF Done:  E(RB3LYP) =  -463.879726705     A.U. after   13 cycles
 Normal termination of Gaussian 16 at Tue Dec  8 13:23:51 2020.

 ----------------------------------------------------------------------
 # B3LYP/6-311++G(d,p) empiricaldispersion=gd3bj scf=xqc pop=npa geom=c
 heck
 ----------------------------------------------------------------------

 -----------------------------------
 CID_12794840_JID_871_Energie_kation
 -----------------------------------
 Structure from the checkpoint file:  "JID_871.chk"
 Charge =  1 Multiplicity = 2

 SCF Done:  E(UB3LYP) =  -463.556876786     A.U. after   18 cycles
 Normal termination of Gaussian 16 at Tue Dec  8 13:36:19 2020.
 Gaussian 16:  ES64L-G16RevA.03 25-Dec-2016

 ----------------------------------
 CID_12794840_JID_871_Energie_anion
 ----------------------------------
 Structure from the checkpoint file:  "JID_871.chk"
 Charge = -1 Multiplicity = 2

                         Standard orientation:
 ---------------------------------------------------------------------
 Center     Atomic      Atomic             Coordinates (Angstroms)
 Number     Number       Type             X           Y           Z
 ---------------------------------------------------------------------
      1          6           0       -2.151964    1.313917    0.808511
      2          6           0       -1.663498    0.573392   -0.440674
      3          6           0       -2.046391   -0.931371   -0.443067
      4          8           0       -0.925980   -1.673857    0.081459
      5          6           0        0.117327   -0.775036    0.343402
      6          6           0       -0.139251    0.436211   -0.545526
      7          6           0        0.852461    1.537045   -0.184216
      8          6           0        2.263613    0.923610   -0.322245
      9          6           0        2.388396   -0.417744    0.421300
     10          8           0        1.368803   -1.354535    0.063052
     11          1           0       -3.246818    1.314610    0.853171
     12          1           0       -1.816795    2.356875    0.806051
     13          1           0       -1.785052    0.845711    1.728754
     14          1           0       -2.078377    1.064941   -1.328239
     15          1           0       -2.252848   -1.290026   -1.459240
     16          1           0       -2.924285   -1.137763    0.180210
     17          1           0        0.109382   -0.489315    1.415350
     18          1           0        0.092097    0.091543   -1.563381
     19          1           0        0.688894    1.874482    0.847979
     20          1           0        0.749216    2.416336   -0.830915
     21          1           0        3.029255    1.611270    0.057570
     22          1           0        2.476206    0.755585   -1.385503
     23          1           0        3.337137   -0.906896    0.187157
     24          1           0        2.355245   -0.240364    1.510036
 ---------------------------------------------------------------------

 SCF Done:  E(UB3LYP) =  -463.863596269     A.U. after   28 cycles

 The electronic state is 2-A.
 Alpha  occ. eigenvalues --  -19.02508 -19.02256 -10.15770 -10.11724 -10.11329
 Alpha  occ. eigenvalues --  -10.07480 -10.06655 -10.06587 -10.06508 -10.05448
 Alpha  occ. eigenvalues --   -0.96962  -0.91669  -0.71980  -0.67275  -0.64814
 Alpha  occ. eigenvalues --   -0.58370  -0.55148  -0.51337  -0.48253  -0.46207
 Alpha  occ. eigenvalues --   -0.40576  -0.38666  -0.37405  -0.35759  -0.34776
 Alpha  occ. eigenvalues --   -0.34124  -0.31294  -0.30681  -0.29076  -0.28404
 Alpha  occ. eigenvalues --   -0.27136  -0.25871  -0.24481  -0.22810  -0.22243
 Alpha  occ. eigenvalues --   -0.21944  -0.20520  -0.17165  -0.14434   0.04763
 Alpha virt. eigenvalues --    0.06814   0.07793   0.08440   0.09520   0.09812
 Alpha virt. eigenvalues --    0.10234   0.10986   0.11422   0.12609   0.13030
 Alpha virt. eigenvalues --    0.13416   0.13913   0.14140   0.16350   0.17157

  Beta  occ. eigenvalues --  -19.02501 -19.02256 -10.15762 -10.11710 -10.11315
  Beta  occ. eigenvalues --  -10.07461 -10.06628 -10.06582 -10.06479 -10.05408
  Beta  occ. eigenvalues --   -0.96952  -0.91658  -0.71946  -0.67228  -0.64784
  Beta  occ. eigenvalues --   -0.58312  -0.55096  -0.51287  -0.48207  -0.46148
  Beta  occ. eigenvalues --   -0.40532  -0.38631  -0.37375  -0.35710  -0.34739
  Beta  occ. eigenvalues --   -0.34094  -0.31261  -0.30635  -0.29041  -0.28358
  Beta  occ. eigenvalues --   -0.27098  -0.25829  -0.24442  -0.22763  -0.22208
  Beta  occ. eigenvalues --   -0.21909  -0.20488  -0.17147  -0.14411
  Beta virt. eigenvalues --    0.07310   0.07951   0.08406   0.09261   0.10160
  Beta virt. eigenvalues --    0.10519   0.10780   0.11642   0.11989   0.13151
  Beta virt. eigenvalues --    0.13524   0.13797   0.14436   0.14517   0.16662

 Mulliken charges and spin densities:
               1          2
     1  C    2.124052  -2.830140
     2  C   -1.164278   1.364428
     3  C    0.467813  -0.851925
     4  O   -0.190484   0.022831
     5  C    0.299420  -0.680758
     6  C    0.326372  -0.296758
     7  C   -0.906807   0.602326
     8  C    1.072485  -1.398193
     9  C    0.120881  -0.362570
    10  O   -0.140496   0.036781
    11  H   -0.484723   0.630546
    12  H   -0.405813   0.556677
    13  H   -0.268953   0.418209
    14  H   -0.729120   0.954228
    15  H   -0.139086   0.295393
    16  H   -0.013826   0.181859
    17  H    0.171119   0.043494
    18  H    0.176092   0.052764
    19  H    0.145998   0.017017
    20  H   -0.582281   0.753725
    21  H   -0.827799   1.003760
    22  H    0.089487   0.055724
    23  H   -0.155265   0.339494
    24  H    0.015212   0.091088
 Sum of Mulliken charges =  -1.00000   1.00000

 Dipole moment (field-independent basis, Debye):
    X=              1.2997    Y=             -4.5902    Z=              0.7049  Tot=              4.8224
 Quadrupole moment (field-independent basis, Debye-Ang):
   XX=           -121.7373   YY=           -112.3208   ZZ=            -91.9238
   XY=              2.4807   XZ=             -1.0310   YZ=              0.6836

 Summary of Natural Population Analysis:

                                       Natural Population
                Natural  -----------------------------------------------
    Atom  No    Charge         Core      Valence    Rydberg      Total
 -----------------------------------------------------------------------
      C    1   -0.28735      0.99965     2.28076    0.00694     3.28735
      C    2   -0.12255      0.99959     2.11051    0.01245     3.12255
      C    3   -0.00565      0.99957     1.99310    0.01298     3.00565
      O    4   -0.30103      0.99987     3.29319    0.00797     4.30103
      C    5    0.23218      0.99946     1.75019    0.01817     2.76782
      C    6   -0.13205      0.99954     2.11891    0.01360     3.13205
      C    7   -0.19099      0.99961     2.18097    0.01042     3.19099
      C    8   -0.20148      0.99963     2.19311    0.00874     3.20148
      C    9   -0.01408      0.99957     2.00100    0.01351     3.01408
      O   10   -0.29808      0.99987     3.28968    0.00852     4.29808
      H   11    0.10247      0.00000     0.39584    0.00169     0.39753
      H   12    0.10461      0.00000     0.39373    0.00166     0.39539
      H   13    0.09549      0.00000     0.40316    0.00135     0.40451
      H   14    0.10554      0.00000     0.39191    0.00255     0.39446
      H   15    0.08533      0.00000     0.41327    0.00139     0.41467
      H   16    0.08579      0.00000     0.41282    0.00139     0.41421
      H   17    0.06248      0.00000     0.43540    0.00212     0.43752
      H   18    0.10370      0.00000     0.39424    0.00205     0.39630
      H   19    0.09852      0.00000     0.39961    0.00187     0.40148
      H   20    0.10627      0.00000     0.39178    0.00195     0.39373
      H   21    0.10468      0.00000     0.39298    0.00234     0.39532
      H   22    0.09607      0.00000     0.40261    0.00133     0.40393
      H   23    0.09261      0.00000     0.40620    0.00118     0.40739
      H   24    0.07753      0.00000     0.42110    0.00138     0.42247
 =======================================================================
   * Total *    0.00000      9.99637    28.86608    0.13755    39.00000

 Normal termination of Gaussian 16 at Tue Dec  8 13:42:54 2020.
