 Gaussian 16, Revision A.03,

 -----------------------------------------------------------
 # opt freq B3LYP/6-31G(d) empiricaldispersion=gd3bj scf=xqc
 -----------------------------------------------------------

 ------------------------------
 CID_62535693_JID_5548_neutraal
 ------------------------------
 Symbolic Z-matrix:
 Charge =  0 Multiplicity = 1

 SCF Done:  E(RB3LYP) =  -651.624362743     A.U. after   15 cycles
 SCF Done:  E(RB3LYP) =  -651.647255306     A.U. after   13 cycles
 SCF Done:  E(RB3LYP) =  -651.648520662     A.U. after   12 cycles
 SCF Done:  E(RB3LYP) =  -651.648779418     A.U. after   12 cycles
 SCF Done:  E(RB3LYP) =  -651.648799373     A.U. after   11 cycles
 SCF Done:  E(RB3LYP) =  -651.648862660     A.U. after   10 cycles
 SCF Done:  E(RB3LYP) =  -651.648872017     A.U. after   10 cycles
 SCF Done:  E(RB3LYP) =  -651.648874267     A.U. after    9 cycles
 SCF Done:  E(RB3LYP) =  -651.648874845     A.U. after    8 cycles
 Optimization completed.
    -- Stationary point found.
 Normal termination of Gaussian 16 at Thu Dec 10 16:26:15 2020.

 --------------------------------------------------------------------
 #N Geom=AllCheck Guess=TCheck SCRF=Check GenChk RB3LYP/6-31G(d) Freq
 --------------------------------------------------------------------

 Structure from the checkpoint file:  "JID_5548.chk"
 ------------------------------
 CID_62535693_JID_5548_neutraal
 ------------------------------
 Charge =  0 Multiplicity = 1

 SCF Done:  E(RB3LYP) =  -651.648874845     A.U. after    1 cycles

  Exact polarizability: 148.449 -23.457 119.005  -5.068  -0.581 126.342
 Approx polarizability: 207.232 -43.745 173.871 -14.016   0.689 214.982

                      1                      2                      3
                      A                      A                      A
 Frequencies --     34.6050                45.9510                54.2146
 Red. masses --      4.1100                 4.4391                 3.7607
 Frc consts  --      0.0029                 0.0055                 0.0065
 IR Inten    --      2.1666                 0.5731                 0.7746

                      4                      5                      6
                      A                      A                      A
 Frequencies --     68.1730               111.2480               120.6637
 Red. masses --      3.5679                 2.2762                 3.9476
 Frc consts  --      0.0098                 0.0166                 0.0339
 IR Inten    --      1.4661                 1.9197                 1.5840

                      7                      8                      9
                      A                      A                      A
 Frequencies --    147.6033               174.5203               216.9321
 Red. masses --      4.7863                 4.0446                 3.7126
 Frc consts  --      0.0614                 0.0726                 0.1029
 IR Inten    --      1.9130                 0.8550                 1.0570

                     10                     11                     12
                      A                      A                      A
 Frequencies --    222.6126               238.3565               279.1817
 Red. masses --      2.8216                 1.4056                 1.1747
 Frc consts  --      0.0824                 0.0471                 0.0539
 IR Inten    --      3.8209                 3.3571                 0.1568

                     13                     14                     15
                      A                      A                      A
 Frequencies --    334.9520               345.7401               372.0397
 Red. masses --      3.0520                 3.7842                 1.8692
 Frc consts  --      0.2017                 0.2665                 0.1524
 IR Inten    --      5.3271                 1.2104                 0.4229

                     16                     17                     18
                      A                      A                      A
 Frequencies --    385.8634               415.9656               422.2402
 Red. masses --      2.8372                 2.9737                 3.1753
 Frc consts  --      0.2489                 0.3032                 0.3335
 IR Inten    --      9.0186                 0.5257                 5.9437

                     19                     20                     21
                      A                      A                      A
 Frequencies --    471.2891               500.1277               577.3866
 Red. masses --      4.1917                 4.6706                 5.9977
 Frc consts  --      0.5486                 0.6883                 1.1781
 IR Inten    --      1.4710                 3.3202                 2.2949

                     22                     23                     24
                      A                      A                      A
 Frequencies --    586.6867               618.1857               637.4374
 Red. masses --      2.7757                 3.8510                 6.3505
 Frc consts  --      0.5629                 0.8671                 1.5203
 IR Inten    --     42.0029                 8.8543                 0.0016

                     25                     26                     27
                      A                      A                      A
 Frequencies --    698.9478               722.4540               737.2439
 Red. masses --      2.0034                 1.9295                 2.5231
 Frc consts  --      0.5766                 0.5933                 0.8080
 IR Inten    --     78.8135                51.6848                11.2483

                     28                     29                     30
                      A                      A                      A
 Frequencies --    763.2702               831.0374               860.8662
 Red. masses --      2.0688                 3.6547                 1.2529
 Frc consts  --      0.7101                 1.4871                 0.5471
 IR Inten    --     23.6122                16.3375                 0.6087

                     31                     32                     33
                      A                      A                      A
 Frequencies --    895.4761               923.3834               949.9104
 Red. masses --      1.9220                 1.5364                 1.9911
 Frc consts  --      0.9081                 0.7718                 1.0586
 IR Inten    --      4.9012                 6.8649                 2.9385

                     34                     35                     36
                      A                      A                      A
 Frequencies --    968.2793               979.7118               997.3774
 Red. masses --      1.3637                 1.8978                 1.2547
 Frc consts  --      0.7533                 1.0732                 0.7354
 IR Inten    --      0.2542                 8.9927                 0.6150

                     37                     38                     39
                      A                      A                      A
 Frequencies --   1016.2628              1022.0460              1038.6359
 Red. masses --      2.9119                 5.8854                 1.8090
 Frc consts  --      1.7719                 3.6222                 1.1498
 IR Inten    --     15.8903                 1.7286                 0.8395

                     40                     41                     42
                      A                      A                      A
 Frequencies --   1059.4875              1100.9251              1121.0936
 Red. masses --      2.2789                 2.4978                 1.8143
 Frc consts  --      1.5072                 1.7837                 1.3435
 IR Inten    --      1.5808                10.4788                 8.3731

                     43                     44                     45
                      A                      A                      A
 Frequencies --   1161.0175              1181.8402              1194.4235
 Red. masses --      3.1829                 1.8042                 1.1046
 Frc consts  --      2.5278                 1.4848                 0.9284
 IR Inten    --    106.0294                24.5104                 0.3575

                     46                     47                     48
                      A                      A                      A
 Frequencies --   1195.0912              1207.9081              1215.4299
 Red. masses --      1.7021                 2.5140                 1.1805
 Frc consts  --      1.4323                 2.1611                 1.0275
 IR Inten    --      2.6522               109.9683                 5.3491

                     49                     50                     51
                      A                      A                      A
 Frequencies --   1225.4404              1231.0497              1248.5454
 Red. masses --      2.0229                 3.1607                 1.9646
 Frc consts  --      1.7898                 2.8222                 1.8044
 IR Inten    --     16.5267                24.5079                16.8581

                     52                     53                     54
                      A                      A                      A
 Frequencies --   1280.4271              1324.6896              1364.5173
 Red. masses --      1.2461                 1.6505                 2.8134
 Frc consts  --      1.2037                 1.7065                 3.0863
 IR Inten    --      7.1039                10.0342                 4.9592

                     55                     56                     57
                      A                      A                      A
 Frequencies --   1369.7828              1396.0657              1417.6834
 Red. masses --      1.3947                 1.3335                 1.2722
 Frc consts  --      1.5418                 1.5313                 1.5065
 IR Inten    --      2.9954                 9.1993                 8.9140

                     58                     59                     60
                      A                      A                      A
 Frequencies --   1438.0143              1502.0465              1502.4854
 Red. masses --      1.2646                 1.1520                 1.7569
 Frc consts  --      1.5407                 1.5314                 2.3367
 IR Inten    --     28.0971                 7.5235                 4.8150

                     61                     62                     63
                      A                      A                      A
 Frequencies --   1506.3113              1515.2438              1518.7385
 Red. masses --      1.2239                 1.0476                 1.0869
 Frc consts  --      1.6361                 1.4172                 1.4772
 IR Inten    --      6.4414                 5.4439                 7.8923

                     64                     65                     66
                      A                      A                      A
 Frequencies --   1528.0727              1532.0102              1542.6749
 Red. masses --      1.1049                 1.0689                 1.2009
 Frc consts  --      1.5201                 1.4781                 1.6839
 IR Inten    --     12.1730                 6.0152                10.4687

                     67                     68                     69
                      A                      A                      A
 Frequencies --   1547.7747              1552.3188              1647.5668
 Red. masses --      1.9362                 1.0909                 5.5038
 Frc consts  --      2.7328                 1.5488                 8.8023
 IR Inten    --      6.1452                 4.3423                 1.0217

                     70                     71                     72
                      A                      A                      A
 Frequencies --   1666.5432              2368.1967              2985.0963
 Red. masses --      5.5482                12.6995                 1.0611
 Frc consts  --      9.0790                41.9635                 5.5707
 IR Inten    --      1.9108                 3.0301                33.8201

                     73                     74                     75
                      A                      A                      A
 Frequencies --   2998.4306              3042.5801              3058.2899
 Red. masses --      1.0429                 1.1050                 1.0659
 Frc consts  --      5.5242                 6.0269                 5.8738
 IR Inten    --     60.5094                58.6697                31.9999

                     76                     77                     78
                      A                      A                      A
 Frequencies --   3073.8973              3079.7477              3112.6876
 Red. masses --      1.0907                 1.0390                 1.0978
 Frc consts  --      6.0718                 5.8064                 6.2668
 IR Inten    --     14.9726                16.8947                17.8747

                     79                     80                     81
                      A                      A                      A
 Frequencies --   3145.2964              3152.7795              3168.4020
 Red. masses --      1.0972                 1.1032                 1.0875
 Frc consts  --      6.3955                 6.4609                 6.4325
 IR Inten    --     29.4015                17.6860                10.5741

                     82                     83                     84
                      A                      A                      A
 Frequencies --   3175.6480              3177.0437              3190.1858
 Red. masses --      1.0881                 1.1014                 1.0887
 Frc consts  --      6.4654                 6.5500                 6.5281
 IR Inten    --      8.6162                 6.2681                 3.0868

                     85                     86                     87
                      A                      A                      A
 Frequencies --   3199.6025              3212.2236              3521.1505
 Red. masses --      1.0933                 1.0977                 1.0743
 Frc consts  --      6.5947                 6.6736                 7.8479
 IR Inten    --     32.2147                20.4056                 0.7360

 - Thermochemistry -
 -------------------
 Temperature   298.150 Kelvin.  Pressure   1.00000 Atm.
 Atom     1 has atomic number  6 and mass  12.00000

 Molecular mass:   204.12626 amu.
 Principal axes and moments of inertia in atomic units:
                           1         2         3
     Eigenvalues --  1970.080704451.679275281.44847
           X            0.99995   0.00567   0.00838
           Y           -0.00548   0.99972  -0.02292
           Z           -0.00850   0.02287   0.99970
 This molecule is an asymmetric top.
 Rotational symmetry number  1.
 Warning -- assumption of classical behavior for rotation
           may cause significant error
 Rotational temperatures (Kelvin)      0.04396     0.01946     0.01640
 Rotational constants (GHZ):           0.91607     0.40541     0.34171
 Zero-point vibrational energy     692299.0 (Joules/Mol)
                                  165.46343 (Kcal/Mol)
 Warning -- explicit consideration of  23 degrees of freedom as
           vibrations may cause significant error
 Vibrational temperatures:     49.79    66.11    78.00    98.09   160.06
          (Kelvin)            173.61   212.37   251.10   312.12   320.29
                              342.94   401.68   481.92   497.44   535.28
                              555.17   598.48   607.51   678.08   719.57
                              830.73   844.11   889.43   917.13  1005.63
                             1039.45  1060.73  1098.18  1195.68  1238.59
                             1288.39  1328.54  1366.71  1393.14  1409.59
                             1435.00  1462.18  1470.50  1494.37  1524.37
                             1583.99  1613.00  1670.45  1700.40  1718.51
                             1719.47  1737.91  1748.73  1763.14  1771.21
                             1796.38  1842.25  1905.93  1963.24  1970.81
                             2008.63  2039.73  2068.98  2161.11  2161.74
                             2167.25  2180.10  2185.13  2198.56  2204.22
                             2219.57  2226.90  2233.44  2370.48  2397.78
                             3407.31  4294.89  4314.07  4377.59  4400.20
                             4422.65  4431.07  4478.46  4525.38  4536.15
                             4558.62  4569.05  4571.06  4589.97  4603.51
                             4621.67  5066.15

 Zero-point correction=                           0.263683 (Hartree/Particle)
 Thermal correction to Energy=                    0.278848
 Thermal correction to Enthalpy=                  0.279792
 Thermal correction to Gibbs Free Energy=         0.220492
 Sum of electronic and zero-point Energies=           -651.385192
 Sum of electronic and thermal Energies=              -651.370027
 Sum of electronic and thermal Enthalpies=            -651.369083
 Sum of electronic and thermal Free Energies=         -651.428383

                     E (Thermal)             CV                S
                      KCal/Mol        Cal/Mol-Kelvin    Cal/Mol-Kelvin
 Total                  174.979             56.542            124.808
 Electronic               0.000              0.000              0.000
 Translational            0.889              2.981             41.845
 Rotational               0.889              2.981             32.205
 Vibrational            173.202             50.580             50.758
 Vibration     1          0.594              1.983              5.546
 Vibration     2          0.595              1.979              4.984
 Vibration     3          0.596              1.976              4.657
 Vibration     4          0.598              1.969              4.205
 Vibration     5          0.607              1.940              3.247
 Vibration     6          0.609              1.932              3.090
 Vibration     7          0.617              1.905              2.703
 Vibration     8          0.627              1.874              2.386
 Vibration     9          0.646              1.815              1.985
 Vibration    10          0.648              1.807              1.938
 Vibration    11          0.656              1.782              1.815
 Vibration    12          0.680              1.712              1.539
 Vibration    13          0.716              1.606              1.236
 Vibration    14          0.724              1.584              1.186
 Vibration    15          0.744              1.530              1.071
 Vibration    16          0.755              1.500              1.016
 Vibration    17          0.779              1.436              0.906
 Vibration    18          0.785              1.422              0.884
 Vibration    19          0.828              1.314              0.734
 Vibration    20          0.856              1.250              0.658
 Vibration    21          0.934              1.080              0.490
 Vibration    22          0.944              1.060              0.473
 Vibration    23          0.978              0.993              0.419

                           ! Non-Optimized Parameters !
 Normal termination of Gaussian 16 at Thu Dec 10 16:36:04 2020.

 ----------------------------------------------------------------------
 # B3LYP/6-311++G(d,p) empiricaldispersion=gd3bj scf=xqc pop=npa geom=c
 heck
 ----------------------------------------------------------------------

 --------------------------------------
 CID_62535693_JID_5548_Energie_neutraal
 --------------------------------------
 Structure from the checkpoint file:  "JID_5548.chk"
 Charge =  0 Multiplicity = 1

 SCF Done:  E(RB3LYP) =  -651.832255889     A.U. after   16 cycles
 Normal termination of Gaussian 16 at Thu Dec 10 16:40:23 2020.

 ----------------------------------------------------------------------
 # B3LYP/6-311++G(d,p) empiricaldispersion=gd3bj scf=xqc pop=npa geom=c
 heck
 ----------------------------------------------------------------------

 ------------------------------------
 CID_62535693_JID_5548_Energie_kation
 ------------------------------------
 Structure from the checkpoint file:  "JID_5548.chk"
 Charge =  1 Multiplicity = 2

 SCF Done:  E(UB3LYP) =  -651.519985001     A.U. after   26 cycles
 Normal termination of Gaussian 16 at Thu Dec 10 16:51:47 2020.
 Gaussian 16:  ES64L-G16RevA.03 25-Dec-2016

 ----------------------------------------------------------------------
 # B3LYP/6-311++G(d,p) empiricaldispersion=gd3bj scf=xqc pop=npa geom=c
 heck
 ----------------------------------------------------------------------

 -----------------------------------
 CID_62535693_JID_5548_Energie_anion
 -----------------------------------
 Structure from the checkpoint file:  "JID_5548.chk"
 Charge = -1 Multiplicity = 2

                         Standard orientation:
 ---------------------------------------------------------------------
 Center     Atomic      Atomic             Coordinates (Angstroms)
 Number     Number       Type             X           Y           Z
 ---------------------------------------------------------------------
      1          6           0        1.643309   -0.733458    1.659209
      2          6           0        1.568586   -0.576249    0.131736
      3          6           0        1.021985    0.826424   -0.232309
      4          8           0        1.901462    1.795468    0.290463
      5          6           0        1.505740    3.113832   -0.025027
      6          6           0        2.942845   -0.676961   -0.420324
      7          7           0        4.001983   -0.767948   -0.884398
      8          7           0        0.821700   -1.685312   -0.481345
      9          6           0       -0.487674   -2.067221    0.054055
     10          6           0       -1.596194   -1.029492   -0.012169
     11          6           0       -2.176232   -0.518229    1.152537
     12          6           0       -3.155536    0.475122    1.088024
     13          6           0       -3.569870    0.966432   -0.149596
     14          6           0       -3.009117    0.451091   -1.321231
     15          6           0       -2.033674   -0.540710   -1.249950
     16          1           0        2.320711    0.017562    2.067685
     17          1           0        2.003404   -1.731815    1.920592
     18          1           0        0.655127   -0.576910    2.100645
     19          1           0        0.946261    0.913244   -1.329400
     20          1           0        0.013963    0.943701    0.185281
     21          1           0        1.486457    3.278952   -1.113525
     22          1           0        0.507544    3.344023    0.379887
     23          1           0        2.240148    3.785734    0.425028
     24          1           0        0.775341   -1.550760   -1.487897
     25          1           0       -0.786391   -2.956528   -0.513959
     26          1           0       -0.355812   -2.397262    1.088403
     27          1           0       -1.853409   -0.896806    2.119731
     28          1           0       -3.591510    0.865302    2.003457
     29          1           0       -4.328941    1.741459   -0.203530
     30          1           0       -3.335722    0.821176   -2.289115
     31          1           0       -1.599647   -0.935485   -2.166507
 ---------------------------------------------------------------------

 SCF Done:  E(UB3LYP) =  -651.823832918     A.U. after   33 cycles
 SCF Done:  E(UB3LYP) =  -651.823832919     a.u. after    1 cycles

 The electronic state is 2-A.
 Alpha  occ. eigenvalues --  -19.04586 -14.22631 -14.22090 -10.16625 -10.13554
 Alpha  occ. eigenvalues --  -10.12817 -10.11748 -10.11545 -10.08778 -10.08722
 Alpha  occ. eigenvalues --  -10.08242 -10.08157 -10.08102 -10.07967 -10.07928
 Alpha  occ. eigenvalues --   -0.96192  -0.84767  -0.81088  -0.76538  -0.71191
 Alpha  occ. eigenvalues --   -0.66659  -0.65456  -0.63222  -0.60197  -0.56192
 Alpha  occ. eigenvalues --   -0.53702  -0.51571  -0.49299  -0.45085  -0.42786
 Alpha  occ. eigenvalues --   -0.41749  -0.40363  -0.39048  -0.37306  -0.36864
 Alpha  occ. eigenvalues --   -0.35453  -0.34286  -0.33479  -0.32984  -0.32528
 Alpha  occ. eigenvalues --   -0.31489  -0.30756  -0.29007  -0.28590  -0.27630
 Alpha  occ. eigenvalues --   -0.26884  -0.26000  -0.25080  -0.24791  -0.24258
 Alpha  occ. eigenvalues --   -0.23610  -0.18342  -0.16618  -0.16359  -0.14739
 Alpha  occ. eigenvalues --    0.03916
 Alpha virt. eigenvalues --    0.06213   0.06463   0.06969   0.07285   0.07542
 Alpha virt. eigenvalues --    0.08488   0.08906   0.09119   0.09738   0.10473
 Alpha virt. eigenvalues --    0.11103   0.11263   0.11442   0.11975   0.12167

  Beta  occ. eigenvalues --  -19.04581 -14.22618 -14.22088 -10.16624 -10.13543
  Beta  occ. eigenvalues --  -10.12794 -10.11748 -10.11531 -10.08762 -10.08705
  Beta  occ. eigenvalues --  -10.08233 -10.08144 -10.08067 -10.07942 -10.07887
  Beta  occ. eigenvalues --   -0.96183  -0.84745  -0.81079  -0.76484  -0.71166
  Beta  occ. eigenvalues --   -0.66603  -0.65387  -0.63193  -0.60157  -0.56143
  Beta  occ. eigenvalues --   -0.53666  -0.51503  -0.49233  -0.45053  -0.42715
  Beta  occ. eigenvalues --   -0.41724  -0.40330  -0.39029  -0.37268  -0.36794
  Beta  occ. eigenvalues --   -0.35409  -0.34260  -0.33435  -0.32926  -0.32494
  Beta  occ. eigenvalues --   -0.31465  -0.30734  -0.28978  -0.28568  -0.27603
  Beta  occ. eigenvalues --   -0.26840  -0.25938  -0.25039  -0.24755  -0.24249
  Beta  occ. eigenvalues --   -0.23593  -0.18327  -0.16517  -0.16305  -0.14671
  Beta virt. eigenvalues --    0.06186   0.06841   0.07104   0.07519   0.07628
  Beta virt. eigenvalues --    0.07832   0.09147   0.09222   0.09648   0.09996
  Beta virt. eigenvalues --    0.10789   0.11253   0.11400   0.11819   0.12148

 Mulliken charges and spin densities:
               1          2
     1  C   -0.280980  -0.312355
     2  C    0.064751   0.766082
     3  C   -1.022191   0.351977
     4  O   -0.105769   0.006766
     5  C    0.387992  -0.605612
     6  C    0.280984  -0.874465
     7  N   -0.279606   0.028981
     8  N    0.034402  -0.018005
     9  C    1.996900  -2.883785
    10  C    0.053044   0.582020
    11  C   -1.542005   1.216576
    12  C   -0.014111  -0.243413
    13  C    1.960250  -2.281332
    14  C   -0.403380   0.180102
    15  C   -0.225395   0.363630
    16  H    0.126499   0.045908
    17  H    0.121097   0.056110
    18  H   -0.182215   0.311976
    19  H   -0.092077   0.238761
    20  H    1.202516  -0.894654
    21  H   -0.093357   0.228211
    22  H   -0.303869   0.434674
    23  H    0.002234   0.135340
    24  H    0.097262   0.149872
    25  H   -0.191021   0.391929
    26  H    0.096660   0.075091
    27  H   -0.295904   0.442365
    28  H   -0.753420   0.941709
    29  H   -0.277141   0.440184
    30  H   -0.766083   0.957751
    31  H   -0.596067   0.767608
 Sum of Mulliken charges =  -1.00000   1.00000

 Dipole moment (field-independent basis, Debye):
    X=              2.9708    Y=             -1.2432    Z=              2.4765  Tot=              4.0625
 Quadrupole moment (field-independent basis, Debye-Ang):
   XX=           -173.7341   YY=           -132.7634   ZZ=           -134.8141
   XY=             11.1320   XZ=              4.7769   YZ=             -3.5430

 Summary of Natural Population Analysis:

                                       Natural Population
                Natural  -----------------------------------------------
    Atom  No    Charge         Core      Valence    Rydberg      Total
 -----------------------------------------------------------------------
      C    1   -0.28568      0.99963     2.27898    0.00707     3.28568
      C    2    0.00927      0.99949     1.97826    0.01297     2.99073
      C    3   -0.00999      0.99954     1.99762    0.01283     3.00999
      O    4   -0.29824      0.99988     3.28954    0.00882     4.29824
      C    5   -0.09731      0.99962     2.08860    0.00908     3.09731
      C    6    0.16818      0.99962     1.80966    0.02254     2.83182
      N    7   -0.18328      0.99979     2.67165    0.01184     3.68328
      N    8   -0.33303      0.99972     2.82120    0.01211     3.83303
      C    9   -0.09521      0.99957     2.08305    0.01259     3.09521
      C   10   -0.03270      0.99950     2.02147    0.01174     3.03270
      C   11   -0.10618      0.99950     2.09618    0.01050     3.10618
      C   12   -0.09442      0.99956     2.08350    0.01137     3.09442
      C   13   -0.09878      0.99956     2.08884    0.01038     3.09878
      C   14   -0.09593      0.99956     2.08536    0.01100     3.09593
      C   15   -0.09830      0.99950     2.08736    0.01144     3.09830
      H   16    0.11409      0.00000     0.38473    0.00118     0.38591
      H   17    0.10548      0.00000     0.39353    0.00100     0.39452
      H   18    0.10596      0.00000     0.39299    0.00106     0.39404
      H   19    0.08385      0.00000     0.41371    0.00244     0.41615
      H   20    0.09514      0.00000     0.40235    0.00251     0.40486
      H   21    0.08055      0.00000     0.41822    0.00123     0.41945
      H   22    0.08303      0.00000     0.41562    0.00135     0.41697
      H   23    0.08940      0.00000     0.40971    0.00089     0.41060
      H   24    0.17978      0.00000     0.31689    0.00333     0.32022
      H   25    0.10544      0.00000     0.39344    0.00111     0.39456
      H   26    0.09694      0.00000     0.40168    0.00138     0.40306
      H   27    0.10003      0.00000     0.39859    0.00138     0.39997
      H   28    0.10303      0.00000     0.39513    0.00184     0.39697
      H   29    0.10356      0.00000     0.39469    0.00175     0.39644
      H   30    0.10390      0.00000     0.39412    0.00197     0.39610
      H   31    0.10141      0.00000     0.39606    0.00253     0.39859
 =======================================================================
   * Total *    0.00000     14.99403    39.80272    0.20325    55.00000

 Normal termination of Gaussian 16 at Thu Dec 10 17:08:01 2020.
