 Gaussian 16, Revision A.03,

 -----------------------------------------------------------
 # opt freq B3LYP/6-31G(d) empiricaldispersion=gd3bj scf=xqc
 -----------------------------------------------------------

 ----------------------------
 CID_89369039_JID_32_neutraal
 ----------------------------
 Symbolic Z-matrix:
 Charge =  0 Multiplicity = 1

 SCF Done:  E(RB3LYP) =  -406.753107729     A.U. after   13 cycles
 SCF Done:  E(RB3LYP) =  -406.755029744     A.U. after   11 cycles
 SCF Done:  E(RB3LYP) =  -406.755200645     A.U. after   10 cycles
 SCF Done:  E(RB3LYP) =  -406.755301429     A.U. after   10 cycles
 SCF Done:  E(RB3LYP) =  -406.755316032     A.U. after    8 cycles
 SCF Done:  E(RB3LYP) =  -406.755319477     A.U. after    8 cycles
 SCF Done:  E(RB3LYP) =  -406.755320570     A.U. after    8 cycles
 SCF Done:  E(RB3LYP) =  -406.755320864     A.U. after    7 cycles
 Optimization completed.
    -- Stationary point found.

 1\1\GINC-NODE350\FOpt\RB3LYP\6-31G(d)\C9H15N1\VSC10255\08-Dec-2020\0\\
 # opt freq B3LYP/6-31G(d) empiricaldispersion=gd3bj scf=xqc\\CID_89369
 039_JID_32_neutraal\\0,1\C,0.9849190044,0.082388895,0.0902725125\C,0.4
 919541279,-0.8359260814,1.2200783719\C,-0.9288464328,-1.3977571252,0.8
 873249934\C,-1.9291270593,-0.9440736727,1.9685148264\C,-1.4327004797,-
 1.4250090594,3.3163831605\C,-0.2188737287,-0.9531499897,3.6259872513\C
 ,0.3607863974,-0.0441379233,2.5686538559\C,-0.6634822534,1.1058798456,
 2.3853771077\N,-1.9512438881,0.5463629836,1.9199042561\C,1.5020222375,

 Normal termination of Gaussian 16 at Tue Dec  8 10:15:23 2020.

 --------------------------------------------------------------------
 #N Geom=AllCheck Guess=TCheck SCRF=Check GenChk RB3LYP/6-31G(d) Freq
 --------------------------------------------------------------------

 Structure from the checkpoint file:  "JID_32.chk"
 ----------------------------
 CID_89369039_JID_32_neutraal
 ----------------------------
 Charge =  0 Multiplicity = 1

 SCF Done:  E(RB3LYP) =  -406.755320864     A.U. after    1 cycles

  Exact polarizability:  96.623  -3.144  88.719  -4.758   0.653  90.863
 Approx polarizability: 132.224  -3.960 129.703 -13.640  -0.009 143.344

                      1                      2                      3
                      A                      A                      A
 Frequencies --     91.0401               238.1228               258.3725
 Red. masses --      2.6553                 1.4379                 2.0860
 Frc consts  --      0.0130                 0.0480                 0.0820
 IR Inten    --      1.5209                 0.6747                 2.8085

                      4                      5                      6
                      A                      A                      A
 Frequencies --    279.4818               291.2704               352.7025
 Red. masses --      1.1115                 1.8535                 2.3357
 Frc consts  --      0.0512                 0.0926                 0.1712
 IR Inten    --      0.1985                 1.4504                 0.0814

                      7                      8                      9
                      A                      A                      A
 Frequencies --    376.9960               394.2054               416.1657
 Red. masses --      1.9388                 2.0992                 2.3303
 Frc consts  --      0.1623                 0.1922                 0.2378
 IR Inten    --      0.7723                 1.6540                 1.9641

                     10                     11                     12
                      A                      A                      A
 Frequencies --    443.1413               451.1371               573.8353
 Red. masses --      2.5752                 3.0958                 3.2490
 Frc consts  --      0.2979                 0.3712                 0.6303
 IR Inten    --      0.6761                 0.1361                 2.2595

                     13                     14                     15
                      A                      A                      A
 Frequencies --    627.4558               665.8430               709.0664
 Red. masses --      4.3556                 3.9723                 2.0685
 Frc consts  --      1.0103                 1.0376                 0.6128
 IR Inten    --      3.3767                 1.6715                24.6055

                     16                     17                     18
                      A                      A                      A
 Frequencies --    734.8225               790.2286               837.1972
 Red. masses --      2.3170                 2.4715                 2.3414
 Frc consts  --      0.7371                 0.9093                 0.9669
 IR Inten    --     26.1208                73.6102                 0.6214

                     19                     20                     21
                      A                      A                      A
 Frequencies --    889.5676               912.6458               935.3549
 Red. masses --      2.1624                 2.1765                 2.0232
 Frc consts  --      1.0082                 1.0681                 1.0429
 IR Inten    --      9.2832                 2.1499                 5.6285

                     22                     23                     24
                      A                      A                      A
 Frequencies --    950.5310               953.0107               961.9335
 Red. masses --      2.0672                 1.5176                 1.5456
 Frc consts  --      1.1004                 0.8121                 0.8426
 IR Inten    --      2.8253                 1.0911                 0.5150

                     25                     26                     27
                      A                      A                      A
 Frequencies --    979.1020              1008.8643              1030.7813
 Red. masses --      1.7227                 1.8277                 1.7860
 Frc consts  --      0.9730                 1.0960                 1.1181
 IR Inten    --      1.7760                 1.1400                 0.3183

                     28                     29                     30
                      A                      A                      A
 Frequencies --   1038.3164              1056.5275              1084.8893
 Red. masses --      2.4515                 1.6514                 1.6128
 Frc consts  --      1.5572                 1.0861                 1.1184
 IR Inten    --      0.8028                 5.4256                 3.6125

                     31                     32                     33
                      A                      A                      A
 Frequencies --   1097.2071              1146.4082              1178.8452
 Red. masses --      3.3042                 1.2107                 1.6362
 Frc consts  --      2.3437                 0.9375                 1.3397
 IR Inten    --     17.2626                 0.6719                 8.5397

                     34                     35                     36
                      A                      A                      A
 Frequencies --   1192.3296              1222.8733              1256.9060
 Red. masses --      1.4127                 2.0205                 1.2471
 Frc consts  --      1.1833                 1.7802                 1.1608
 IR Inten    --      1.9138                 6.5458                 3.7130

                     37                     38                     39
                      A                      A                      A
 Frequencies --   1275.0825              1294.2503              1320.4761
 Red. masses --      1.4838                 1.7611                 1.6602
 Frc consts  --      1.4214                 1.7381                 1.7056
 IR Inten    --      0.1456                 2.3337                 4.5031

                     40                     41                     42
                      A                      A                      A
 Frequencies --   1333.7930              1340.6944              1380.6074
 Red. masses --      1.4566                 1.2506                 1.5669
 Frc consts  --      1.5267                 1.3244                 1.7597
 IR Inten    --      0.1485                 0.8415                 0.4994

                     43                     44                     45
                      A                      A                      A
 Frequencies --   1399.9529              1412.3986              1426.6374
 Red. masses --      1.5862                 1.5180                 1.2502
 Frc consts  --      1.8316                 1.7842                 1.4992
 IR Inten    --      4.8755                 0.4931                 5.9546

                     46                     47                     48
                      A                      A                      A
 Frequencies --   1448.1041              1473.3660              1514.8792
 Red. masses --      1.2248                 1.2452                 1.0825
 Frc consts  --      1.5133                 1.5926                 1.4636
 IR Inten    --      4.3665                 8.3845                 3.0008

                     49                     50                     51
                      A                      A                      A
 Frequencies --   1518.9299              1522.1724              1532.9239
 Red. masses --      1.0574                 1.0507                 1.0547
 Frc consts  --      1.4374                 1.4343                 1.4602
 IR Inten    --      2.1583                 1.3396                 0.6856

                     52                     53                     54
                      A                      A                      A
 Frequencies --   1542.0182              1562.6214              1689.2916
 Red. masses --      1.0583                 1.0742                 5.7080
 Frc consts  --      1.4826                 1.5454                 9.5971
 IR Inten    --      4.6387                 3.5134                 2.1725

                     55                     56                     57
                      A                      A                      A
 Frequencies --   3032.0461              3036.9247              3042.9159
 Red. masses --      1.0639                 1.0373                 1.0390
 Frc consts  --      5.7629                 5.6367                 5.6680
 IR Inten    --     56.9339                23.7375                32.2185

                     58                     59                     60
                      A                      A                      A
 Frequencies --   3058.3838              3070.1415              3080.5370
 Red. masses --      1.0600                 1.1002                 1.0856
 Frc consts  --      5.8415                 6.1101                 6.0700
 IR Inten    --     28.8086                38.5495                51.9535

                     61                     62                     63
                      A                      A                      A
 Frequencies --   3095.4405              3099.0122              3103.5383
 Red. masses --      1.1028                 1.0881                 1.1024
 Frc consts  --      6.2256                 6.1572                 6.2563
 IR Inten    --      3.2154                37.0777                53.8198

                     64                     65                     66
                      A                      A                      A
 Frequencies --   3104.5962              3124.8918              3129.4856
 Red. masses --      1.1035                 1.1005                 1.0995
 Frc consts  --      6.2667                 6.3313                 6.3442
 IR Inten    --     35.5200                29.0053                28.9720

                     67                     68                     69
                      A                      A                      A
 Frequencies --   3177.5921              3201.6066              3507.7168
 Red. masses --      1.0856                 1.1022                 1.0753
 Frc consts  --      6.4583                 6.6566                 7.7955
 IR Inten    --     12.5239                32.6211                 0.5207

 - Thermochemistry -
 -------------------
 Temperature   298.150 Kelvin.  Pressure   1.00000 Atm.
 Atom     1 has atomic number  6 and mass  12.00000

 Molecular mass:   137.12045 amu.
 Principal axes and moments of inertia in atomic units:
                           1         2         3
     Eigenvalues --   892.994561290.761391439.62397
           X            0.99997  -0.00693   0.00254
           Y            0.00683   0.99928   0.03738
           Z           -0.00280  -0.03736   0.99930
 This molecule is an asymmetric top.
 Rotational symmetry number  1.
 Warning -- assumption of classical behavior for rotation
           may cause significant error
 Rotational temperatures (Kelvin)      0.09699     0.06710     0.06016
 Rotational constants (GHZ):           2.02100     1.39820     1.25362
 Zero-point vibrational energy     599808.8 (Joules/Mol)
                                  143.35775 (Kcal/Mol)
 Warning -- explicit consideration of  12 degrees of freedom as
           vibrations may cause significant error
 Vibrational temperatures:    130.99   342.61   371.74   402.11   419.07
          (Kelvin)            507.46   542.41   567.17   598.77   637.58
                              649.09   825.62   902.77   958.00  1020.19
                             1057.25  1136.96  1204.54  1279.89  1313.09
                             1345.77  1367.60  1371.17  1384.01  1408.71
                             1451.53  1483.06  1493.91  1520.11  1560.91
                             1578.64  1649.43  1696.10  1715.50  1759.44
                             1808.41  1834.56  1862.14  1899.87  1919.03
                             1928.96  1986.39  2014.22  2032.13  2052.61
                             2083.50  2119.85  2179.57  2185.40  2190.07
                             2205.54  2218.62  2248.26  2430.51  4362.44
                             4369.46  4378.08  4400.33  4417.25  4432.21
                             4453.65  4458.79  4465.30  4466.82  4496.02
                             4502.63  4571.85  4606.40  5046.82

 Zero-point correction=                           0.228455 (Hartree/Particle)
 Thermal correction to Energy=                    0.237248
 Thermal correction to Enthalpy=                  0.238192
 Thermal correction to Gibbs Free Energy=         0.195716
 Sum of electronic and zero-point Energies=           -406.526866
 Sum of electronic and thermal Energies=              -406.518073
 Sum of electronic and thermal Enthalpies=            -406.517129
 Sum of electronic and thermal Free Energies=         -406.559605

                     E (Thermal)             CV                S
                      KCal/Mol        Cal/Mol-Kelvin    Cal/Mol-Kelvin
 Total                  148.875             37.241             89.398
 Electronic               0.000              0.000              0.000
 Translational            0.889              2.981             40.659
 Rotational               0.889              2.981             28.897
 Vibrational            147.098             31.279             19.842
 Vibration     1          0.602              1.956              3.638
 Vibration     2          0.656              1.782              1.817
 Vibration     3          0.667              1.749              1.673
 Vibration     4          0.680              1.712              1.537
 Vibration     5          0.687              1.690              1.467
 Vibration     6          0.729              1.570              1.154
 Vibration     7          0.748              1.519              1.051
 Vibration     8          0.761              1.483              0.984
 Vibration     9          0.779              1.435              0.905
 Vibration    10          0.803              1.376              0.817
 Vibration    11          0.810              1.358              0.792
 Vibration    12          0.930              1.088              0.497

 Optimization completed.
    -- Stationary point found.

 1\1\GINC-NODE350\Freq\RB3LYP\6-31G(d)\C9H15N1\VSC10255\08-Dec-2020\0\\
 #N Geom=AllCheck Guess=TCheck SCRF=Check GenChk RB3LYP/6-31G(d) Freq\\
 CID_89369039_JID_32_neutraal\\0,1\C,0.9849190044,0.082388895,0.0902725
 125\C,0.4919541279,-0.8359260814,1.2200783719\C,-0.9288464328,-1.39775
 71252,0.8873249934\C,-1.9291270593,-0.9440736727,1.9685148264\C,-1.432
 7004797,-1.4250090594,3.3163831605\C,-0.2188737287,-0.9531499897,3.625
 9872513\C,0.3607863974,-0.0441379233,2.5686538559\C,-0.6634822534,1.10
 58798456,2.3853771077\N,-1.9512438881,0.5463629836,1.9199042561\C,1.50

 Normal termination of Gaussian 16 at Tue Dec  8 10:20:37 2020.

 ----------------------------------------------------------------------
 # B3LYP/6-311++G(d,p) empiricaldispersion=gd3bj scf=xqc pop=npa geom=c
 heck
 ----------------------------------------------------------------------

 ------------------------------------
 CID_89369039_JID_32_Energie_neutraal
 ------------------------------------
 Structure from the checkpoint file:  "JID_32.chk"
 Charge =  0 Multiplicity = 1

 SCF Done:  E(RB3LYP) =  -406.868307068     A.U. after   13 cycles
 Normal termination of Gaussian 16 at Tue Dec  8 10:22:21 2020.

 ----------------------------------------------------------------------
 # B3LYP/6-311++G(d,p) empiricaldispersion=gd3bj scf=xqc pop=npa geom=c
 heck
 ----------------------------------------------------------------------

 ----------------------------------
 CID_89369039_JID_32_Energie_kation
 ----------------------------------
 Structure from the checkpoint file:  "JID_32.chk"
 Charge =  1 Multiplicity = 2

 SCF Done:  E(UB3LYP) =  -406.568084304     A.U. after   22 cycles
 Normal termination of Gaussian 16 at Tue Dec  8 10:26:07 2020.
 Gaussian 16:  ES64L-G16RevA.03 25-Dec-2016

 ---------------------------------
 CID_89369039_JID_32_Energie_anion
 ---------------------------------
 Structure from the checkpoint file:  "JID_32.chk"
 Charge = -1 Multiplicity = 2

                         Standard orientation:
 ---------------------------------------------------------------------
 Center     Atomic      Atomic             Coordinates (Angstroms)
 Number     Number       Type             X           Y           Z
 ---------------------------------------------------------------------
      1          6           0        1.942053   -1.271458    0.061131
      2          6           0        1.087910    0.006328    0.083058
      3          6           0        0.247505    0.079659    1.399643
      4          6           0       -1.254061    0.097712    1.052753
      5          6           0       -1.524285    1.278575    0.143341
      6          6           0       -0.819034    1.235859   -0.993619
      7          6           0        0.065420    0.017229   -1.107397
      8          6           0       -0.876663   -1.208088   -0.979586
      9          7           0       -1.535879   -1.184105    0.344391
     10          6           0        2.021487    1.220716   -0.034973
     11          1           0        1.344779   -2.167404    0.253654
     12          1           0        2.715002   -1.220498    0.837052
     13          1           0        2.448378   -1.394755   -0.904649
     14          1           0        0.446553   -0.791621    2.032336
     15          1           0        0.501969    0.977049    1.974293
     16          1           0       -1.860320    0.115915    1.962470
     17          1           0       -2.233878    2.061072    0.400136
     18          1           0       -0.886122    1.974890   -1.787291
     19          1           0        0.604785   -0.023333   -2.059632
     20          1           0       -0.308471   -2.138101   -1.094959
     21          1           0       -1.610791   -1.174494   -1.795385
     22          1           0       -2.541566   -1.252933    0.211788
     23          1           0        2.726484    1.246330    0.804739
     24          1           0        2.607123    1.180290   -0.962260
     25          1           0        1.455240    2.157145   -0.029134
 ---------------------------------------------------------------------

 SCF Done:  E(UB3LYP) =  -406.850955866     A.U. after   31 cycles

 The electronic state is 2-A.
 Alpha  occ. eigenvalues --  -14.18519 -10.08745 -10.07837 -10.07596 -10.06507
 Alpha  occ. eigenvalues --  -10.05252 -10.05148 -10.05011 -10.04943 -10.04741
 Alpha  occ. eigenvalues --   -0.80979  -0.71494  -0.66289  -0.64625  -0.58129
 Alpha  occ. eigenvalues --   -0.57377  -0.50564  -0.49383  -0.45056  -0.41240
 Alpha  occ. eigenvalues --   -0.37984  -0.36198  -0.35175  -0.32771  -0.31869
 Alpha  occ. eigenvalues --   -0.29869  -0.29156  -0.28566  -0.27814  -0.26753
 Alpha  occ. eigenvalues --   -0.25460  -0.24585  -0.24263  -0.20499  -0.19796
 Alpha  occ. eigenvalues --   -0.19645  -0.14100  -0.11250   0.04851
 Alpha virt. eigenvalues --    0.07360   0.07826   0.08296   0.09561   0.09857
 Alpha virt. eigenvalues --    0.09871   0.10317   0.11003   0.11997   0.12676
 Alpha virt. eigenvalues --    0.12911   0.13336   0.13780   0.14492   0.15087

  Beta  occ. eigenvalues --  -14.18507 -10.08733 -10.07816 -10.07596 -10.06494
  Beta  occ. eigenvalues --  -10.05238 -10.05130 -10.04989 -10.04923 -10.04718
  Beta  occ. eigenvalues --   -0.80948  -0.71471  -0.66255  -0.64589  -0.58086
  Beta  occ. eigenvalues --   -0.57332  -0.50513  -0.49335  -0.45009  -0.41162
  Beta  occ. eigenvalues --   -0.37944  -0.36145  -0.35144  -0.32745  -0.31828
  Beta  occ. eigenvalues --   -0.29842  -0.29121  -0.28537  -0.27769  -0.26722
  Beta  occ. eigenvalues --   -0.25430  -0.24552  -0.24237  -0.20471  -0.19764
  Beta  occ. eigenvalues --   -0.19602  -0.14074  -0.11227
  Beta virt. eigenvalues --    0.07178   0.08268   0.08809   0.08977   0.09999
  Beta virt. eigenvalues --    0.10446   0.10643   0.10910   0.11303   0.12281
  Beta virt. eigenvalues --    0.13181   0.13436   0.13973   0.14169   0.14823

 Mulliken charges and spin densities:
               1          2
     1  C    0.757599  -1.348792
     2  C   -0.196186   0.715437
     3  C   -0.417172  -0.365295
     4  C    1.202896  -1.016995
     5  C   -0.415734   0.058362
     6  C    0.804617  -1.372382
     7  C   -0.731124   1.347464
     8  C    1.097233  -1.848923
     9  N   -0.276217   0.142841
    10  C    0.360761  -1.015890
    11  H    0.011078   0.139367
    12  H   -0.050943   0.180681
    13  H   -0.116432   0.255618
    14  H    0.106017   0.045803
    15  H   -0.345334   0.491745
    16  H   -0.384210   0.646652
    17  H   -0.902422   1.054670
    18  H   -0.539575   0.693563
    19  H   -0.293129   0.563333
    20  H    0.134328   0.008285
    21  H   -0.541925   0.709143
    22  H   -0.085328   0.319112
    23  H   -0.067195   0.193443
    24  H   -0.214317   0.335441
    25  H    0.102714   0.067314
 Sum of Mulliken charges =  -1.00000   1.00000

 Dipole moment (field-independent basis, Debye):
    X=              2.8418    Y=             -1.8660    Z=              1.1352  Tot=              3.5842
 Quadrupole moment (field-independent basis, Debye-Ang):
   XX=           -109.7477   YY=           -103.2322   ZZ=           -105.3853
   XY=              3.3692   XZ=              2.7377   YZ=             -0.7689

 Summary of Natural Population Analysis:

                                       Natural Population
                Natural  -----------------------------------------------
    Atom  No    Charge         Core      Valence    Rydberg      Total
 -----------------------------------------------------------------------
      C    1   -0.28419      0.99962     2.27813    0.00645     3.28419
      C    2   -0.03932      0.99957     2.02540    0.01435     3.03932
      C    3   -0.18416      0.99957     2.17359    0.01100     3.18416
      C    4   -0.03084      0.99958     2.01600    0.01526     3.03084
      C    5   -0.10386      0.99950     2.09274    0.01162     3.10386
      C    6   -0.09219      0.99951     2.07946    0.01322     3.09219
      C    7   -0.13426      0.99955     2.12022    0.01449     3.13426
      C    8   -0.08487      0.99960     2.07293    0.01234     3.08487
      N    9   -0.34099      0.99976     2.82930    0.01193     3.84099
      C   10   -0.28238      0.99962     2.27645    0.00632     3.28238
      H   11    0.10276      0.00000     0.39622    0.00102     0.39724
      H   12    0.09780      0.00000     0.40125    0.00095     0.40220
      H   13    0.09866      0.00000     0.40025    0.00109     0.40134
      H   14    0.10191      0.00000     0.39645    0.00164     0.39809
      H   15    0.10007      0.00000     0.39858    0.00135     0.39993
      H   16    0.10187      0.00000     0.39576    0.00237     0.39813
      H   17    0.10290      0.00000     0.39468    0.00242     0.39710
      H   18    0.10258      0.00000     0.39585    0.00157     0.39742
      H   19    0.10907      0.00000     0.38833    0.00261     0.39093
      H   20    0.09123      0.00000     0.40705    0.00172     0.40877
      H   21    0.09207      0.00000     0.40627    0.00166     0.40793
      H   22    0.17685      0.00000     0.32034    0.00281     0.32315
      H   23    0.09636      0.00000     0.40264    0.00099     0.40364
      H   24    0.09791      0.00000     0.40088    0.00121     0.40209
      H   25    0.10501      0.00000     0.39377    0.00122     0.39499
 =======================================================================
   * Total *    0.00000      9.99587    27.86254    0.14159    38.00000

 Normal termination of Gaussian 16 at Tue Dec  8 10:31:22 2020.
