 Gaussian 16, Revision A.03,

 -----------------------------------------------------------
 # opt freq B3LYP/6-31G(d) empiricaldispersion=gd3bj scf=xqc
 -----------------------------------------------------------

 -------------------------------
 CID_76928610_JID_10223_neutraal
 -------------------------------
 Symbolic Z-matrix:
 Charge =  0 Multiplicity = 1

 SCF Done:  E(RB3LYP) =  -918.884542758     A.U. after   15 cycles
 SCF Done:  E(RB3LYP) =  -918.889338558     A.U. after   13 cycles
 SCF Done:  E(RB3LYP) =  -918.890201430     A.U. after   13 cycles
 SCF Done:  E(RB3LYP) =  -918.891456048     A.U. after   12 cycles
 SCF Done:  E(RB3LYP) =  -918.892141009     A.U. after   12 cycles
 SCF Done:  E(RB3LYP) =  -918.892418422     A.U. after   13 cycles
 SCF Done:  E(RB3LYP) =  -918.892789558     A.U. after   12 cycles
 SCF Done:  E(RB3LYP) =  -918.892885538     A.U. after   11 cycles
 SCF Done:  E(RB3LYP) =  -918.892942048     A.U. after   10 cycles
 SCF Done:  E(RB3LYP) =  -918.892955750     A.U. after   11 cycles
 SCF Done:  E(RB3LYP) =  -918.892971868     A.U. after    8 cycles
 SCF Done:  E(RB3LYP) =  -918.892971982     A.U. after    7 cycles
 SCF Done:  E(RB3LYP) =  -918.892972059     A.U. after    7 cycles
 SCF Done:  E(RB3LYP) =  -918.892972087     A.U. after    7 cycles
 SCF Done:  E(RB3LYP) =  -918.892972101     A.U. after    7 cycles
 SCF Done:  E(RB3LYP) =  -918.892972109     A.U. after    7 cycles
 Optimization completed.
    -- Stationary point found.
 Normal termination of Gaussian 16 at Sun Dec 13 20:28:11 2020.

 --------------------------------------------------------------------
 #N Geom=AllCheck Guess=TCheck SCRF=Check GenChk RB3LYP/6-31G(d) Freq
 --------------------------------------------------------------------

 Structure from the checkpoint file:  "JID_10223.chk"
 -------------------------------
 CID_76928610_JID_10223_neutraal
 -------------------------------
 Charge =  0 Multiplicity = 1

 SCF Done:  E(RB3LYP) =  -918.892972109     A.U. after    1 cycles

  Exact polarizability: 298.727 -34.180 121.678  -5.741  12.681 166.458
 Approx polarizability: 390.875 -69.178 188.368 -15.273  25.492 295.883

                      1                      2                      3
                      A                      A                      A
 Frequencies --     16.7237                24.4331                37.3413
 Red. masses --      5.3922                 4.6204                 4.8920
 Frc consts  --      0.0009                 0.0016                 0.0040
 IR Inten    --      0.1961                 1.0502                 0.3456

                      4                      5                      6
                      A                      A                      A
 Frequencies --     56.9868                75.3992                79.0308
 Red. masses --      4.1134                 3.6209                 6.3544
 Frc consts  --      0.0079                 0.0121                 0.0234
 IR Inten    --      0.0704                 1.7467                 0.5174

                      7                      8                      9
                      A                      A                      A
 Frequencies --     91.8731               114.5543               123.0273
 Red. masses --      5.9980                 3.6264                 3.0874
 Frc consts  --      0.0298                 0.0280                 0.0275
 IR Inten    --      0.8405                 2.4974                 0.3392

                     10                     11                     12
                      A                      A                      A
 Frequencies --    134.4415               179.5486               191.1431
 Red. masses --      2.9679                 5.2917                 6.5525
 Frc consts  --      0.0316                 0.1005                 0.1411
 IR Inten    --      1.1076                 0.4014                 2.7590

                     13                     14                     15
                      A                      A                      A
 Frequencies --    216.8401               233.1840               248.8789
 Red. masses --      3.5424                 1.1305                 1.8869
 Frc consts  --      0.0981                 0.0362                 0.0689
 IR Inten    --      0.9708                 0.7594                 0.2614

                     16                     17                     18
                      A                      A                      A
 Frequencies --    262.9558               274.9143               297.0034
 Red. masses --      1.3772                 1.4593                 3.0074
 Frc consts  --      0.0561                 0.0650                 0.1563
 IR Inten    --      1.1118                 0.5456                11.8445

                     19                     20                     21
                      A                      A                      A
 Frequencies --    315.0520               325.5209               336.6455
 Red. masses --      5.6052                 2.0854                 3.9904
 Frc consts  --      0.3278                 0.1302                 0.2664
 IR Inten    --      2.1672                 3.4190                 2.2399

                     22                     23                     24
                      A                      A                      A
 Frequencies --    373.3114               416.7034               427.9705
 Red. masses --      2.2032                 3.0924                 5.0723
 Frc consts  --      0.1809                 0.3164                 0.5474
 IR Inten    --      7.0849                 0.6976                16.2939

                     25                     26                     27
                      A                      A                      A
 Frequencies --    438.8234               474.4428               491.7908
 Red. masses --      2.0607                 2.8534                 3.2886
 Frc consts  --      0.2338                 0.3784                 0.4686
 IR Inten    --      0.7197                 6.5441                 2.2082

                     28                     29                     30
                      A                      A                      A
 Frequencies --    519.2367               565.2761               576.6736
 Red. masses --      4.9492                 3.1672                 3.4397
 Frc consts  --      0.7862                 0.5963                 0.6740
 IR Inten    --      4.1165                 8.4358                19.0791

                     31                     32                     33
                      A                      A                      A
 Frequencies --    588.2892               619.5655               650.6459
 Red. masses --      1.2846                 3.4760                 4.9635
 Frc consts  --      0.2619                 0.7862                 1.2380
 IR Inten    --    109.1741                73.2057                 1.9531

                     34                     35                     36
                      A                      A                      A
 Frequencies --    659.5393               673.9632               717.4640
 Red. masses --      2.7281                 2.9503                 2.8862
 Frc consts  --      0.6992                 0.7896                 0.8753
 IR Inten    --     10.6000                17.6970                25.5697

                     37                     38                     39
                      A                      A                      A
 Frequencies --    728.3517               756.6649               763.3335
 Red. masses --      3.5874                 2.8264                 2.9705
 Frc consts  --      1.1213                 0.9535                 1.0198
 IR Inten    --     15.5531                32.7606                22.8424

                     40                     41                     42
                      A                      A                      A
 Frequencies --    789.7751               855.1315               860.4020
 Red. masses --      4.3508                 1.2875                 1.9362
 Frc consts  --      1.5989                 0.5547                 0.8445
 IR Inten    --     62.5631                 1.8045                45.0477

                     43                     44                     45
                      A                      A                      A
 Frequencies --    871.5536               879.7556               904.0743
 Red. masses --      4.4966                 2.6759                 2.0662
 Frc consts  --      2.0124                 1.2202                 0.9950
 IR Inten    --      1.4749                 3.5909                 0.8717

                     46                     47                     48
                      A                      A                      A
 Frequencies --    927.5789               929.2794               976.4207
 Red. masses --      4.2460                 1.9007                 1.3379
 Frc consts  --      2.1525                 0.9671                 0.7515
 IR Inten    --     16.3842                10.7662                 1.7646

                     49                     50                     51
                      A                      A                      A
 Frequencies --    980.1038              1013.7379              1031.3010
 Red. masses --      1.2983                 1.9521                 1.1701
 Frc consts  --      0.7348                 1.1820                 0.7332
 IR Inten    --      3.5060                10.2786                23.0805

                     52                     53                     54
                      A                      A                      A
 Frequencies --   1031.8221              1042.2874              1086.3820
 Red. masses --      1.7856                 2.3482                 1.5692
 Frc consts  --      1.1200                 1.5030                 1.0912
 IR Inten    --      7.8534                 5.8069                15.6718

                     55                     56                     57
                      A                      A                      A
 Frequencies --   1098.2483              1123.2460              1138.5161
 Red. masses --      2.3450                 2.0278                 1.2677
 Frc consts  --      1.6665                 1.5074                 0.9682
 IR Inten    --     44.9718                10.4577                 6.9236

                     58                     59                     60
                      A                      A                      A
 Frequencies --   1147.6580              1172.0427              1183.6076
 Red. masses --      1.4201                 2.2226                 2.9461
 Frc consts  --      1.1021                 1.7989                 2.4317
 IR Inten    --     16.6103                10.1524                19.3338

                     61                     62                     63
                      A                      A                      A
 Frequencies --   1195.4686              1197.8239              1220.3164
 Red. masses --      1.4328                 1.8488                 1.1939
 Frc consts  --      1.2065                 1.5629                 1.0475
 IR Inten    --     40.6816               389.6987                20.0909

                     64                     65                     66
                      A                      A                      A
 Frequencies --   1251.6117              1266.2128              1289.5377
 Red. masses --      1.9370                 2.6746                 1.3248
 Frc consts  --      1.7878                 2.5265                 1.2980
 IR Inten    --      9.9475                19.2134                97.3342

                     67                     68                     69
                      A                      A                      A
 Frequencies --   1305.4626              1335.2449              1341.5962
 Red. masses --      1.7673                 2.0601                 1.4704
 Frc consts  --      1.7745                 2.1640                 1.5593
 IR Inten    --     17.8224                20.1761                 6.2153

                     70                     71                     72
                      A                      A                      A
 Frequencies --   1355.4781              1357.5934              1375.0498
 Red. masses --      2.1782                 1.7343                 1.9930
 Frc consts  --      2.3580                 1.8833                 2.2203
 IR Inten    --      0.0903                 4.4841                17.8181

                     73                     74                     75
                      A                      A                      A
 Frequencies --   1384.4517              1399.7789              1406.6073
 Red. masses --      1.6012                 2.5701                 1.6714
 Frc consts  --      1.8082                 2.9670                 1.9483
 IR Inten    --    170.6650               166.6213                77.4489

                     76                     77                     78
                      A                      A                      A
 Frequencies --   1432.6133              1441.5017              1461.2663
 Red. masses --      1.4959                 1.3263                 2.7512
 Frc consts  --      1.8089                 1.6238                 3.4612
 IR Inten    --    104.1614                 4.6046                17.5441

                     79                     80                     81
                      A                      A                      A
 Frequencies --   1474.3764              1497.9053              1499.6016
 Red. masses --      1.1500                 1.3881                 1.2700
 Frc consts  --      1.4729                 1.8351                 1.6827
 IR Inten    --      0.9363                50.4457                17.3084

                     82                     83                     84
                      A                      A                      A
 Frequencies --   1511.9087              1522.3689              1526.3466
 Red. masses --      1.0579                 1.0824                 1.0719
 Frc consts  --      1.4248                 1.4780                 1.4713
 IR Inten    --     11.2165                 3.5842                 7.2130

                     85                     86                     87
                      A                      A                      A
 Frequencies --   1536.1165              1543.1729              1549.8122
 Red. masses --      1.0658                 1.0696                 1.0548
 Frc consts  --      1.4818                 1.5007                 1.4927
 IR Inten    --      6.7019                 2.7762                 2.4441

                     88                     89                     90
                      A                      A                      A
 Frequencies --   1559.4139              1561.5098              1614.1437
 Red. masses --      1.8451                 1.2395                 6.3447
 Frc consts  --      2.6436                 1.7806                 9.7397
 IR Inten    --      3.0866                 3.6147                19.4210

                     91                     92                     93
                      A                      A                      A
 Frequencies --   1668.9360              1702.3311              1756.9200
 Red. masses --      5.6155                 5.7672                 7.9365
 Frc consts  --      9.2154                 9.8469                14.4338
 IR Inten    --      0.4768                63.7263               286.7000

                     94                     95                     96
                      A                      A                      A
 Frequencies --   1818.5564              2965.7782              3002.5936
 Red. masses --      8.9482                 1.0575                 1.0819
 Frc consts  --     17.4356                 5.4803                 5.7470
 IR Inten    --    517.8519                69.4433                35.0874

                     97                     98                     99
                      A                      A                      A
 Frequencies --   3014.0158              3035.5298              3057.6533
 Red. masses --      1.0506                 1.0744                 1.0375
 Frc consts  --      5.6234                 5.8328                 5.7151
 IR Inten    --     34.3076                61.8402                18.9616

                    100                    101                    102
                      A                      A                      A
 Frequencies --   3064.1711              3076.2744              3107.2880
 Red. masses --      1.0738                 1.0902                 1.1034
 Frc consts  --      5.9403                 6.0788                 6.2768
 IR Inten    --     43.9008                45.7025                24.4422

                    103                    104                    105
                      A                      A                      A
 Frequencies --   3117.5282              3138.3264              3139.4548
 Red. masses --      1.1004                 1.0969                 1.1020
 Frc consts  --      6.3015                 6.3652                 6.3993
 IR Inten    --     45.9556                24.6945                19.6362

                    106                    107                    108
                      A                      A                      A
 Frequencies --   3159.6681              3188.0870              3192.6675
 Red. masses --      1.0897                 1.0890                 1.0892
 Frc consts  --      6.4098                 6.5214                 6.5412
 IR Inten    --     12.7027                 1.9602                 9.7006

                    109                    110                    111
                      A                      A                      A
 Frequencies --   3207.2165              3212.5147              3225.1239
 Red. masses --      1.0883                 1.0933                 1.0905
 Frc consts  --      6.5958                 6.6481                 6.6829
 IR Inten    --      5.9745                 8.7197                 1.0230

                    112                    113                    114
                      A                      A                      A
 Frequencies --   3229.0783              3571.8221              3705.1710
 Red. masses --      1.0923                 1.0742                 1.0643
 Frc consts  --      6.7104                 8.0747                 8.6083
 IR Inten    --      5.9250                19.2235                86.8721

 - Thermochemistry -
 -------------------
 Temperature   298.150 Kelvin.  Pressure   1.00000 Atm.
 Atom     1 has atomic number  6 and mass  12.00000

 Molecular mass:   276.14739 amu.
 Principal axes and moments of inertia in atomic units:
                           1         2         3
     Eigenvalues --  2378.65345********************
           X            0.99996   0.00891  -0.00064
           Y           -0.00881   0.99588   0.09030
           Z            0.00144  -0.09029   0.99591
 This molecule is an asymmetric top.
 Rotational symmetry number  1.
 Warning -- assumption of classical behavior for rotation
           may cause significant error
 Rotational temperatures (Kelvin)      0.03641     0.00592     0.00577
 Rotational constants (GHZ):           0.75872     0.12340     0.12026
 Zero-point vibrational energy     884587.4 (Joules/Mol)
                                  211.42146 (Kcal/Mol)
 Warning -- explicit consideration of  32 degrees of freedom as
           vibrations may cause significant error
 Vibrational temperatures:     24.06    35.15    53.73    81.99   108.48
          (Kelvin)            113.71   132.18   164.82   177.01   193.43
                              258.33   275.01   311.98   335.50   358.08
                              378.33   395.54   427.32   453.29   468.35
                              484.36   537.11   599.54   615.75   631.37
                              682.62   707.58   747.07   813.31   829.70
                              846.42   891.42   936.13   948.93   969.68
                             1032.27  1047.94  1088.67  1098.27  1136.31
                             1230.34  1237.93  1253.97  1265.77  1300.76
                             1334.58  1337.03  1404.85  1410.15  1458.54
                             1483.81  1484.56  1499.62  1563.06  1580.13
                             1616.10  1638.07  1651.22  1686.31  1702.95
                             1720.01  1723.40  1755.76  1800.79  1821.80
                             1855.36  1878.27  1921.12  1930.26  1950.23
                             1953.27  1978.39  1991.92  2013.97  2023.79
                             2061.21  2074.00  2102.44  2121.30  2155.15
                             2157.59  2175.30  2190.35  2196.07  2210.13
                             2220.28  2229.83  2243.65  2246.66  2322.39
                             2401.23  2449.27  2527.82  2616.50  4267.09
                             4320.06  4336.50  4367.45  4399.28  4408.66
                             4426.07  4470.69  4485.43  4515.35  4516.98
                             4546.06  4586.95  4593.54  4614.47  4622.09
                             4640.23  4645.92  5139.06  5330.91

 Zero-point correction=                           0.336922 (Hartree/Particle)
 Thermal correction to Energy=                    0.357226
 Thermal correction to Enthalpy=                  0.358170
 Thermal correction to Gibbs Free Energy=         0.285830
 Sum of electronic and zero-point Energies=           -918.556051
 Sum of electronic and thermal Energies=              -918.535746
 Sum of electronic and thermal Enthalpies=            -918.534802
 Sum of electronic and thermal Free Energies=         -918.607142

                     E (Thermal)             CV                S
                      KCal/Mol        Cal/Mol-Kelvin    Cal/Mol-Kelvin
 Total                  224.163             75.782            152.253
 Electronic               0.000              0.000              0.000
 Translational            0.889              2.981             42.746
 Rotational               0.889              2.981             34.611
 Vibrational            222.385             69.820             74.896
 Vibration     1          0.593              1.986              6.989
 Vibration     2          0.593              1.985              6.237
 Vibration     3          0.594              1.982              5.395
 Vibration     4          0.596              1.975              4.559
 Vibration     5          0.599              1.965              4.007
 Vibration     6          0.600              1.963              3.915
 Vibration     7          0.602              1.955              3.620
 Vibration     8          0.607              1.937              3.190
 Vibration     9          0.610              1.930              3.052
 Vibration    10          0.613              1.919              2.882
 Vibration    11          0.629              1.867              2.333
 Vibration    12          0.634              1.852              2.217
 Vibration    13          0.646              1.815              1.985
 Vibration    14          0.654              1.790              1.854
 Vibration    15          0.662              1.765              1.739
 Vibration    16          0.670              1.741              1.642
 Vibration    17          0.677              1.720              1.565
 Vibration    18          0.691              1.679              1.434
 Vibration    19          0.702              1.645              1.336
 Vibration    20          0.710              1.624              1.282
 Vibration    21          0.717              1.602              1.228
 Vibration    22          0.745              1.527              1.066
 Vibration    23          0.780              1.434              0.903
 Vibration    24          0.789              1.409              0.865
 Vibration    25          0.799              1.386              0.830
 Vibration    26          0.831              1.307              0.725
 Vibration    27          0.848              1.268              0.679
 Vibration    28          0.874              1.207              0.612
 Vibration    29          0.921              1.106              0.513
 Vibration    30          0.933              1.082              0.492
 Vibration    31          0.945              1.057              0.470
 Vibration    32          0.980              0.991              0.417

 Optimization completed.
    -- Stationary point found.
 Normal termination of Gaussian 16 at Sun Dec 13 20:49:34 2020.

 ----------------------------------------------------------------------
 # B3LYP/6-311++G(d,p) empiricaldispersion=gd3bj scf=xqc pop=npa geom=c
 heck
 ----------------------------------------------------------------------

 ---------------------------------------
 CID_76928610_JID_10223_Energie_neutraal
 ---------------------------------------
 Structure from the checkpoint file:  "JID_10223.chk"
 Charge =  0 Multiplicity = 1

 SCF Done:  E(RB3LYP) =  -919.160465785     A.U. after   16 cycles
 Normal termination of Gaussian 16 at Sun Dec 13 21:00:47 2020.

 ----------------------------------------------------------------------
 # B3LYP/6-311++G(d,p) empiricaldispersion=gd3bj scf=xqc pop=npa geom=c
 heck
 ----------------------------------------------------------------------

 -------------------------------------
 CID_76928610_JID_10223_Energie_kation
 -------------------------------------
 Structure from the checkpoint file:  "JID_10223.chk"
 Charge =  1 Multiplicity = 2

 SCF Done:  E(UB3LYP) =  -918.875984653     A.U. after   27 cycles
 Normal termination of Gaussian 16 at Sun Dec 13 21:27:02 2020.
 Gaussian 16:  ES64L-G16RevA.03 25-Dec-2016

 ----------------------------------------------------------------------
 # B3LYP/6-311++G(d,p) empiricaldispersion=gd3bj scf=xqc pop=npa geom=c
 heck
 ----------------------------------------------------------------------

 ------------------------------------
 CID_76928610_JID_10223_Energie_anion
 ------------------------------------
 Structure from the checkpoint file:  "JID_10223.chk"
 Charge = -1 Multiplicity = 2

                         Standard orientation:
 ---------------------------------------------------------------------
 Center     Atomic      Atomic             Coordinates (Angstroms)
 Number     Number       Type             X           Y           Z
 ---------------------------------------------------------------------
      1          6           0        5.356873    0.497570   -1.016449
      2          6           0        3.892033    0.944097   -1.025519
      3          6           0        2.936565   -0.235227   -1.358348
      4          7           0        2.926751   -1.305499   -0.366474
      5          6           0        1.976561   -1.520060    0.602001
      6          8           0        2.268639   -2.022463    1.684415
      7          6           0        0.557001   -1.156383    0.288838
      8          6           0       -0.235930   -0.656485    1.332372
      9          6           0       -1.567401   -0.336308    1.116101
     10          6           0       -2.158711   -0.533255   -0.146928
     11          6           0       -1.365307   -1.068816   -1.175848
     12          6           0       -0.024112   -1.372156   -0.965533
     13          6           0       -3.555915   -0.214853   -0.434666
     14          6           0       -4.448683    0.335683    0.408404
     15          6           0       -5.842857    0.629373    0.044479
     16          8           0       -6.654960    1.127879    0.799721
     17          8           0       -6.159917    0.291341   -1.236442
     18          7           0        3.556734    1.739082    0.153640
     19          6           0        2.232699    2.332744    0.110431
     20          6           0        3.883072    1.209052    1.471819
     21          1           0        5.560390   -0.283767   -0.275802
     22          1           0        6.006340    1.347372   -0.787660
     23          1           0        5.634089    0.101548   -1.998975
     24          1           0        3.775621    1.629133   -1.879569
     25          1           0        1.920112    0.145187   -1.455094
     26          1           0        3.220981   -0.645476   -2.337139
     27          1           0        3.837546   -1.618511   -0.047929
     28          1           0        0.214468   -0.531681    2.311165
     29          1           0       -2.158405    0.060087    1.935210
     30          1           0       -1.812525   -1.248410   -2.149892
     31          1           0        0.568215   -1.797630   -1.769390
     32          1           0       -3.892415   -0.450350   -1.441630
     33          1           0       -4.201927    0.607810    1.428854
     34          1           0       -7.097466    0.534623   -1.342696
     35          1           0        1.406557    1.624545    0.305298
     36          1           0        2.167522    3.126208    0.864023
     37          1           0        2.063864    2.787707   -0.872663
     38          1           0        3.240357    0.385154    1.820123
     39          1           0        4.918893    0.861894    1.496308
     40          1           0        3.797939    2.025569    2.198820
 ---------------------------------------------------------------------

 SCF Done:  E(UB3LYP) =  -919.201207373     A.U. after   22 cycles

 The electronic state is 2-A.
 Alpha  occ. eigenvalues --  -19.03539 -18.96951 -18.96273 -14.22805 -14.21920
 Alpha  occ. eigenvalues --  -10.15117 -10.15080 -10.12584 -10.11427 -10.09838
 Alpha  occ. eigenvalues --  -10.09822 -10.09359 -10.05112 -10.04865 -10.04622
 Alpha  occ. eigenvalues --  -10.04533 -10.04471 -10.04034 -10.03267 -10.02155
 Alpha  occ. eigenvalues --   -0.97025  -0.92237  -0.87654  -0.84407  -0.81174
 Alpha  occ. eigenvalues --   -0.73440  -0.69350  -0.66743  -0.62807  -0.62359
 Alpha  occ. eigenvalues --   -0.61860  -0.60361  -0.56693  -0.53960  -0.49432
 Alpha  occ. eigenvalues --   -0.48932  -0.48176  -0.45488  -0.43780  -0.41588
 Alpha  occ. eigenvalues --   -0.40085  -0.39309  -0.37835  -0.37083  -0.35902
 Alpha  occ. eigenvalues --   -0.35876  -0.34521  -0.33670  -0.32969  -0.32609
 Alpha  occ. eigenvalues --   -0.31846  -0.31373  -0.30988  -0.30476  -0.29835
 Alpha  occ. eigenvalues --   -0.29698  -0.28536  -0.28501  -0.28123  -0.27128
 Alpha  occ. eigenvalues --   -0.26441  -0.26201  -0.24888  -0.24616  -0.22840
 Alpha  occ. eigenvalues --   -0.21268  -0.19579  -0.17705  -0.16437  -0.14367
 Alpha  occ. eigenvalues --   -0.14251  -0.13564  -0.12157  -0.10640   0.01464
 Alpha virt. eigenvalues --    0.05504   0.07413   0.07500   0.08537   0.08818
 Alpha virt. eigenvalues --    0.09830   0.09945   0.10094   0.10582   0.10785
 Alpha virt. eigenvalues --    0.10999   0.11427   0.11780   0.13167   0.13389

  Beta  occ. eigenvalues --  -19.03508 -18.96813 -18.96016 -14.22780 -14.21920
  Beta  occ. eigenvalues --  -10.15022 -10.15005 -10.12583 -10.11426 -10.09839
  Beta  occ. eigenvalues --  -10.09821 -10.09360 -10.05090 -10.04907 -10.04555
  Beta  occ. eigenvalues --  -10.04402 -10.04211 -10.03902 -10.03041 -10.01928
  Beta  occ. eigenvalues --   -0.96843  -0.92007  -0.87293  -0.84389  -0.81086
  Beta  occ. eigenvalues --   -0.73124  -0.69332  -0.66156  -0.62800  -0.62101
  Beta  occ. eigenvalues --   -0.61374  -0.60327  -0.56676  -0.53362  -0.49244
  Beta  occ. eigenvalues --   -0.48810  -0.48125  -0.45263  -0.43410  -0.41570
  Beta  occ. eigenvalues --   -0.39952  -0.39281  -0.37799  -0.37022  -0.35737
  Beta  occ. eigenvalues --   -0.35612  -0.34453  -0.33534  -0.32915  -0.32429
  Beta  occ. eigenvalues --   -0.31806  -0.30806  -0.30543  -0.30359  -0.29766
  Beta  occ. eigenvalues --   -0.29605  -0.28489  -0.28477  -0.27750  -0.27047
  Beta  occ. eigenvalues --   -0.26385  -0.25965  -0.24721  -0.23828  -0.22605
  Beta  occ. eigenvalues --   -0.21167  -0.18684  -0.16315  -0.16013  -0.14047
  Beta  occ. eigenvalues --   -0.13862  -0.12955  -0.12067  -0.09000
  Beta virt. eigenvalues --    0.05488   0.06646   0.07406   0.07516   0.08539
  Beta virt. eigenvalues --    0.08821   0.09807   0.10047   0.10360   0.10734
  Beta virt. eigenvalues --    0.10987   0.11209   0.11764   0.12328   0.13150

 Mulliken charges and spin densities:
               1          2
     1  C   -0.619923   0.000539
     2  C   -0.506304  -0.004323
     3  C    0.044511   0.003736
     4  N   -0.111467   0.001948
     5  C   -0.703597   0.033103
     6  O   -0.287904   0.046937
     7  C    0.550091   0.166626
     8  C   -0.179650  -0.004560
     9  C   -0.924509   0.119383
    10  C    1.012796   0.062841
    11  C   -0.031040   0.077024
    12  C   -0.585974   0.059772
    13  C   -0.510548   0.137972
    14  C   -0.148085   0.115610
    15  C    0.014566   0.124960
    16  O   -0.391862   0.084068
    17  O   -0.222029   0.007599
    18  N    0.113111  -0.001698
    19  C   -0.409808   0.000937
    20  C   -0.385548  -0.001637
    21  H    0.145919  -0.000530
    22  H    0.163482  -0.000182
    23  H    0.130790   0.000108
    24  H    0.151896   0.004445
    25  H    0.168362  -0.002690
    26  H    0.177878   0.000023
    27  H    0.285162   0.002932
    28  H    0.197374   0.002437
    29  H    0.090555  -0.005128
    30  H    0.130097  -0.000033
    31  H    0.150744  -0.000967
    32  H    0.157757  -0.015528
    33  H    0.154400  -0.016042
    34  H    0.256155  -0.000074
    35  H    0.210147  -0.003666
    36  H    0.111211   0.001708
    37  H    0.131489   0.000245
    38  H    0.219330   0.002083
    39  H    0.110546   0.000112
    40  H    0.139878  -0.000091
 Sum of Mulliken charges =  -1.00000   1.00000

 Dipole moment (field-independent basis, Debye):
    X=             11.1002    Y=              1.9091    Z=             -4.6140  Tot=             12.1717
 Quadrupole moment (field-independent basis, Debye-Ang):
   XX=           -213.5749   YY=           -143.6055   ZZ=           -131.8922
   XY=             13.1722   XZ=              4.7367   YZ=              5.5759

 Summary of Natural Population Analysis:

                                       Natural Population
                Natural  -----------------------------------------------
    Atom  No    Charge         Core      Valence    Rydberg      Total
 -----------------------------------------------------------------------
      C    1   -0.29326      0.99965     2.28885    0.00476     3.29326
      C    2   -0.00217      0.99959     1.99201    0.01057     3.00217
      C    3   -0.09939      0.99959     2.08991    0.00990     3.09939
      N    4   -0.32793      0.99967     2.81572    0.01254     3.82793
      C    5    0.34629      0.99961     1.63243    0.02168     2.65371
      O    6   -0.31555      0.99988     3.30963    0.00604     4.31555
      C    7   -0.03478      0.99945     2.02277    0.01256     3.03478
      C    8   -0.09569      0.99954     2.08776    0.00839     3.09569
      C    9   -0.06483      0.99953     2.05747    0.00782     3.06483
      C   10   -0.01516      0.99952     2.00630    0.00935     3.01516
      C   11   -0.07828      0.99954     2.07031    0.00843     3.07828
      C   12   -0.10132      0.99954     2.09369    0.00809     3.10132
      C   13   -0.01847      0.99942     2.01029    0.00876     3.01847
      C   14   -0.11850      0.99951     2.10918    0.00981     3.11850
      C   15    0.39479      0.99969     1.58066    0.02486     2.60521
      O   16   -0.30548      0.99987     3.29799    0.00761     4.30548
      O   17   -0.35768      0.99988     3.35163    0.00617     4.35768
      N   18   -0.28606      0.99972     2.77181    0.01454     3.78606
      C   19   -0.17988      0.99966     2.17309    0.00714     3.17988
      C   20   -0.18063      0.99965     2.17368    0.00731     3.18063
      H   21    0.09494      0.00000     0.40410    0.00096     0.40506
      H   22    0.10337      0.00000     0.39545    0.00118     0.39663
      H   23    0.09927      0.00000     0.39992    0.00081     0.40073
      H   24    0.09206      0.00000     0.40675    0.00119     0.40794
      H   25    0.11406      0.00000     0.38495    0.00100     0.38594
      H   26    0.08764      0.00000     0.41122    0.00114     0.41236
      H   27    0.18459      0.00000     0.31357    0.00184     0.31541
      H   28    0.10282      0.00000     0.39614    0.00104     0.39718
      H   29    0.09520      0.00000     0.40346    0.00134     0.40480
      H   30    0.09225      0.00000     0.40631    0.00145     0.40775
      H   31    0.09516      0.00000     0.40356    0.00128     0.40484
      H   32    0.09298      0.00000     0.40515    0.00187     0.40702
      H   33    0.09403      0.00000     0.40452    0.00146     0.40597
      H   34    0.23107      0.00000     0.26572    0.00322     0.26893
      H   35    0.09540      0.00000     0.40321    0.00138     0.40460
      H   36    0.09189      0.00000     0.40724    0.00087     0.40811
      H   37    0.09117      0.00000     0.40800    0.00082     0.40883
      H   38    0.09552      0.00000     0.40281    0.00168     0.40448
      H   39    0.09084      0.00000     0.40837    0.00079     0.40916
      H   40    0.08973      0.00000     0.40930    0.00097     0.41027
 =======================================================================
   * Total *    0.00000     19.99249    53.77491    0.23260    74.00000

 Normal termination of Gaussian 16 at Sun Dec 13 21:49:05 2020.
