 Gaussian 16, Revision A.03,

 -----------------------------------------------------------
 # opt freq B3LYP/6-31G(d) empiricaldispersion=gd3bj scf=xqc
 -----------------------------------------------------------

 ------------------------------
 CID_147800269_JID_640_neutraal
 ------------------------------
 Symbolic Z-matrix:
 Charge =  0 Multiplicity = 1

 SCF Done:  E(RB3LYP) =  -390.673112004     A.U. after   13 cycles
 SCF Done:  E(RB3LYP) =  -390.683703582     A.U. after   11 cycles
 SCF Done:  E(RB3LYP) =  -390.684636710     A.U. after   11 cycles
 SCF Done:  E(RB3LYP) =  -390.684931721     A.U. after   10 cycles
 SCF Done:  E(RB3LYP) =  -390.685006704     A.U. after   10 cycles
 SCF Done:  E(RB3LYP) =  -390.685011795     A.U. after    8 cycles
 SCF Done:  E(RB3LYP) =  -390.685012188     A.U. after    7 cycles
 SCF Done:  E(RB3LYP) =  -390.685012264     A.U. after    6 cycles
 Optimization completed.
    -- Stationary point found.
 Normal termination of Gaussian 16 at Tue Dec  8 12:22:09 2020.

 --------------------------------------------------------------------
 #N Geom=AllCheck Guess=TCheck SCRF=Check GenChk RB3LYP/6-31G(d) Freq
 --------------------------------------------------------------------

 Structure from the checkpoint file:  "JID_640.chk"
 ------------------------------
 CID_147800269_JID_640_neutraal
 ------------------------------
 Charge =  0 Multiplicity = 1

 SCF Done:  E(RB3LYP) =  -390.685012264     A.U. after    1 cycles

  Exact polarizability: 105.721  -4.241 105.003   4.369  -5.088  86.210
 Approx polarizability: 134.087  -8.054 155.046   8.722 -12.536 131.560

                      1                      2                      3
                      A                      A                      A
 Frequencies --     68.3174               125.0175               164.9146
 Red. masses --      2.6708                 2.5191                 2.6780
 Frc consts  --      0.0073                 0.0232                 0.0429
 IR Inten    --      0.0520                 0.0547                 0.2848

                      4                      5                      6
                      A                      A                      A
 Frequencies --    194.3360               203.5300               254.8293
 Red. masses --      2.0783                 2.7923                 1.4318
 Frc consts  --      0.0462                 0.0682                 0.0548
 IR Inten    --      0.1924                 0.0691                 0.5310

                      7                      8                      9
                      A                      A                      A
 Frequencies --    279.8961               311.0317               410.8587
 Red. masses --      1.5634                 2.1114                 1.9506
 Frc consts  --      0.0722                 0.1203                 0.1940
 IR Inten    --      0.7319                 0.2843                 0.0023

                     10                     11                     12
                      A                      A                      A
 Frequencies --    439.2432               452.9183               593.9466
 Red. masses --      2.1068                 2.4896                 2.4030
 Frc consts  --      0.2395                 0.3009                 0.4995
 IR Inten    --      0.1511                 0.0999                 0.2034

                     13                     14                     15
                      A                      A                      A
 Frequencies --    645.3422               674.8804               733.6182
 Red. masses --      2.2174                 3.6778                 2.8549
 Frc consts  --      0.5441                 0.9870                 0.9053
 IR Inten    --      0.4138                 3.1061                 2.1683

                     16                     17                     18
                      A                      A                      A
 Frequencies --    769.3810               793.7329               804.5567
 Red. masses --      1.3452                 1.8886                 1.6843
 Frc consts  --      0.4692                 0.7010                 0.6424
 IR Inten    --      0.0482                 3.4472                 2.1878

                     19                     20                     21
                      A                      A                      A
 Frequencies --    848.4282               865.3380               881.6551
 Red. masses --      1.7722                 1.5021                 2.4792
 Frc consts  --      0.7516                 0.6627                 1.1354
 IR Inten    --      1.6855                 1.6857                 0.5561

                     22                     23                     24
                      A                      A                      A
 Frequencies --    892.7614               906.7838               926.3350
 Red. masses --      1.3860                 2.4689                 1.4543
 Frc consts  --      0.6509                 1.1961                 0.7352
 IR Inten    --     42.2453                 1.2044                 0.4451

                     25                     26                     27
                      A                      A                      A
 Frequencies --    948.9362               978.1930               982.7896
 Red. masses --      2.1676                 2.0760                 1.9612
 Frc consts  --      1.1500                 1.1704                 1.1161
 IR Inten    --      0.4868                 0.2763                 0.2661

                     28                     29                     30
                      A                      A                      A
 Frequencies --   1037.8760              1059.5170              1078.5931
 Red. masses --      1.4182                 1.5061                 2.1772
 Frc consts  --      0.9001                 0.9961                 1.4923
 IR Inten    --      0.4450                 1.0591                 0.3955

                     31                     32                     33
                      A                      A                      A
 Frequencies --   1093.1973              1127.6584              1155.4268
 Red. masses --      1.3786                 1.4009                 1.8157
 Frc consts  --      0.9707                 1.0496                 1.4282
 IR Inten    --      0.7537                 1.9889                 1.4715

                     34                     35                     36
                      A                      A                      A
 Frequencies --   1174.6915              1182.0559              1197.7094
 Red. masses --      1.8887                 1.8052                 1.6912
 Frc consts  --      1.5356                 1.4861                 1.4294
 IR Inten    --      1.3547                 2.9673                 0.5164

                     37                     38                     39
                      A                      A                      A
 Frequencies --   1238.8298              1246.1960              1265.6419
 Red. masses --      1.5066                 1.3716                 1.4200
 Frc consts  --      1.3623                 1.2550                 1.3401
 IR Inten    --      1.1711                 1.4132                 1.5373

                     40                     41                     42
                      A                      A                      A
 Frequencies --   1279.0855              1300.5052              1326.5566
 Red. masses --      1.7197                 1.3530                 1.3958
 Frc consts  --      1.6577                 1.3483                 1.4472
 IR Inten    --      1.0245                 0.7836                 0.7814

                     43                     44                     45
                      A                      A                      A
 Frequencies --   1332.5730              1362.9132              1401.6185
 Red. masses --      1.3613                 1.8778                 1.5067
 Frc consts  --      1.4242                 2.0551                 1.7440
 IR Inten    --      4.4651                 4.4460                 3.3173

                     46                     47                     48
                      A                      A                      A
 Frequencies --   1410.4782              1447.4362              1471.0474
 Red. masses --      1.5754                 1.2706                 1.1568
 Frc consts  --      1.8466                 1.5684                 1.4748
 IR Inten    --      1.0416                 4.7115                 0.4104

                     49                     50                     51
                      A                      A                      A
 Frequencies --   1509.3707              1518.1962              1520.2219
 Red. masses --      1.0859                 1.0888                 1.0836
 Frc consts  --      1.4576                 1.4787                 1.4755
 IR Inten    --      0.9361                 0.3933                 0.3644

                     52                     53                     54
                      A                      A                      A
 Frequencies --   1522.0593              1531.4505              1539.1077
 Red. masses --      1.0773                 1.0433                 1.0714
 Frc consts  --      1.4705                 1.4417                 1.4953
 IR Inten    --      0.9774                 7.9541                 7.2372

                     55                     56                     57
                      A                      A                      A
 Frequencies --   1545.2439              1780.1164              3016.7205
 Red. masses --      1.1096                 7.2101                 1.0607
 Frc consts  --      1.5610                13.4613                 5.6874
 IR Inten    --      0.9370                21.8560                25.3775

                     58                     59                     60
                      A                      A                      A
 Frequencies --   3032.3453              3046.9461              3051.6277
 Red. masses --      1.0666                 1.0422                 1.0933
 Frc consts  --      5.7785                 5.7008                 5.9985
 IR Inten    --     16.1117                25.4100                29.0803

                     61                     62                     63
                      A                      A                      A
 Frequencies --   3058.6605              3061.1923              3067.0142
 Red. masses --      1.0609                 1.0623                 1.0991
 Frc consts  --      5.8475                 5.8649                 6.0912
 IR Inten    --     32.5218                50.2363                48.1431

                     64                     65                     66
                      A                      A                      A
 Frequencies --   3072.1237              3101.9444              3105.9339
 Red. masses --      1.0604                 1.1069                 1.1016
 Frc consts  --      5.8965                 6.2752                 6.2614
 IR Inten    --     62.7830                 2.6016                46.2784

                     67                     68                     69
                      A                      A                      A
 Frequencies --   3121.2038              3134.7185              3140.0765
 Red. masses --      1.1062                 1.0925                 1.0990
 Frc consts  --      6.3495                 6.3249                 6.3845
 IR Inten    --     53.6878                53.1932                23.7652

                     70                     71                     72
                      A                      A                      A
 Frequencies --   3143.3365              3155.7219              3231.2115
 Red. masses --      1.1008                 1.0588                 1.1159
 Frc consts  --      6.4085                 6.2124                 6.8648
 IR Inten    --     30.6550                11.0754                14.7678

 - Thermochemistry -
 -------------------
 Temperature   298.150 Kelvin.  Pressure   1.00000 Atm.
 Atom     1 has atomic number  6 and mass  12.00000

 Molecular mass:   136.12520 amu.
 Principal axes and moments of inertia in atomic units:
                           1         2         3
     Eigenvalues --   816.168471707.850981984.26106
           X            0.99992  -0.01235  -0.00210
           Y            0.01235   0.99992   0.00164
           Z            0.00208  -0.00166   1.00000
 This molecule is an asymmetric top.
 Rotational symmetry number  1.
 Warning -- assumption of classical behavior for rotation
           may cause significant error
 Rotational temperatures (Kelvin)      0.10612     0.05072     0.04365
 Rotational constants (GHZ):           2.21124     1.05673     0.90953
 Zero-point vibrational energy     624138.0 (Joules/Mol)
                                  149.17256 (Kcal/Mol)
 Warning -- explicit consideration of  12 degrees of freedom as
           vibrations may cause significant error
 Vibrational temperatures:     98.29   179.87   237.28   279.61   292.83
          (Kelvin)            366.64   402.71   447.51   591.13   631.97
                              651.65   854.56   928.50   971.00  1055.51
                             1106.97  1142.00  1157.58  1220.70  1245.03
                             1268.51  1284.48  1304.66  1332.79  1365.31
                             1407.40  1414.01  1493.27  1524.41  1551.85
                             1572.87  1622.45  1662.40  1690.12  1700.71
                             1723.24  1782.40  1793.00  1820.98  1840.32
                             1871.14  1908.62  1917.28  1960.93  2016.62
                             2029.36  2082.54  2116.51  2171.65  2184.35
                             2187.26  2189.90  2203.42  2214.43  2223.26
                             2561.19  4340.39  4362.87  4383.88  4390.61
                             4400.73  4404.37  4412.75  4420.10  4463.01
                             4468.75  4490.72  4510.16  4517.87  4522.56
                             4540.38  4648.99

 Zero-point correction=                           0.237722 (Hartree/Particle)
 Thermal correction to Energy=                    0.247543
 Thermal correction to Enthalpy=                  0.248487
 Thermal correction to Gibbs Free Energy=         0.203178
 Sum of electronic and zero-point Energies=           -390.447291
 Sum of electronic and thermal Energies=              -390.437470
 Sum of electronic and thermal Enthalpies=            -390.436525
 Sum of electronic and thermal Free Energies=         -390.481834

                     E (Thermal)             CV                S
                      KCal/Mol        Cal/Mol-Kelvin    Cal/Mol-Kelvin
 Total                  155.335             39.196             95.361
 Electronic               0.000              0.000              0.000
 Translational            0.889              2.981             40.637
 Rotational               0.889              2.981             29.404
 Vibrational            153.558             33.235             25.319
 Vibration     1          0.598              1.969              4.201
 Vibration     2          0.610              1.928              3.021
 Vibration     3          0.623              1.886              2.493
 Vibration     4          0.635              1.848              2.186
 Vibration     5          0.639              1.835              2.101
 Vibration     6          0.665              1.755              1.697
 Vibration     7          0.680              1.711              1.534
 Vibration     8          0.700              1.653              1.357
 Vibration     9          0.775              1.447              0.924
 Vibration    10          0.799              1.385              0.829
 Vibration    11          0.811              1.354              0.787
 Vibration    12          0.952              1.045              0.460

                           ! Non-Optimized Parameters !
 Normal termination of Gaussian 16 at Tue Dec  8 12:29:59 2020.

 ----------------------------------------------------------------------
 # B3LYP/6-311++G(d,p) empiricaldispersion=gd3bj scf=xqc pop=npa geom=c
 heck
 ----------------------------------------------------------------------

 --------------------------------------
 CID_147800269_JID_640_Energie_neutraal
 --------------------------------------
 Structure from the checkpoint file:  "JID_640.chk"
 Charge =  0 Multiplicity = 1

 SCF Done:  E(RB3LYP) =  -390.787790683     A.U. after   13 cycles
 Normal termination of Gaussian 16 at Tue Dec  8 12:40:11 2020.

 ----------------------------------------------------------------------
 # B3LYP/6-311++G(d,p) empiricaldispersion=gd3bj scf=xqc pop=npa geom=c
 heck
 ----------------------------------------------------------------------

 ------------------------------------
 CID_147800269_JID_640_Energie_kation
 ------------------------------------
 Structure from the checkpoint file:  "JID_640.chk"
 Charge =  1 Multiplicity = 2

 SCF Done:  E(UB3LYP) =  -390.463150155     A.U. after   20 cycles
 Normal termination of Gaussian 16 at Tue Dec  8 12:50:23 2020.
 Gaussian 16:  ES64L-G16RevA.03 25-Dec-2016

 ----------------------------------------------------------------------
 # B3LYP/6-311++G(d,p) empiricaldispersion=gd3bj scf=xqc pop=npa geom=c
 heck
 ----------------------------------------------------------------------

 -----------------------------------
 CID_147800269_JID_640_Energie_anion
 -----------------------------------
 Structure from the checkpoint file:  "JID_640.chk"
 Charge = -1 Multiplicity = 2

                         Standard orientation:
 ---------------------------------------------------------------------
 Center     Atomic      Atomic             Coordinates (Angstroms)
 Number     Number       Type             X           Y           Z
 ---------------------------------------------------------------------
      1          6           0       -2.847434    0.617875    0.322490
      2          6           0       -2.375667   -0.830634    0.170939
      3          6           0       -1.141470   -1.029141   -0.723062
      4          6           0        0.174811   -0.479875   -0.198114
      5          6           0        1.465714   -1.097013   -0.809263
      6          6           0        2.557803   -0.293166   -0.029559
      7          6           0        1.630370    0.592995    0.833586
      8          6           0        0.571141   -0.445794    1.321424
      9          6           0        0.575176    0.999479   -0.185804
     10          6           0        0.135807    2.130546   -0.719435
     11          1           0       -2.087160    1.246930    0.792939
     12          1           0       -3.758021    0.669275    0.930490
     13          1           0       -3.074681    1.059162   -0.655847
     14          1           0       -2.168028   -1.255304    1.162218
     15          1           0       -3.196021   -1.429072   -0.246983
     16          1           0       -1.013406   -2.108059   -0.888497
     17          1           0       -1.331117   -0.595240   -1.716177
     18          1           0        1.515383   -0.938250   -1.891268
     19          1           0        1.514829   -2.175422   -0.620140
     20          1           0        3.197857   -0.936237    0.583977
     21          1           0        3.197914    0.298999   -0.690204
     22          1           0        2.093102    1.312501    1.511533
     23          1           0        0.943659   -1.376493    1.766044
     24          1           0       -0.200507    0.002307    1.951158
     25          1           0       -0.709669    2.146830   -1.402092
     26          1           0        0.598369    3.086441   -0.486353
 ---------------------------------------------------------------------

 SCF Done:  E(UB3LYP) =  -390.768182570     A.U. after   32 cycles

 The electronic state is 2-A.
 Alpha  occ. eigenvalues --  -10.08091 -10.07562 -10.07471 -10.06379 -10.06245
 Alpha  occ. eigenvalues --  -10.06180 -10.05950 -10.05751 -10.05298 -10.04700
 Alpha  occ. eigenvalues --   -0.79438  -0.68110  -0.64158  -0.61089  -0.60560
 Alpha  occ. eigenvalues --   -0.55301  -0.50500  -0.48036  -0.44806  -0.39800
 Alpha  occ. eigenvalues --   -0.37778  -0.35787  -0.34815  -0.34331  -0.32499
 Alpha  occ. eigenvalues --   -0.31977  -0.29991  -0.26721  -0.25789  -0.25621
 Alpha  occ. eigenvalues --   -0.24368  -0.23950  -0.22782  -0.22158  -0.20835
 Alpha  occ. eigenvalues --   -0.19406  -0.18630  -0.14667   0.04920
 Alpha virt. eigenvalues --    0.07006   0.07582   0.08197   0.09236   0.09499
 Alpha virt. eigenvalues --    0.09690   0.10008   0.10383   0.11565   0.12154
 Alpha virt. eigenvalues --    0.12801   0.12937   0.13290   0.13526   0.14721

  Beta  occ. eigenvalues --  -10.08090 -10.07561 -10.07458 -10.06353 -10.06224
  Beta  occ. eigenvalues --  -10.06162 -10.05934 -10.05729 -10.05284 -10.04671
  Beta  occ. eigenvalues --   -0.79421  -0.68073  -0.64137  -0.61051  -0.60523
  Beta  occ. eigenvalues --   -0.55247  -0.50441  -0.47965  -0.44751  -0.39755
  Beta  occ. eigenvalues --   -0.37735  -0.35759  -0.34792  -0.34287  -0.32452
  Beta  occ. eigenvalues --   -0.31946  -0.29960  -0.26690  -0.25750  -0.25584
  Beta  occ. eigenvalues --   -0.24331  -0.23911  -0.22748  -0.22116  -0.20808
  Beta  occ. eigenvalues --   -0.19376  -0.18603  -0.14648
  Beta virt. eigenvalues --    0.07184   0.08055   0.08352   0.08798   0.09758
  Beta virt. eigenvalues --    0.10110   0.10309   0.10374   0.10811   0.11990
  Beta virt. eigenvalues --    0.12685   0.13274   0.13404   0.13759   0.13933

 Mulliken charges and spin densities:
               1          2
     1  C    1.154717  -1.744784
     2  C   -1.406684   1.159684
     3  C   -0.699015   0.550710
     4  C   -1.708368   2.695729
     5  C    0.773458  -1.255806
     6  C    1.623996  -2.232579
     7  C   -2.774243   3.337470
     8  C    1.962601  -2.998419
     9  C    1.123021  -1.701456
    10  C    2.277412  -2.510176
    11  H   -0.130424   0.283397
    12  H   -0.490679   0.622988
    13  H   -0.035075   0.161942
    14  H   -0.002907   0.149163
    15  H   -0.598023   0.751687
    16  H   -0.013884   0.160357
    17  H   -0.082130   0.237745
    18  H   -0.121171   0.258564
    19  H   -0.185165   0.338112
    20  H   -0.396666   0.543476
    21  H   -0.026164   0.171368
    22  H   -0.868778   1.098798
    23  H   -0.771548   0.944604
    24  H    0.345712  -0.218043
    25  H    0.104210   0.024906
    26  H   -0.054204   0.170563
 Sum of Mulliken charges =  -1.00000   1.00000

 Dipole moment (field-independent basis, Debye):
    X=              0.3900    Y=              1.8121    Z=             -2.2866  Tot=              2.9435
 Quadrupole moment (field-independent basis, Debye-Ang):
   XX=           -130.5927   YY=           -103.6482   ZZ=            -99.7859
   XY=              1.4113   XZ=             -3.4707   YZ=             -0.8737

 Summary of Natural Population Analysis:

                                       Natural Population
                Natural  -----------------------------------------------
    Atom  No    Charge         Core      Valence    Rydberg      Total
 -----------------------------------------------------------------------
      C    1   -0.28706      0.99966     2.28157    0.00583     3.28706
      C    2   -0.18608      0.99964     2.17837    0.00808     3.18608
      C    3   -0.19170      0.99957     2.18102    0.01112     3.19170
      C    4   -0.04488      0.99950     2.02751    0.01787     3.04488
      C    5   -0.18107      0.99961     2.17247    0.00900     3.18107
      C    6   -0.18601      0.99964     2.17790    0.00847     3.18601
      C    7   -0.11742      0.99956     2.10359    0.01428     3.11742
      C    8   -0.17860      0.99961     2.16957    0.00942     3.17860
      C    9    0.01727      0.99951     1.96446    0.01876     2.98273
      C   10   -0.21564      0.99944     2.20879    0.00741     3.21564
      H   11    0.10080      0.00000     0.39774    0.00146     0.39920
      H   12    0.09771      0.00000     0.40113    0.00116     0.40229
      H   13    0.09329      0.00000     0.40544    0.00127     0.40671
      H   14    0.09404      0.00000     0.40451    0.00145     0.40596
      H   15    0.09523      0.00000     0.40328    0.00149     0.40477
      H   16    0.10179      0.00000     0.39682    0.00139     0.39821
      H   17    0.09850      0.00000     0.40025    0.00125     0.40150
      H   18    0.09852      0.00000     0.40039    0.00109     0.40148
      H   19    0.09943      0.00000     0.39918    0.00139     0.40057
      H   20    0.09957      0.00000     0.39855    0.00188     0.40043
      H   21    0.09753      0.00000     0.40123    0.00124     0.40247
      H   22    0.10057      0.00000     0.39733    0.00210     0.39943
      H   23    0.09788      0.00000     0.40038    0.00174     0.40212
      H   24    0.10291      0.00000     0.39541    0.00168     0.39709
      H   25    0.09728      0.00000     0.40150    0.00121     0.40272
      H   26    0.09617      0.00000     0.40270    0.00113     0.40383
 =======================================================================
   * Total *    0.00000      9.99573    27.87109    0.13318    38.00000

 Normal termination of Gaussian 16 at Tue Dec  8 13:04:49 2020.
