 Gaussian 16, Revision A.03,

 -----------------------------------------------------------
 # opt freq B3LYP/6-31G(d) empiricaldispersion=gd3bj scf=xqc
 -----------------------------------------------------------

 ------------------------------
 CID_83688782_JID_4765_neutraal
 ------------------------------
 Symbolic Z-matrix:
 Charge =  0 Multiplicity = 1

 SCF Done:  E(RB3LYP) =  -941.577627976     A.U. after   15 cycles
 SCF Done:  E(RB3LYP) =  -941.583127033     A.U. after   12 cycles
 SCF Done:  E(RB3LYP) =  -941.583953251     A.U. after   12 cycles
 SCF Done:  E(RB3LYP) =  -941.584074501     A.U. after   11 cycles
 SCF Done:  E(RB3LYP) =  -941.584205988     A.U. after   11 cycles
 SCF Done:  E(RB3LYP) =  -941.584272313     A.U. after   10 cycles
 SCF Done:  E(RB3LYP) =  -941.584357229     A.U. after   12 cycles
 SCF Done:  E(RB3LYP) =  -941.584399515     A.U. after   10 cycles
 SCF Done:  E(RB3LYP) =  -941.584440287     A.U. after   11 cycles
 SCF Done:  E(RB3LYP) =  -941.584454336     A.U. after   10 cycles
 SCF Done:  E(RB3LYP) =  -941.584459740     A.U. after   10 cycles
 SCF Done:  E(RB3LYP) =  -941.584461349     A.U. after    8 cycles
 SCF Done:  E(RB3LYP) =  -941.584461668     A.U. after    8 cycles
 Optimization completed.
    -- Stationary point found.
 Normal termination of Gaussian 16 at Thu Dec 10 10:11:08 2020.

 --------------------------------------------------------------------
 #N Geom=AllCheck Guess=TCheck SCRF=Check GenChk RB3LYP/6-31G(d) Freq
 --------------------------------------------------------------------

 Structure from the checkpoint file:  "JID_4765.chk"
 ------------------------------
 CID_83688782_JID_4765_neutraal
 ------------------------------
 Charge =  0 Multiplicity = 1

 SCF Done:  E(RB3LYP) =  -941.584461668     A.U. after    1 cycles

  Exact polarizability: 178.908  -0.080 111.785  -1.148  -9.418 128.587
 Approx polarizability: 242.411  -3.855 171.726  -2.122 -31.074 217.878

                      1                      2                      3
                      A                      A                      A
 Frequencies --     42.6860                61.7956                81.2330
 Red. masses --      4.1165                 2.8514                 3.2818
 Frc consts  --      0.0044                 0.0064                 0.0128
 IR Inten    --      0.3916                 0.6572                 0.3289

                      4                      5                      6
                      A                      A                      A
 Frequencies --    112.3287               118.9686               127.0395
 Red. masses --      1.1521                 1.8233                 3.5063
 Frc consts  --      0.0086                 0.0152                 0.0333
 IR Inten    --      0.1040                 0.3797                 0.2735

                      7                      8                      9
                      A                      A                      A
 Frequencies --    155.8402               184.3683               232.3528
 Red. masses --      3.0756                 3.7355                 1.4222
 Frc consts  --      0.0440                 0.0748                 0.0452
 IR Inten    --      0.1782                 0.4336                 1.2272

                     10                     11                     12
                      A                      A                      A
 Frequencies --    244.9938               281.2130               287.2645
 Red. masses --      1.7832                 3.4470                 3.7879
 Frc consts  --      0.0631                 0.1606                 0.1842
 IR Inten    --      0.9415                 0.3114                 3.2615

                     13                     14                     15
                      A                      A                      A
 Frequencies --    330.6993               353.0745               362.4416
 Red. masses --      4.4278                 2.7008                 3.8302
 Frc consts  --      0.2853                 0.1984                 0.2964
 IR Inten    --      1.9025                 0.8719                 0.4777

                     16                     17                     18
                      A                      A                      A
 Frequencies --    407.2585               442.8736               485.7426
 Red. masses --      1.2185                 2.2891                 2.9567
 Frc consts  --      0.1191                 0.2645                 0.4110
 IR Inten    --    121.6872                31.3528                31.7836

                     19                     20                     21
                      A                      A                      A
 Frequencies --    501.8852               553.7604               591.8578
 Red. masses --      4.0873                 3.4638                 4.1951
 Frc consts  --      0.6066                 0.6258                 0.8658
 IR Inten    --      0.3741                 1.9112                 3.9448

                     22                     23                     24
                      A                      A                      A
 Frequencies --    636.0882               653.1299               669.8646
 Red. masses --      3.1394                 2.4697                 3.0800
 Frc consts  --      0.7484                 0.6207                 0.8143
 IR Inten    --      4.3619                 0.9668                 6.9216

                     25                     26                     27
                      A                      A                      A
 Frequencies --    681.0260               741.5927               798.2358
 Red. masses --      4.9115                 6.8815                 1.3637
 Frc consts  --      1.3421                 2.2298                 0.5120
 IR Inten    --      3.7763                 0.8073                 7.5716

                     28                     29                     30
                      A                      A                      A
 Frequencies --    816.1950               831.6299               855.8784
 Red. masses --      1.2512                 1.5775                 2.9618
 Frc consts  --      0.4911                 0.6428                 1.2783
 IR Inten    --     19.6681                 0.1269                 2.5274

                     31                     32                     33
                      A                      A                      A
 Frequencies --    883.1425               901.1579               917.7610
 Red. masses --      1.4339                 3.0363                 2.6327
 Frc consts  --      0.6589                 1.4528                 1.3065
 IR Inten    --      0.2218                 0.9888                 7.6384

                     34                     35                     36
                      A                      A                      A
 Frequencies --    937.2045               971.9589               999.2659
 Red. masses --      1.9887                 2.2411                 1.7053
 Frc consts  --      1.0292                 1.2474                 1.0033
 IR Inten    --      9.5948                 2.4410                 2.2363

                     37                     38                     39
                      A                      A                      A
 Frequencies --   1012.3375              1044.1729              1062.8197
 Red. masses --      1.6881                 1.7106                 1.5450
 Frc consts  --      1.0193                 1.0989                 1.0283
 IR Inten    --      1.7039                 6.0619                 0.7093

                     40                     41                     42
                      A                      A                      A
 Frequencies --   1064.5193              1072.9916              1082.7550
 Red. masses --      1.9670                 1.3957                 1.7406
 Frc consts  --      1.3133                 0.9467                 1.2023
 IR Inten    --      9.7034                 1.0064                17.8935

                     43                     44                     45
                      A                      A                      A
 Frequencies --   1100.3118              1122.5824              1167.7464
 Red. masses --      2.6465                 1.8278                 2.5467
 Frc consts  --      1.8878                 1.3571                 2.0461
 IR Inten    --      2.4823                70.0426                 8.1269

                     46                     47                     48
                      A                      A                      A
 Frequencies --   1177.9510              1189.8745              1235.5959
 Red. masses --      2.8994                 4.0755                 1.3924
 Frc consts  --      2.3704                 3.3997                 1.2524
 IR Inten    --     16.8141                 5.3171                 0.8973

                     49                     50                     51
                      A                      A                      A
 Frequencies --   1245.9893              1264.6482              1271.2771
 Red. masses --      1.4707                 1.4592                 1.3732
 Frc consts  --      1.3453                 1.3750                 1.3075
 IR Inten    --      3.4937                 4.9536                 2.2248

                     52                     53                     54
                      A                      A                      A
 Frequencies --   1277.3516              1319.5386              1328.0538
 Red. masses --      1.3320                 1.4433                 1.3268
 Frc consts  --      1.2805                 1.4806                 1.3788
 IR Inten    --      3.8938                 7.1199                 1.7864

                     55                     56                     57
                      A                      A                      A
 Frequencies --   1351.0333              1355.4568              1368.8754
 Red. masses --      1.2784                 1.4031                 1.9453
 Frc consts  --      1.3749                 1.5188                 2.1477
 IR Inten    --      0.7682                 0.1241                 3.5327

                     58                     59                     60
                      A                      A                      A
 Frequencies --   1371.4254              1389.8560              1434.1556
 Red. masses --      1.6330                 1.6378                 1.2260
 Frc consts  --      1.8095                 1.8640                 1.4856
 IR Inten    --      5.7666                 6.5021                12.3645

                     61                     62                     63
                      A                      A                      A
 Frequencies --   1444.6439              1447.9250              1508.0153
 Red. masses --      1.2443                 1.2192                 1.0423
 Frc consts  --      1.5300                 1.5060                 1.3966
 IR Inten    --      3.4683                35.6266                 7.3999

                     64                     65                     66
                      A                      A                      A
 Frequencies --   1514.5856              1520.9911              1522.5593
 Red. masses --      1.0752                 1.1543                 1.0628
 Frc consts  --      1.4532                 1.5734                 1.4515
 IR Inten    --      0.9724                 8.2228                 1.9457

                     67                     68                     69
                      A                      A                      A
 Frequencies --   1525.9030              1527.8045              1534.7459
 Red. masses --      1.0550                 1.0796                 1.0760
 Frc consts  --      1.4472                 1.4847                 1.4932
 IR Inten    --      4.2896                 1.3011                 3.4841

                     70                     71                     72
                      A                      A                      A
 Frequencies --   1553.8808              1555.1019              1625.3873
 Red. masses --      1.2229                 3.4791                 5.3272
 Frc consts  --      1.7397                 4.9572                 8.2921
 IR Inten    --      2.8169                 3.1138                 2.6086

                     73                     74                     75
                      A                      A                      A
 Frequencies --   3043.4849              3056.8250              3061.6667
 Red. masses --      1.0365                 1.0378                 1.0660
 Frc consts  --      5.6566                 5.7137                 5.8876
 IR Inten    --     43.9775                10.3245                30.6576

                     76                     77                     78
                      A                      A                      A
 Frequencies --   3062.5548              3068.2016              3073.7571
 Red. masses --      1.0629                 1.0649                 1.0675
 Frc consts  --      5.8735                 5.9064                 5.9423
 IR Inten    --      6.6993                35.9166                17.9183

                     79                     80                     81
                      A                      A                      A
 Frequencies --   3084.7402              3094.0703              3094.4331
 Red. masses --      1.0825                 1.0996                 1.1017
 Frc consts  --      6.0688                 6.2021                 6.2155
 IR Inten    --     53.7360                12.5356                17.3531

                     82                     83                     84
                      A                      A                      A
 Frequencies --   3110.3398              3118.3033              3127.2923
 Red. masses --      1.1002                 1.1036                 1.1008
 Frc consts  --      6.2711                 6.3228                 6.3428
 IR Inten    --      3.7415                64.2721                13.4903

                     85                     86                     87
                      A                      A                      A
 Frequencies --   3128.9537              3135.7800              3136.3212
 Red. masses --      1.1001                 1.1010                 1.1016
 Frc consts  --      6.3457                 6.3784                 6.3845
 IR Inten    --     48.4978                 2.4664                37.4029

                     88                     89                     90
                      A                      A                      A
 Frequencies --   3207.1162              3227.0111              3702.9930
 Red. masses --      1.0901                 1.0953                 1.0655
 Frc consts  --      6.6059                 6.7200                 8.6081
 IR Inten    --     15.5091                 7.5178                24.6640

 - Thermochemistry -
 -------------------
 Temperature   298.150 Kelvin.  Pressure   1.00000 Atm.
 Atom     1 has atomic number  6 and mass  12.00000

 Molecular mass:   210.10784 amu.
 Principal axes and moments of inertia in atomic units:
                           1         2         3
     Eigenvalues --  1623.607324440.004384582.60164
           X            0.99997   0.00712  -0.00020
           Y           -0.00701   0.98876   0.14937
           Z            0.00126  -0.14936   0.98878
 This molecule is an asymmetric top.
 Rotational symmetry number  1.
 Warning -- assumption of classical behavior for rotation
           may cause significant error
 Rotational temperatures (Kelvin)      0.05335     0.01951     0.01890
 Rotational constants (GHZ):           1.11156     0.40647     0.39382
 Zero-point vibrational energy     731998.0 (Joules/Mol)
                                  174.95173 (Kcal/Mol)
 Warning -- explicit consideration of  21 degrees of freedom as
           vibrations may cause significant error
 Vibrational temperatures:     61.42    88.91   116.88   161.62   171.17
          (Kelvin)            182.78   224.22   265.26   334.30   352.49
                              404.60   413.31   475.80   508.00   521.47
                              585.95   637.20   698.88   722.10   796.74
                              851.55   915.19   939.71   963.79   979.84
                             1066.99  1148.48  1174.32  1196.53  1231.42
                             1270.65  1296.57  1320.45  1348.43  1398.43
                             1437.72  1456.53  1502.33  1529.16  1531.61
                             1543.80  1557.84  1583.10  1615.15  1680.13
                             1694.81  1711.96  1777.75  1792.70  1819.55
                             1829.08  1837.82  1898.52  1910.77  1943.84
                             1950.20  1969.51  1973.18  1999.69  2063.43
                             2078.52  2083.24  2169.70  2179.15  2188.37
                             2190.62  2195.43  2198.17  2208.16  2235.69
                             2237.44  2338.57  4378.90  4398.09  4405.06
                             4406.33  4414.46  4422.45  4438.25  4451.68
                             4452.20  4475.09  4486.54  4499.48  4501.87
                             4511.69  4512.47  4614.32  4642.95  5327.78

 Zero-point correction=                           0.278803 (Hartree/Particle)
 Thermal correction to Energy=                    0.293398
 Thermal correction to Enthalpy=                  0.294342
 Thermal correction to Gibbs Free Energy=         0.237316
 Sum of electronic and zero-point Energies=           -941.305658
 Sum of electronic and thermal Energies=              -941.291064
 Sum of electronic and thermal Enthalpies=            -941.290120
 Sum of electronic and thermal Free Energies=         -941.347146

                     E (Thermal)             CV                S
                      KCal/Mol        Cal/Mol-Kelvin    Cal/Mol-Kelvin
 Total                  184.110             55.999            120.022
 Electronic               0.000              0.000              0.000
 Translational            0.889              2.981             41.931
 Rotational               0.889              2.981             31.869
 Vibrational            182.332             50.038             46.222
 Vibration     1          0.595              1.980              5.130
 Vibration     2          0.597              1.973              4.399
 Vibration     3          0.600              1.962              3.861
 Vibration     4          0.607              1.939              3.228
 Vibration     5          0.609              1.934              3.117
 Vibration     6          0.611              1.926              2.990
 Vibration     7          0.620              1.896              2.600
 Vibration     8          0.631              1.861              2.284
 Vibration     9          0.653              1.791              1.861
 Vibration    10          0.660              1.771              1.766
 Vibration    11          0.681              1.708              1.526
 Vibration    12          0.684              1.697              1.490
 Vibration    13          0.713              1.614              1.257
 Vibration    14          0.729              1.569              1.152
 Vibration    15          0.736              1.550              1.112
 Vibration    16          0.772              1.454              0.936
 Vibration    17          0.803              1.377              0.818
 Vibration    18          0.842              1.282              0.695
 Vibration    19          0.857              1.246              0.653
 Vibration    20          0.909              1.131              0.536
 Vibration    21          0.949              1.049              0.464

                           ! Non-Optimized Parameters !
 Normal termination of Gaussian 16 at Thu Dec 10 10:21:49 2020.

 ----------------------------------------------------------------------
 # B3LYP/6-311++G(d,p) empiricaldispersion=gd3bj scf=xqc pop=npa geom=c
 heck
 ----------------------------------------------------------------------

 --------------------------------------
 CID_83688782_JID_4765_Energie_neutraal
 --------------------------------------
 Structure from the checkpoint file:  "JID_4765.chk"
 Charge =  0 Multiplicity = 1

 SCF Done:  E(RB3LYP) =  -941.765819827     A.U. after   14 cycles
 Normal termination of Gaussian 16 at Thu Dec 10 10:26:29 2020.

 ----------------------------------------------------------------------
 # B3LYP/6-311++G(d,p) empiricaldispersion=gd3bj scf=xqc pop=npa geom=c
 heck
 ----------------------------------------------------------------------

 ------------------------------------
 CID_83688782_JID_4765_Energie_kation
 ------------------------------------
 Structure from the checkpoint file:  "JID_4765.chk"
 Charge =  1 Multiplicity = 2

 SCF Done:  E(UB3LYP) =  -941.474751600     A.U. after   22 cycles
 Normal termination of Gaussian 16 at Thu Dec 10 10:39:56 2020.
 Gaussian 16:  ES64L-G16RevA.03 25-Dec-2016

 ----------------------------------------------------------------------
 # B3LYP/6-311++G(d,p) empiricaldispersion=gd3bj scf=xqc pop=npa geom=c
 heck
 ----------------------------------------------------------------------

 -----------------------------------
 CID_83688782_JID_4765_Energie_anion
 -----------------------------------
 Structure from the checkpoint file:  "JID_4765.chk"
 Charge = -1 Multiplicity = 2

                         Standard orientation:
 ---------------------------------------------------------------------
 Center     Atomic      Atomic             Coordinates (Angstroms)
 Number     Number       Type             X           Y           Z
 ---------------------------------------------------------------------
      1          6           0        4.373147   -0.130409   -0.481898
      2          6           0        2.968076   -0.304032    0.007056
      3          6           0        2.534957   -0.827995    1.192958
      4          6           0        1.111196   -0.848463    1.329254
      5          6           0        0.442309   -0.344982    0.246137
      6         16           0        1.599644    0.171370   -0.976175
      7          6           0       -1.036484   -0.161339    0.040495
      8          6           0       -1.515442   -0.637434   -1.355857
      9          6           0       -3.031425   -0.887645   -1.204463
     10          6           0       -3.268043   -1.153353    0.310288
     11          6           0       -1.874636   -1.074653    0.968835
     12          6           0       -1.434281    1.342977    0.236155
     13          6           0       -1.062321    1.916615    1.602274
     14          8           0       -0.911799    2.163606   -0.807408
     15          1           0        4.555660   -0.685504   -1.410028
     16          1           0        4.612916    0.921905   -0.677446
     17          1           0        5.074121   -0.499212    0.273346
     18          1           0        3.216887   -1.195804    1.953169
     19          1           0        0.601046   -1.225428    2.208421
     20          1           0       -1.278836    0.092490   -2.133450
     21          1           0       -0.996619   -1.570987   -1.600429
     22          1           0       -3.357092   -1.728344   -1.824642
     23          1           0       -3.602774   -0.014829   -1.536563
     24          1           0       -3.736649   -2.125214    0.493447
     25          1           0       -3.940044   -0.399606    0.734683
     26          1           0       -1.408464   -2.066294    0.979280
     27          1           0       -1.913237   -0.728021    2.005601
     28          1           0       -2.519086    1.412608    0.107114
     29          1           0        0.020015    1.862570    1.765473
     30          1           0       -1.370704    2.965247    1.649894
     31          1           0       -1.549589    1.378585    2.421474
     32          1           0        0.050203    2.219353   -0.678687
 ---------------------------------------------------------------------

 SCF Done:  E(UB3LYP) =  -941.748207155     A.U. after   33 cycles
 SCF Done:  E(UB3LYP) =  -941.748207155     a.u. after    1 cycles

 The electronic state is 2-A.
 Alpha  occ. eigenvalues --  -88.76529 -19.02454 -10.12710 -10.09553 -10.09304
 Alpha  occ. eigenvalues --  -10.09268 -10.07160 -10.07122 -10.06838 -10.06836
 Alpha  occ. eigenvalues --  -10.06693 -10.06626 -10.06578 -10.06443  -7.85169
 Alpha  occ. eigenvalues --   -5.81449  -5.81089  -5.80772  -0.92881  -0.78012
 Alpha  occ. eigenvalues --   -0.74628  -0.67191  -0.65370  -0.63269  -0.61313
 Alpha  occ. eigenvalues --   -0.61109  -0.56408  -0.53299  -0.48479  -0.47191
 Alpha  occ. eigenvalues --   -0.43552  -0.42605  -0.40251  -0.39525  -0.37540
 Alpha  occ. eigenvalues --   -0.36374  -0.34429  -0.33502  -0.32372  -0.32307
 Alpha  occ. eigenvalues --   -0.31338  -0.29692  -0.29077  -0.28044  -0.27537
 Alpha  occ. eigenvalues --   -0.26882  -0.25947  -0.24876  -0.24377  -0.23816
 Alpha  occ. eigenvalues --   -0.23339  -0.22586  -0.22002  -0.21502  -0.18117
 Alpha  occ. eigenvalues --   -0.15088  -0.12187   0.04754
 Alpha virt. eigenvalues --    0.05717   0.07212   0.07508   0.08028   0.08705
 Alpha virt. eigenvalues --    0.08828   0.10013   0.10328   0.10700   0.11042
 Alpha virt. eigenvalues --    0.11312   0.11501   0.12409   0.12858   0.13313

  Beta  occ. eigenvalues --  -88.76523 -19.02451 -10.12692 -10.09459 -10.09306
  Beta  occ. eigenvalues --  -10.09186 -10.07155 -10.07080 -10.06835 -10.06826
  Beta  occ. eigenvalues --  -10.06692 -10.06592 -10.06559 -10.06439  -7.85163
  Beta  occ. eigenvalues --   -5.81449  -5.81088  -5.80750  -0.92869  -0.77922
  Beta  occ. eigenvalues --   -0.74589  -0.67103  -0.65302  -0.63217  -0.61279
  Beta  occ. eigenvalues --   -0.61062  -0.56326  -0.53266  -0.48423  -0.47126
  Beta  occ. eigenvalues --   -0.43450  -0.42528  -0.40197  -0.39487  -0.37514
  Beta  occ. eigenvalues --   -0.36344  -0.34392  -0.33461  -0.32347  -0.32157
  Beta  occ. eigenvalues --   -0.31282  -0.29660  -0.29033  -0.27995  -0.27490
  Beta  occ. eigenvalues --   -0.26845  -0.25798  -0.24841  -0.24332  -0.23764
  Beta  occ. eigenvalues --   -0.23286  -0.22546  -0.21975  -0.21478  -0.18085
  Beta  occ. eigenvalues --   -0.14938  -0.11781
  Beta virt. eigenvalues --    0.06600   0.07262   0.07584   0.08173   0.08257
  Beta virt. eigenvalues --    0.09200   0.09318   0.10140   0.10532   0.10939
  Beta virt. eigenvalues --    0.11412   0.11512   0.11944   0.12435   0.13131

 Mulliken charges and spin densities:
               1          2
     1  C    3.117281  -3.628232
     2  C   -2.630623   2.524813
     3  C    0.071688  -0.168627
     4  C    0.318756  -0.246378
     5  C    0.219992   0.312397
     6  S   -0.044810  -0.288321
     7  C    0.132830   0.288008
     8  C   -0.267677  -0.050582
     9  C   -0.113980  -0.343535
    10  C    0.867651  -1.502688
    11  C   -0.787554   0.525663
    12  C   -0.037104  -0.433182
    13  C   -0.616354  -0.026368
    14  O   -0.157409   0.000329
    15  H    0.014806   0.133559
    16  H   -0.625277   0.802185
    17  H   -0.654671   0.813668
    18  H   -0.165477   0.329184
    19  H    0.133111  -0.004260
    20  H    0.170194   0.005440
    21  H    0.143229   0.026707
    22  H   -0.163929   0.321274
    23  H    0.012355   0.145593
    24  H   -0.523661   0.681901
    25  H   -0.292757   0.450502
    26  H    0.088649   0.054850
    27  H    0.131633  -0.004383
    28  H    0.038020   0.209542
    29  H    0.166308   0.008031
    30  H    0.154963  -0.000239
    31  H    0.147871  -0.007278
    32  H    0.151947   0.070426
 Sum of Mulliken charges =  -1.00000   1.00000

 Dipole moment (field-independent basis, Debye):
    X=             -2.8006    Y=              0.1770    Z=              1.0477  Tot=              2.9953
 Quadrupole moment (field-independent basis, Debye-Ang):
   XX=           -209.0797   YY=           -130.3575   ZZ=           -117.2780
   XY=            -15.5422   XZ=             -1.7869   YZ=              3.4260

 Summary of Natural Population Analysis:

                                       Natural Population
                Natural  -----------------------------------------------
    Atom  No    Charge         Core      Valence    Rydberg      Total
 -----------------------------------------------------------------------
      C    1   -0.29890      0.99961     2.29196    0.00734     3.29890
      C    2   -0.08149      0.99950     2.06877    0.01321     3.08149
      C    3   -0.13487      0.99946     2.12391    0.01150     3.13487
      C    4   -0.12698      0.99942     2.11800    0.00956     3.12698
      C    5   -0.07709      0.99941     2.06363    0.01405     3.07709
      S    6    0.19139      4.99937     2.79107    0.01817     7.80861
      C    7   -0.06374      0.99949     2.05050    0.01375     3.06374
      C    8   -0.18893      0.99960     2.17995    0.00937     3.18893
      C    9   -0.19548      0.99964     2.18740    0.00843     3.19548
      C   10   -0.19414      0.99964     2.18593    0.00856     3.19414
      C   11   -0.18769      0.99961     2.17830    0.00978     3.18769
      C   12    0.06693      0.99952     1.91749    0.01607     2.93307
      C   13   -0.29893      0.99964     2.29404    0.00525     3.29893
      O   14   -0.37634      0.99990     3.36991    0.00654     4.37634
      H   15    0.10215      0.00000     0.39686    0.00099     0.39785
      H   16    0.11103      0.00000     0.38412    0.00485     0.38897
      H   17    0.10888      0.00000     0.38909    0.00203     0.39112
      H   18    0.10458      0.00000     0.39457    0.00086     0.39542
      H   19    0.10470      0.00000     0.39446    0.00084     0.39530
      H   20    0.11052      0.00000     0.38852    0.00096     0.38948
      H   21    0.09936      0.00000     0.39968    0.00096     0.40064
      H   22    0.10062      0.00000     0.39842    0.00096     0.39938
      H   23    0.09782      0.00000     0.40119    0.00099     0.40218
      H   24    0.10250      0.00000     0.39558    0.00192     0.39750
      H   25    0.09707      0.00000     0.40126    0.00167     0.40293
      H   26    0.10175      0.00000     0.39714    0.00111     0.39825
      H   27    0.10035      0.00000     0.39872    0.00093     0.39965
      H   28    0.08988      0.00000     0.40832    0.00179     0.41012
      H   29    0.10343      0.00000     0.39544    0.00113     0.39657
      H   30    0.10146      0.00000     0.39780    0.00074     0.39854
      H   31    0.09978      0.00000     0.39948    0.00074     0.40022
      H   32    0.23043      0.00000     0.26661    0.00296     0.26957
 =======================================================================
   * Total *    0.00002     17.99381    38.82815    0.17801    56.99998

 Normal termination of Gaussian 16 at Thu Dec 10 10:57:26 2020.
