 Gaussian 16, Revision A.03,

 -----------------------------------------------------------
 # opt freq B3LYP/6-31G(d) empiricaldispersion=gd3bj scf=xqc
 -----------------------------------------------------------

 -------------------------------
 CID_142964140_JID_9663_neutraal
 -------------------------------
 Symbolic Z-matrix:
 Charge =  0 Multiplicity = 1

 SCF Done:  E(RB3LYP) =  -1222.41055720     A.U. after   15 cycles
 SCF Done:  E(RB3LYP) =  -1222.41739518     A.U. after   13 cycles
 SCF Done:  E(RB3LYP) =  -1222.41815181     A.U. after   12 cycles
 SCF Done:  E(RB3LYP) =  -1222.41781858     A.U. after   13 cycles
 SCF Done:  E(RB3LYP) =  -1222.41833939     A.U. after   12 cycles
 SCF Done:  E(RB3LYP) =  -1222.41836791     A.U. after   10 cycles
 SCF Done:  E(RB3LYP) =  -1222.41837602     A.U. after   10 cycles
 SCF Done:  E(RB3LYP) =  -1222.41837857     A.U. after    9 cycles
 SCF Done:  E(RB3LYP) =  -1222.41838214     A.U. after    9 cycles
 SCF Done:  E(RB3LYP) =  -1222.41838619     A.U. after   10 cycles
 SCF Done:  E(RB3LYP) =  -1222.41849241     A.U. after    9 cycles
 SCF Done:  E(RB3LYP) =  -1222.41849277     A.U. after    9 cycles
 SCF Done:  E(RB3LYP) =  -1222.41849324     A.U. after    8 cycles
 SCF Done:  E(RB3LYP) =  -1222.41849334     A.U. after    7 cycles
 SCF Done:  E(RB3LYP) =  -1222.41849340     A.U. after    7 cycles
 Optimization completed.
    -- Stationary point found.
 Normal termination of Gaussian 16 at Sun Dec 13 20:46:36 2020.

 --------------------------------------------------------------------
 #N Geom=AllCheck Guess=TCheck SCRF=Check GenChk RB3LYP/6-31G(d) Freq
 --------------------------------------------------------------------

 Structure from the checkpoint file:  "JID_9663.chk"
 -------------------------------
 CID_142964140_JID_9663_neutraal
 -------------------------------
 Charge =  0 Multiplicity = 1

 SCF Done:  E(RB3LYP) =  -1222.41849340     A.U. after    1 cycles

  Exact polarizability: 241.984  -9.020 221.318  -3.378  -3.668 102.650
 Approx polarizability: 333.752 -13.054 349.701  -8.495 -18.752 158.082

                      1                      2                      3
                      A                      A                      A
 Frequencies --     30.0480                44.3181                47.1909
 Red. masses --      2.7264                 3.6933                 2.9698
 Frc consts  --      0.0015                 0.0043                 0.0039
 IR Inten    --      1.7828                 1.4687                 0.9779

                      4                      5                      6
                      A                      A                      A
 Frequencies --     64.3842                66.9480                73.1842
 Red. masses --      3.9918                 2.7984                 1.6191
 Frc consts  --      0.0097                 0.0074                 0.0051
 IR Inten    --      1.8980                 1.5424                 1.0855

                      7                      8                      9
                      A                      A                      A
 Frequencies --    101.5324               108.3532               123.5062
 Red. masses --      2.8858                 3.6716                 3.1521
 Frc consts  --      0.0175                 0.0254                 0.0283
 IR Inten    --      0.4130                 0.0681                 1.1422

                     10                     11                     12
                      A                      A                      A
 Frequencies --    141.3065               156.5609               178.5483
 Red. masses --      3.8017                 1.6290                 1.7592
 Frc consts  --      0.0447                 0.0235                 0.0330
 IR Inten    --      0.2694                 0.0623                 0.3334

                     13                     14                     15
                      A                      A                      A
 Frequencies --    183.1322               228.5070               256.8544
 Red. masses --      4.0514                 1.3609                 1.4215
 Frc consts  --      0.0801                 0.0419                 0.0553
 IR Inten    --      2.1934                 4.0298                 0.3076

                     16                     17                     18
                      A                      A                      A
 Frequencies --    264.3582               274.9477               293.7813
 Red. masses --      4.1824                 3.4874                 3.1656
 Frc consts  --      0.1722                 0.1553                 0.1610
 IR Inten    --      2.2534                 0.6133                 2.5410

                     19                     20                     21
                      A                      A                      A
 Frequencies --    314.6678               328.1391               346.1336
 Red. masses --      3.7787                 2.8586                 3.6205
 Frc consts  --      0.2204                 0.1814                 0.2556
 IR Inten    --      3.6465                 1.9849                 8.9420

                     22                     23                     24
                      A                      A                      A
 Frequencies --    368.8807               394.1052               408.0676
 Red. masses --      5.7097                 8.3176                 6.2551
 Frc consts  --      0.4578                 0.7612                 0.6137
 IR Inten    --      2.5626                13.9926                 1.5972

                     25                     26                     27
                      A                      A                      A
 Frequencies --    449.7523               458.6273               501.1404
 Red. masses --      3.2306                 3.3962                 5.8208
 Frc consts  --      0.3850                 0.4209                 0.8613
 IR Inten    --      1.3727                 6.9280                 3.8870

                     28                     29                     30
                      A                      A                      A
 Frequencies --    549.4667               604.2146               616.0547
 Red. masses --      4.4440                 5.6571                 3.8081
 Frc consts  --      0.7905                 1.2168                 0.8515
 IR Inten    --     11.9899                 2.0264                 1.6319

                     31                     32                     33
                      A                      A                      A
 Frequencies --    647.7380               683.3412               692.8527
 Red. masses --      4.8297                 4.3739                 5.2493
 Frc consts  --      1.1939                 1.2033                 1.4847
 IR Inten    --      0.1404                16.2608                 1.6011

                     34                     35                     36
                      A                      A                      A
 Frequencies --    702.9519               739.2730               772.7970
 Red. masses --      5.8326                 6.9356                 2.4873
 Frc consts  --      1.6981                 2.2333                 0.8752
 IR Inten    --      2.2845                 4.5874                 2.0573

                     37                     38                     39
                      A                      A                      A
 Frequencies --    778.8742               803.4070               812.7167
 Red. masses --      4.9726                 1.6737                 2.1222
 Frc consts  --      1.7773                 0.6365                 0.8259
 IR Inten    --     13.3310                23.2539                17.9925

                     40                     41                     42
                      A                      A                      A
 Frequencies --    863.4986               898.8983               904.9945
 Red. masses --      2.7204                 2.9090                 1.3979
 Frc consts  --      1.1951                 1.3849                 0.6745
 IR Inten    --      6.4207                 4.4705                18.8398

                     43                     44                     45
                      A                      A                      A
 Frequencies --    913.9162               939.4731               992.0545
 Red. masses --      1.2622                 5.6114                 1.2147
 Frc consts  --      0.6211                 2.9180                 0.7044
 IR Inten    --      0.0884                 1.3935                10.0576

                     46                     47                     48
                      A                      A                      A
 Frequencies --    994.5903               998.7442              1037.8997
 Red. masses --      2.6365                 1.4356                 2.0822
 Frc consts  --      1.5366                 0.8437                 1.3216
 IR Inten    --      6.7122                43.4395                38.8475

                     49                     50                     51
                      A                      A                      A
 Frequencies --   1060.6481              1070.9772              1083.3925
 Red. masses --      2.8087                 1.4584                 3.8438
 Frc consts  --      1.8617                 0.9856                 2.6582
 IR Inten    --     13.6025                 3.0156                86.0912

                     52                     53                     54
                      A                      A                      A
 Frequencies --   1123.2016              1134.9810              1168.2186
 Red. masses --      3.9549                 2.3138                 1.4068
 Frc consts  --      2.9397                 1.7561                 1.1312
 IR Inten    --    264.8074               222.5705                 8.3948

                     55                     56                     57
                      A                      A                      A
 Frequencies --   1186.5751              1206.1692              1210.1429
 Red. masses --      1.2710                 2.0056                 1.8362
 Frc consts  --      1.0543                 1.7192                 1.5843
 IR Inten    --      0.7509                45.8268                51.9093

                     58                     59                     60
                      A                      A                      A
 Frequencies --   1233.5196              1246.9511              1299.7740
 Red. masses --      2.2757                 2.1542                 7.3840
 Frc consts  --      2.0401                 1.9735                 7.3498
 IR Inten    --    107.2010                91.5074               290.0939

                     61                     62                     63
                      A                      A                      A
 Frequencies --   1311.4941              1329.3666              1344.1856
 Red. masses --      2.7666                 2.7876                 1.1200
 Frc consts  --      2.8037                 2.9024                 1.1923
 IR Inten    --    101.3497                31.2766                10.1508

                     64                     65                     66
                      A                      A                      A
 Frequencies --   1379.4546              1402.5432              1408.5776
 Red. masses --      1.1636                 4.6613                 1.7648
 Frc consts  --      1.3046                 5.4024                 2.0630
 IR Inten    --      0.8332                50.6776                56.3578

                     67                     68                     69
                      A                      A                      A
 Frequencies --   1431.7232              1441.7577              1450.0392
 Red. masses --      1.6167                 1.2733                 2.0281
 Frc consts  --      1.9525                 1.5595                 2.5125
 IR Inten    --    112.9374                21.8667                83.7290

                     70                     71                     72
                      A                      A                      A
 Frequencies --   1486.9294              1488.0735              1502.0477
 Red. masses --      1.0565                 2.0206                 1.8948
 Frc consts  --      1.3762                 2.6361                 2.5187
 IR Inten    --     14.2556               116.5565                 9.2560

                     73                     74                     75
                      A                      A                      A
 Frequencies --   1507.5596              1512.2721              1514.6130
 Red. masses --      1.0543                 1.0549                 1.0991
 Frc consts  --      1.4117                 1.4214                 1.4856
 IR Inten    --      4.4813                12.9550                 3.4399

                     76                     77                     78
                      A                      A                      A
 Frequencies --   1515.3055              1518.2001              1521.1106
 Red. masses --      1.0822                 1.0846                 1.0489
 Frc consts  --      1.4640                 1.4729                 1.4298
 IR Inten    --     15.2157                14.8437                 4.9646

                     79                     80                     81
                      A                      A                      A
 Frequencies --   1526.9280              1538.7300              1540.5177
 Red. masses --      2.0043                 1.0602                 1.2350
 Frc consts  --      2.7533                 1.4790                 1.7268
 IR Inten    --    102.5566                 6.4307                16.2608

                     82                     83                     84
                      A                      A                      A
 Frequencies --   1587.3002              1635.9099              1682.3242
 Red. masses --      8.0257                 6.5698                 7.4868
 Frc consts  --     11.9138                10.3591                12.4844
 IR Inten    --     79.2229                57.5113                63.3019

                     85                     86                     87
                      A                      A                      A
 Frequencies --   1776.4335              3017.2799              3059.3380
 Red. masses --     11.4822                 1.0354                 1.0366
 Frc consts  --     21.3488                 5.5537                 5.7166
 IR Inten    --    282.3795                72.3908                22.1683

                     88                     89                     90
                      A                      A                      A
 Frequencies --   3066.4626              3069.7646              3072.6381
 Red. masses --      1.0292                 1.0386                 1.1063
 Frc consts  --      5.7017                 5.7662                 6.1536
 IR Inten    --     15.6722                14.5406                49.9576

                     91                     92                     93
                      A                      A                      A
 Frequencies --   3089.9387              3123.1262              3130.0200
 Red. masses --      1.0590                 1.1025                 1.0970
 Frc consts  --      5.9572                 6.3360                 6.3320
 IR Inten    --     36.1330                28.1024                 5.5950

                     94                     95                     96
                      A                      A                      A
 Frequencies --   3138.8114              3153.2315              3155.5499
 Red. masses --      1.1040                 1.0988                 1.1047
 Frc consts  --      6.4084                 6.4367                 6.4808
 IR Inten    --     12.0328                32.7125                 5.7328

                     97                     98                     99
                      A                      A                      A
 Frequencies --   3158.1865              3160.2382              3166.5070
 Red. masses --      1.1058                 1.1032                 1.1087
 Frc consts  --      6.4982                 6.4917                 6.5497
 IR Inten    --     25.5247                 6.4079                 4.7656

                    100                    101                    102
                      A                      A                      A
 Frequencies --   3210.2016              3234.8192              3256.4652
 Red. masses --      1.0889                 1.0916                 1.0914
 Frc consts  --      6.6116                 6.7303                 6.8189
 IR Inten    --      4.6177                11.5319                 1.7265

 - Thermochemistry -
 -------------------
 Temperature   298.150 Kelvin.  Pressure   1.00000 Atm.
 Atom     1 has atomic number  6 and mass  12.00000

 Molecular mass:   279.09292 amu.
 Principal axes and moments of inertia in atomic units:
                           1         2         3
     Eigenvalues --  4853.030716874.71703**********
           X            0.99999  -0.00096   0.00512
           Y            0.00088   0.99988   0.01551
           Z           -0.00513  -0.01551   0.99987
 This molecule is an asymmetric top.
 Rotational symmetry number  1.
 Warning -- assumption of classical behavior for rotation
           may cause significant error
 Rotational temperatures (Kelvin)      0.01785     0.01260     0.00769
 Rotational constants (GHZ):           0.37188     0.26252     0.16028
 Zero-point vibrational energy     764385.4 (Joules/Mol)
                                  182.69249 (Kcal/Mol)
 Warning -- explicit consideration of  30 degrees of freedom as
           vibrations may cause significant error
 Vibrational temperatures:     43.23    63.76    67.90    92.63    96.32
          (Kelvin)            105.30   146.08   155.90   177.70   203.31
                              225.26   256.89   263.49   328.77   369.56
                              380.35   395.59   422.69   452.74   472.12
                              498.01   530.74   567.03   587.12   647.09
                              659.86   721.03   790.56   869.33   886.37
                              931.95   983.18   996.86  1011.39  1063.65
                             1111.88  1120.63  1155.92  1169.32  1242.38
                             1293.31  1302.09  1314.92  1351.69  1427.35
                             1430.99  1436.97  1493.31  1526.04  1540.90
                             1558.76  1616.04  1632.98  1680.81  1707.22
                             1735.41  1741.13  1774.76  1794.08  1870.08
                             1886.95  1912.66  1933.98  1984.73  2017.95
                             2026.63  2059.93  2074.37  2086.28  2139.36
                             2141.01  2161.11  2169.04  2175.82  2179.19
                             2180.19  2184.35  2188.54  2196.91  2213.89
                             2216.46  2283.77  2353.71  2420.49  2555.89
                             4341.19  4401.70  4411.96  4416.71  4420.84
                             4445.73  4493.48  4503.40  4516.05  4536.80
                             4540.13  4543.93  4546.88  4555.90  4618.76
                             4654.18  4685.33

 Zero-point correction=                           0.291139 (Hartree/Particle)
 Thermal correction to Energy=                    0.310928
 Thermal correction to Enthalpy=                  0.311872
 Thermal correction to Gibbs Free Energy=         0.241387
 Sum of electronic and zero-point Energies=          -1222.127354
 Sum of electronic and thermal Energies=             -1222.107566
 Sum of electronic and thermal Enthalpies=           -1222.106621
 Sum of electronic and thermal Free Energies=        -1222.177107

                     E (Thermal)             CV                S
                      KCal/Mol        Cal/Mol-Kelvin    Cal/Mol-Kelvin
 Total                  195.110             71.933            148.348
 Electronic               0.000              0.000              0.000
 Translational            0.889              2.981             42.777
 Rotational               0.889              2.981             34.284
 Vibrational            193.333             65.972             71.287
 Vibration     1          0.594              1.984              5.826
 Vibration     2          0.595              1.980              5.056
 Vibration     3          0.595              1.979              4.932
 Vibration     4          0.597              1.971              4.318
 Vibration     5          0.598              1.970              4.241
 Vibration     6          0.599              1.967              4.066
 Vibration     7          0.604              1.948              3.425
 Vibration     8          0.606              1.943              3.298
 Vibration     9          0.610              1.929              3.045
 Vibration    10          0.615              1.912              2.786
 Vibration    11          0.620              1.895              2.591
 Vibration    12          0.629              1.869              2.344
 Vibration    13          0.631              1.863              2.296
 Vibration    14          0.651              1.798              1.891
 Vibration    15          0.666              1.751              1.683
 Vibration    16          0.671              1.738              1.633
 Vibration    17          0.677              1.720              1.565
 Vibration    18          0.689              1.685              1.452
 Vibration    19          0.702              1.646              1.338
 Vibration    20          0.711              1.619              1.269
 Vibration    21          0.724              1.583              1.184
 Vibration    22          0.741              1.536              1.084
 Vibration    23          0.761              1.483              0.985
 Vibration    24          0.773              1.453              0.933
 Vibration    25          0.809              1.361              0.797
 Vibration    26          0.817              1.342              0.770
 Vibration    27          0.857              1.247              0.655
 Vibration    28          0.905              1.141              0.545
 Vibration    29          0.963              1.023              0.442
 Vibration    30          0.976              0.998              0.423

 Optimization completed.
    -- Stationary point found.
 Normal termination of Gaussian 16 at Sun Dec 13 21:01:58 2020.

 ----------------------------------------------------------------------
 # B3LYP/6-311++G(d,p) empiricaldispersion=gd3bj scf=xqc pop=npa geom=c
 heck
 ----------------------------------------------------------------------

 ---------------------------------------
 CID_142964140_JID_9663_Energie_neutraal
 ---------------------------------------
 Structure from the checkpoint file:  "JID_9663.chk"
 Charge =  0 Multiplicity = 1

 SCF Done:  E(RB3LYP) =  -1222.66870806     A.U. after   15 cycles
 Normal termination of Gaussian 16 at Sun Dec 13 21:09:08 2020.

 ----------------------------------------------------------------------
 # B3LYP/6-311++G(d,p) empiricaldispersion=gd3bj scf=xqc pop=npa geom=c
 heck
 ----------------------------------------------------------------------

 -------------------------------------
 CID_142964140_JID_9663_Energie_kation
 -------------------------------------
 Structure from the checkpoint file:  "JID_9663.chk"
 Charge =  1 Multiplicity = 2

 SCF Done:  E(UB3LYP) =  -1222.40124551     A.U. after   27 cycles
 Normal termination of Gaussian 16 at Sun Dec 13 21:27:15 2020.
 Gaussian 16:  ES64L-G16RevA.03 25-Dec-2016

 ----------------------------------------------------------------------
 # B3LYP/6-311++G(d,p) empiricaldispersion=gd3bj scf=xqc pop=npa geom=c
 heck
 ----------------------------------------------------------------------

 ------------------------------------
 CID_142964140_JID_9663_Energie_anion
 ------------------------------------
 Structure from the checkpoint file:  "JID_9663.chk"
 Charge = -1 Multiplicity = 2

                         Standard orientation:
 ---------------------------------------------------------------------
 Center     Atomic      Atomic             Coordinates (Angstroms)
 Number     Number       Type             X           Y           Z
 ---------------------------------------------------------------------
      1          6           0       -4.730606   -2.153069   -0.815591
      2          6           0       -4.321736   -1.502620    0.496789
      3          8           0       -3.225543   -0.583568    0.307663
      4          6           0       -1.981128   -1.139628    0.269879
      5          8           0       -1.788185   -2.335362    0.415677
      6          6           0       -0.928666   -0.154897    0.047050
      7          6           0       -1.062499    1.213114   -0.141088
      8          7           0        0.209325    1.754607   -0.321852
      9          6           0        1.170264    0.730417   -0.240211
     10          6           0        0.481217   -0.481889   -0.011613
     11          6           0        1.201119   -1.672177    0.110449
     12          6           0        2.592737   -1.623635    0.005481
     13          6           0        3.265900   -0.405140   -0.220479
     14          6           0        2.553402    0.787409   -0.346097
     15          8           0        3.233317   -2.827582    0.137543
     16          6           0        4.643561   -2.849282    0.032331
     17         16           0        0.606446    3.408544   -0.527231
     18          6           0        0.851867    3.898292    1.216994
     19          6           0       -2.286578    2.066222   -0.162941
     20          1           0       -4.979797   -1.392849   -1.563376
     21          1           0       -5.610639   -2.788059   -0.661755
     22          1           0       -3.917954   -2.775172   -1.199145
     23          1           0       -5.125183   -0.884637    0.905805
     24          1           0       -4.029930   -2.254221    1.234038
     25          1           0        0.698615   -2.614932    0.283373
     26          1           0        4.345405   -0.379508   -0.302315
     27          1           0        3.065218    1.726365   -0.529492
     28          1           0        4.983726   -2.497863   -0.951529
     29          1           0        5.119539   -2.239668    0.812855
     30          1           0        4.938427   -3.892261    0.162463
     31          1           0       -0.084353    3.830440    1.775953
     32          1           0        1.616997    3.271092    1.679882
     33          1           0        1.192893    4.938240    1.202909
     34          1           0       -3.014579    1.668628   -0.874250
     35          1           0       -2.776310    2.064604    0.816600
     36          1           0       -2.040319    3.094262   -0.436137
 ---------------------------------------------------------------------

 SCF Done:  E(UB3LYP) =  -1222.66289229     A.U. after   33 cycles
 SCF Done:  E(UB3LYP) =  -1222.66289229     a.u. after    1 cycles

 The electronic state is 2-A.
 Alpha  occ. eigenvalues --  -88.77229 -19.05507 -19.04752 -18.97942 -14.26457
 Alpha  occ. eigenvalues --  -10.17207 -10.13909 -10.12896 -10.12454 -10.09973
 Alpha  occ. eigenvalues --  -10.09567 -10.08838 -10.07539 -10.07012 -10.06877
 Alpha  occ. eigenvalues --  -10.06773 -10.06227 -10.05450 -10.05358  -7.85571
 Alpha  occ. eigenvalues --   -5.82144  -5.81572  -5.80826  -0.98461  -0.97108
 Alpha  occ. eigenvalues --   -0.89459  -0.88005  -0.74548  -0.71193  -0.67776
 Alpha  occ. eigenvalues --   -0.66539  -0.64993  -0.64247  -0.60112  -0.58788
 Alpha  occ. eigenvalues --   -0.57060  -0.54066  -0.50175  -0.49232  -0.46107
 Alpha  occ. eigenvalues --   -0.45021  -0.42624  -0.41244  -0.38980  -0.38088
 Alpha  occ. eigenvalues --   -0.38063  -0.36534  -0.35827  -0.34916  -0.34409
 Alpha  occ. eigenvalues --   -0.33878  -0.32888  -0.32592  -0.32093  -0.31415
 Alpha  occ. eigenvalues --   -0.30862  -0.30194  -0.29433  -0.28667  -0.28406
 Alpha  occ. eigenvalues --   -0.27921  -0.27196  -0.26822  -0.25741  -0.24142
 Alpha  occ. eigenvalues --   -0.23594  -0.22742  -0.19916  -0.19369  -0.16914
 Alpha  occ. eigenvalues --   -0.16144  -0.14261  -0.11191  -0.10254   0.04193
 Alpha virt. eigenvalues --    0.05915   0.06257   0.06697   0.08210   0.08462
 Alpha virt. eigenvalues --    0.08838   0.09278   0.09584   0.09960   0.10092
 Alpha virt. eigenvalues --    0.10305   0.10718   0.11146   0.11668   0.12098

  Beta  occ. eigenvalues --  -88.77213 -19.05508 -19.04730 -18.97838 -14.26436
  Beta  occ. eigenvalues --  -10.17094 -10.13903 -10.12892 -10.12456 -10.09604
  Beta  occ. eigenvalues --  -10.09587 -10.08726 -10.07528 -10.06958 -10.06878
  Beta  occ. eigenvalues --  -10.06764 -10.06244 -10.05421 -10.05385  -7.85556
  Beta  occ. eigenvalues --   -5.82104  -5.81549  -5.80819  -0.98353  -0.97107
  Beta  occ. eigenvalues --   -0.89305  -0.87844  -0.74497  -0.70988  -0.67716
  Beta  occ. eigenvalues --   -0.66445  -0.64836  -0.64145  -0.60042  -0.58727
  Beta  occ. eigenvalues --   -0.56916  -0.53991  -0.50034  -0.49162  -0.45954
  Beta  occ. eigenvalues --   -0.44962  -0.42590  -0.41170  -0.38878  -0.38063
  Beta  occ. eigenvalues --   -0.38029  -0.36338  -0.35675  -0.34657  -0.34296
  Beta  occ. eigenvalues --   -0.33717  -0.32813  -0.32527  -0.32033  -0.31265
  Beta  occ. eigenvalues --   -0.30777  -0.30076  -0.29321  -0.28570  -0.28139
  Beta  occ. eigenvalues --   -0.27854  -0.27110  -0.26733  -0.25701  -0.24018
  Beta  occ. eigenvalues --   -0.23537  -0.22708  -0.19610  -0.19078  -0.16740
  Beta  occ. eigenvalues --   -0.16048  -0.14194  -0.10625  -0.09968
  Beta virt. eigenvalues --    0.05871   0.06329   0.07314   0.08255   0.08369
  Beta virt. eigenvalues --    0.08599   0.08786   0.09494   0.09852   0.10029
  Beta virt. eigenvalues --    0.10430   0.10566   0.11275   0.11302   0.11659

 Mulliken charges and spin densities:
               1          2
     1  C   -0.106995  -0.234352
     2  C   -0.147826  -0.018461
     3  O   -0.038334   0.009661
     4  C   -0.744829   0.287159
     5  O   -0.299813   0.033855
     6  C    0.479310  -0.166705
     7  C   -0.245231   0.618013
     8  N    0.228878   0.068295
     9  C   -0.118169  -0.096329
    10  C    1.377393  -0.050240
    11  C   -0.810207  -0.016751
    12  C   -1.134266   0.091300
    13  C   -0.061831   0.025367
    14  C   -0.113304  -0.222224
    15  O   -0.169941   0.005278
    16  C   -0.228367  -0.102195
    17  S   -0.167519   0.358029
    18  C    0.810021  -1.410462
    19  C    0.319137  -0.753162
    20  H    0.107019   0.024180
    21  H    0.006299   0.115269
    22  H    0.116290   0.059673
    23  H   -0.038284   0.183836
    24  H    0.166082   0.002414
    25  H    0.209328   0.000320
    26  H    0.141741   0.030776
    27  H   -0.016492   0.144152
    28  H    0.114078   0.019149
    29  H    0.055850   0.082664
    30  H    0.118962   0.039812
    31  H   -0.247948   0.433549
    32  H   -0.051668   0.230649
    33  H   -0.731676   0.915283
    34  H    0.172190   0.001900
    35  H   -0.006896   0.229130
    36  H    0.057014   0.061165
 Sum of Mulliken charges =  -1.00000   1.00000

 Dipole moment (field-independent basis, Debye):
    X=              0.7146    Y=             -5.0640    Z=             -2.9943  Tot=              5.9263
 Quadrupole moment (field-independent basis, Debye-Ang):
   XX=           -154.2969   YY=           -197.2045   ZZ=           -143.0512
   XY=            -11.2676   XZ=             -0.5405   YZ=            -11.3440

 Summary of Natural Population Analysis:

                                       Natural Population
                Natural  -----------------------------------------------
    Atom  No    Charge         Core      Valence    Rydberg      Total
 -----------------------------------------------------------------------
      C    1   -0.29936      0.99966     2.29557    0.00413     3.29936
      C    2   -0.01587      0.99959     2.00536    0.01093     3.01587
      O    3   -0.28841      0.99987     3.28019    0.00836     4.28841
      C    4    0.41140      0.99960     1.56561    0.02339     2.58860
      O    5   -0.31825      0.99988     3.31305    0.00532     4.31825
      C    6   -0.13241      0.99938     2.12220    0.01083     3.13241
      C    7    0.20542      0.99950     1.78275    0.01234     2.79458
      N    8   -0.27689      0.99957     2.76585    0.01147     3.77689
      C    9    0.06858      0.99944     1.91991    0.01206     2.93142
      C   10   -0.01120      0.99941     2.00382    0.00797     3.01120
      C   11   -0.11464      0.99950     2.10639    0.00875     3.11464
      C   12    0.14908      0.99940     1.83961    0.01191     2.85092
      C   13   -0.15472      0.99954     2.14588    0.00931     3.15472
      C   14   -0.10357      0.99953     2.09404    0.01000     3.10357
      O   15   -0.27701      0.99986     3.26807    0.00908     4.27701
      C   16   -0.09951      0.99961     2.09172    0.00818     3.09951
      S   17    0.20514      4.99960     2.77321    0.02204     7.79486
      C   18   -0.34820      0.99962     2.34180    0.00679     3.34820
      C   19   -0.31360      0.99963     2.30842    0.00556     3.31360
      H   20    0.09701      0.00000     0.40174    0.00125     0.40299
      H   21    0.09599      0.00000     0.40281    0.00121     0.40401
      H   22    0.10801      0.00000     0.39066    0.00133     0.39199
      H   23    0.08565      0.00000     0.41293    0.00142     0.41435
      H   24    0.09416      0.00000     0.40423    0.00160     0.40584
      H   25    0.11786      0.00000     0.38014    0.00199     0.38214
      H   26    0.09923      0.00000     0.39960    0.00117     0.40077
      H   27    0.10698      0.00000     0.39182    0.00120     0.39302
      H   28    0.08071      0.00000     0.41781    0.00149     0.41929
      H   29    0.08176      0.00000     0.41651    0.00173     0.41824
      H   30    0.08924      0.00000     0.40986    0.00090     0.41076
      H   31    0.10484      0.00000     0.39310    0.00206     0.39516
      H   32    0.10496      0.00000     0.39350    0.00154     0.39504
      H   33    0.11009      0.00000     0.38626    0.00366     0.38991
      H   34    0.11303      0.00000     0.38602    0.00095     0.38697
      H   35    0.11609      0.00000     0.38248    0.00143     0.38391
      H   36    0.10842      0.00000     0.39041    0.00117     0.39158
 =======================================================================
   * Total *    0.00000     22.99218    50.78329    0.22453    74.00000

 Normal termination of Gaussian 16 at Sun Dec 13 21:49:21 2020.
