 Gaussian 16, Revision A.03,

 -----------------------------------------------------------
 # opt freq B3LYP/6-31G(d) empiricaldispersion=gd3bj scf=xqc
 -----------------------------------------------------------

 -----------------------------
 CID_66113164_JID_751_neutraal
 -----------------------------
 Symbolic Z-matrix:
 Charge =  0 Multiplicity = 1

 SCF Done:  E(RB3LYP) =  -1176.46740588     A.U. after   15 cycles
 SCF Done:  E(RB3LYP) =  -1176.46168186     A.U. after   14 cycles
 SCF Done:  E(RB3LYP) =  -1176.46931370     A.U. after   13 cycles
 SCF Done:  E(RB3LYP) =  -1176.46450044     A.U. after   15 cycles
 SCF Done:  E(RB3LYP) =  -1176.46820572     A.U. after   13 cycles
 SCF Done:  E(RB3LYP) =  -1176.46980302     A.U. after   11 cycles
 SCF Done:  E(RB3LYP) =  -1176.47118694     A.U. after   13 cycles
 SCF Done:  E(RB3LYP) =  -1176.47124896     A.U. after   12 cycles
 SCF Done:  E(RB3LYP) =  -1176.47143869     A.U. after   11 cycles
 SCF Done:  E(RB3LYP) =  -1176.47142413     A.U. after   11 cycles
 SCF Done:  E(RB3LYP) =  -1176.47145461     A.U. after   11 cycles
 SCF Done:  E(RB3LYP) =  -1176.47145661     A.U. after    9 cycles
 SCF Done:  E(RB3LYP) =  -1176.47145722     A.U. after    8 cycles
 Optimization completed.
    -- Stationary point found.
 Normal termination of Gaussian 16 at Tue Dec  8 12:49:34 2020.

 --------------------------------------------------------------------
 #N Geom=AllCheck Guess=TCheck SCRF=Check GenChk RB3LYP/6-31G(d) Freq
 --------------------------------------------------------------------

 Structure from the checkpoint file:  "JID_751.chk"
 -----------------------------
 CID_66113164_JID_751_neutraal
 -----------------------------
 Charge =  0 Multiplicity = 1

 SCF Done:  E(RB3LYP) =  -1176.47145722     A.U. after    1 cycles

  Exact polarizability: 131.980  -7.701 102.440   6.350   6.042  65.282
 Approx polarizability: 204.409 -11.746 178.155  18.685  20.308 106.221

                      1                      2                      3
                      A                      A                      A
 Frequencies --     41.6713                68.4811               127.4818
 Red. masses --      8.4002                 4.4528                 6.4110
 Frc consts  --      0.0086                 0.0123                 0.0614
 IR Inten    --      0.2262                 1.4736                 3.2041

                      4                      5                      6
                      A                      A                      A
 Frequencies --    173.6954               208.0230               224.5802
 Red. masses --      6.2200                 2.9035                10.5469
 Frc consts  --      0.1106                 0.0740                 0.3134
 IR Inten    --      0.4626                 2.0300                 1.3849

                      7                      8                      9
                      A                      A                      A
 Frequencies --    256.6682               287.5619               390.0262
 Red. masses --      3.1205                 4.1597                 2.3858
 Frc consts  --      0.1211                 0.2027                 0.2138
 IR Inten    --      4.3500                 2.4570                 4.2239

                     10                     11                     12
                      A                      A                      A
 Frequencies --    462.2782               511.4298               532.7952
 Red. masses --      8.3144                 2.5592                 6.4786
 Frc consts  --      1.0469                 0.3944                 1.0836
 IR Inten    --      2.6058                 0.3787                 8.6679

                     13                     14                     15
                      A                      A                      A
 Frequencies --    622.1154               642.1145               655.4440
 Red. masses --      2.1572                 3.4631                 1.7577
 Frc consts  --      0.4919                 0.8413                 0.4449
 IR Inten    --     14.9418                16.3887                55.2525

                     16                     17                     18
                      A                      A                      A
 Frequencies --    673.7872               717.5277               778.8272
 Red. masses --      8.6357                10.8107                 1.5603
 Frc consts  --      2.3099                 3.2793                 0.5576
 IR Inten    --      2.7037                 6.0929                12.5404

                     19                     20                     21
                      A                      A                      A
 Frequencies --    872.2361               876.0286               918.5140
 Red. masses --      3.3210                 5.6985                 1.4102
 Frc consts  --      1.4886                 2.5766                 0.7010
 IR Inten    --     28.5775                16.9972                 5.0536

                     22                     23                     24
                      A                      A                      A
 Frequencies --    947.8480              1042.7207              1054.1725
 Red. masses --      1.8777                 2.4591                 2.9178
 Frc consts  --      0.9939                 1.5753                 1.9104
 IR Inten    --     14.9884                52.4345                61.3798

                     25                     26                     27
                      A                      A                      A
 Frequencies --   1091.3366              1104.6200              1192.0651
 Red. masses --      2.2906                 3.7898                 1.8689
 Frc consts  --      1.6074                 2.7246                 1.5647
 IR Inten    --      5.5047                52.3323                23.7663

                     28                     29                     30
                      A                      A                      A
 Frequencies --   1200.7992              1220.9974              1310.3427
 Red. masses --      1.5991                 1.1893                 1.3289
 Frc consts  --      1.3585                 1.0447                 1.3443
 IR Inten    --     27.0143                22.7390                16.3935

                     31                     32                     33
                      A                      A                      A
 Frequencies --   1315.3256              1333.1614              1400.2965
 Red. masses --      1.3498                 1.2033                 1.7350
 Frc consts  --      1.3759                 1.2601                 2.0044
 IR Inten    --     14.9061                26.1359                30.8439

                     34                     35                     36
                      A                      A                      A
 Frequencies --   1411.4777              1428.9445              1476.4232
 Red. masses --      4.9431                 1.2922                 1.1492
 Frc consts  --      5.8023                 1.5546                 1.4759
 IR Inten    --     85.3777                18.9877                42.5620

                     37                     38                     39
                      A                      A                      A
 Frequencies --   1493.5376              1499.0751              1533.4681
 Red. masses --      1.1201                 1.1016                 1.0845
 Frc consts  --      1.4721                 1.4586                 1.5026
 IR Inten    --     21.5471                14.3368                 1.6068

                     40                     41                     42
                      A                      A                      A
 Frequencies --   1542.9923              3006.7656              3043.6003
 Red. masses --      5.1642                 1.0691                 1.0602
 Frc consts  --      7.2440                 5.6946                 5.7865
 IR Inten    --     35.5843                40.0465                20.7988

                     43                     44                     45
                      A                      A                      A
 Frequencies --   3086.2541              3090.0281              3098.1752
 Red. masses --      1.0972                 1.0958                 1.0668
 Frc consts  --      6.1573                 6.1644                 6.0330
 IR Inten    --     27.2644                59.6372                18.0823

                     46                     47                     48
                      A                      A                      A
 Frequencies --   3156.4302              3238.6904              3592.5656
 Red. masses --      1.1048                 1.0935                 1.0661
 Frc consts  --      6.4850                 6.7579                 8.1070
 IR Inten    --      1.6151                 5.4037               344.7311

 - Thermochemistry -
 -------------------
 Temperature   298.150 Kelvin.  Pressure   1.00000 Atm.
 Atom     1 has atomic number  6 and mass  12.00000

 Molecular mass:   176.00781 amu.
 Principal axes and moments of inertia in atomic units:
                           1         2         3
     Eigenvalues --  1053.900972584.496273376.65460
           X            0.99991  -0.01223  -0.00561
           Y            0.01217   0.99987  -0.01037
           Z            0.00574   0.01030   0.99993
 This molecule is an asymmetric top.
 Rotational symmetry number  1.
 Warning -- assumption of classical behavior for rotation
           may cause significant error
 Rotational temperatures (Kelvin)      0.08218     0.03351     0.02565
 Rotational constants (GHZ):           1.71244     0.69830     0.53448
 Zero-point vibrational energy     358601.0 (Joules/Mol)
                                   85.70769 (Kcal/Mol)
 Warning -- explicit consideration of  12 degrees of freedom as
           vibrations may cause significant error
 Vibrational temperatures:     59.96    98.53   183.42   249.91   299.30
          (Kelvin)            323.12   369.29   413.74   561.16   665.12
                              735.83   766.57   895.09   923.86   943.04
                              969.43  1032.36  1120.56  1254.95  1260.41
                             1321.54  1363.74  1500.24  1516.72  1570.19
                             1589.30  1715.12  1727.68  1756.74  1885.29
                             1892.46  1918.12  2014.71  2030.80  2055.93
                             2124.24  2148.87  2156.83  2206.32  2220.02
                             4326.07  4379.06  4440.43  4445.86  4457.58
                             4541.40  4659.75  5168.90

 Zero-point correction=                           0.136584 (Hartree/Particle)
 Thermal correction to Energy=                    0.146510
 Thermal correction to Enthalpy=                  0.147454
 Thermal correction to Gibbs Free Energy=         0.099927
 Sum of electronic and zero-point Energies=          -1176.334873
 Sum of electronic and thermal Energies=             -1176.324947
 Sum of electronic and thermal Enthalpies=           -1176.324003
 Sum of electronic and thermal Free Energies=        -1176.371531

                     E (Thermal)             CV                S
                      KCal/Mol        Cal/Mol-Kelvin    Cal/Mol-Kelvin
 Total                   91.936             36.123            100.030
 Electronic               0.000              0.000              0.000
 Translational            0.889              2.981             41.403
 Rotational               0.889              2.981             30.598
 Vibrational             90.159             30.161             28.028
 Vibration     1          0.594              1.981              5.178
 Vibration     2          0.598              1.969              4.197
 Vibration     3          0.611              1.926              2.984
 Vibration     4          0.627              1.875              2.395
 Vibration     5          0.641              1.828              2.061
 Vibration     6          0.649              1.804              1.922
 Vibration     7          0.666              1.752              1.684
 Vibration     8          0.685              1.697              1.488
 Vibration     9          0.758              1.491              1.000
 Vibration    10          0.820              1.334              0.760
 Vibration    11          0.867              1.225              0.630
 Vibration    12          0.888              1.177              0.581

                           ! Non-Optimized Parameters !
 Normal termination of Gaussian 16 at Tue Dec  8 13:04:02 2020.

 ----------------------------------------------------------------------
 # B3LYP/6-311++G(d,p) empiricaldispersion=gd3bj scf=xqc pop=npa geom=c
 heck
 ----------------------------------------------------------------------

 -------------------------------------
 CID_66113164_JID_751_Energie_neutraal
 -------------------------------------
 Structure from the checkpoint file:  "JID_751.chk"
 Charge =  0 Multiplicity = 1

 SCF Done:  E(RB3LYP) =  -1176.64013559     A.U. after   14 cycles
 Normal termination of Gaussian 16 at Tue Dec  8 13:06:12 2020.

 ----------------------------------------------------------------------
 # B3LYP/6-311++G(d,p) empiricaldispersion=gd3bj scf=xqc pop=npa geom=c
 heck
 ----------------------------------------------------------------------

 -----------------------------------
 CID_66113164_JID_751_Energie_kation
 -----------------------------------
 Structure from the checkpoint file:  "JID_751.chk"
 Charge =  1 Multiplicity = 2

 SCF Done:  E(UB3LYP) =  -1176.31514902     A.U. after   23 cycles
 Normal termination of Gaussian 16 at Tue Dec  8 13:12:51 2020.
 Gaussian 16:  ES64L-G16RevA.03 25-Dec-2016

 ----------------------------------------------------------------------
 # B3LYP/6-311++G(d,p) empiricaldispersion=gd3bj scf=xqc pop=npa geom=c
 heck
 ----------------------------------------------------------------------

 ----------------------------------
 CID_66113164_JID_751_Energie_anion
 ----------------------------------
 Structure from the checkpoint file:  "JID_751.chk"
 Charge = -1 Multiplicity = 2

                         Standard orientation:
 ---------------------------------------------------------------------
 Center     Atomic      Atomic             Coordinates (Angstroms)
 Number     Number       Type             X           Y           Z
 ---------------------------------------------------------------------
      1          6           0       -1.760909    1.567789    0.398025
      2          7           0       -2.859984    0.997024   -0.020077
      3         16           0       -2.483396   -0.612381   -0.369177
      4          6           0       -0.806462   -0.378845    0.083228
      5          7           0       -0.587589    0.856842    0.477874
      6         16           0        0.349765   -1.683898    0.000032
      7          6           0        1.851478   -0.955971    0.797349
      8          6           0        2.857071   -0.345223   -0.176988
      9          6           0        2.372267    0.943331   -0.848766
     10          8           0        2.053151    1.946891    0.094693
     11          1           0       -1.767725    2.614790    0.681982
     12          1           0        1.510353   -0.221887    1.530262
     13          1           0        2.287567   -1.800662    1.337656
     14          1           0        3.759161   -0.112505    0.404194
     15          1           0        3.138950   -1.082892   -0.939005
     16          1           0        3.173636    1.335628   -1.484627
     17          1           0        1.516211    0.722477   -1.505779
     18          1           0        1.147069    1.746844    0.402434
 ---------------------------------------------------------------------

 SCF Done:  E(UB3LYP) =  -1176.64279080     A.U. after   28 cycles

 The electronic state is 2-A.
 Alpha  occ. eigenvalues --  -88.73576 -88.72847 -18.98198 -14.16727 -14.16347
 Alpha  occ. eigenvalues --  -10.09228 -10.08510 -10.08488 -10.08012 -10.05626
 Alpha  occ. eigenvalues --   -7.82075  -7.81426  -5.78479  -5.78018  -5.77821
 Alpha  occ. eigenvalues --   -5.77588  -5.77407  -5.76860  -0.88868  -0.84967
 Alpha  occ. eigenvalues --   -0.72764  -0.68917  -0.63895  -0.59581  -0.54245
 Alpha  occ. eigenvalues --   -0.46923  -0.45713  -0.41019  -0.38713  -0.36131
 Alpha  occ. eigenvalues --   -0.33823  -0.32376  -0.30269  -0.28715  -0.28082
 Alpha  occ. eigenvalues --   -0.25415  -0.25000  -0.23107  -0.21049  -0.19864
 Alpha  occ. eigenvalues --   -0.18126  -0.16464  -0.14954  -0.14141  -0.13815
 Alpha  occ. eigenvalues --   -0.09516   0.05380
 Alpha virt. eigenvalues --    0.07652   0.09407   0.10419   0.10708   0.11812
 Alpha virt. eigenvalues --    0.11976   0.13105   0.13716   0.14320   0.14660
 Alpha virt. eigenvalues --    0.15841   0.16338   0.16796   0.17108   0.17749

  Beta  occ. eigenvalues --  -88.73515 -88.72848 -18.98194 -14.16726 -14.15879
  Beta  occ. eigenvalues --  -10.09222 -10.08500 -10.07963 -10.07783 -10.05598
  Beta  occ. eigenvalues --   -7.82021  -7.81426  -5.78462  -5.78004  -5.77834
  Beta  occ. eigenvalues --   -5.77422  -5.77365  -5.76831  -0.88859  -0.84472
  Beta  occ. eigenvalues --   -0.72134  -0.68791  -0.63496  -0.59348  -0.54124
  Beta  occ. eigenvalues --   -0.46781  -0.45188  -0.40585  -0.38640  -0.35997
  Beta  occ. eigenvalues --   -0.33689  -0.32279  -0.30078  -0.27992  -0.27284
  Beta  occ. eigenvalues --   -0.25263  -0.24809  -0.22744  -0.20976  -0.19708
  Beta  occ. eigenvalues --   -0.16385  -0.15943  -0.14762  -0.13535  -0.13268
  Beta  occ. eigenvalues --   -0.08294
  Beta virt. eigenvalues --    0.07929   0.09490   0.10501   0.10781   0.11782
  Beta virt. eigenvalues --    0.11845   0.12257   0.13200   0.13758   0.14402
  Beta virt. eigenvalues --    0.14810   0.15993   0.16703   0.17182   0.17266

 Mulliken charges and spin densities:
               1          2
     1  C   -0.147580   0.078131
     2  N   -0.245071   0.166158
     3  S   -0.128563   0.208422
     4  C   -0.148207   0.268372
     5  N   -0.189922   0.026419
     6  S   -0.037290  -0.059720
     7  C   -0.485771   0.229444
     8  C    0.627975  -0.726658
     9  C   -0.427610  -0.063868
    10  O   -0.315912   0.008031
    11  H    0.147913  -0.005341
    12  H    0.214721  -0.051510
    13  H    0.006477   0.209786
    14  H   -0.070789   0.204723
    15  H   -0.200596   0.307846
    16  H    0.032557   0.106336
    17  H    0.049259   0.091469
    18  H    0.318409   0.001960
 Sum of Mulliken charges =  -1.00000   1.00000

 Dipole moment (field-independent basis, Debye):
    X=              1.7135    Y=             -0.9799    Z=              0.6619  Tot=              2.0819
 Quadrupole moment (field-independent basis, Debye-Ang):
   XX=           -119.2369   YY=            -95.9964   ZZ=            -85.5688
   XY=              0.5139   XZ=             -0.0082   YZ=             -1.4531

 Summary of Natural Population Analysis:

                                       Natural Population
                Natural  -----------------------------------------------
    Atom  No    Charge         Core      Valence    Rydberg      Total
 -----------------------------------------------------------------------
      C    1    0.10765      0.99968     1.86896    0.02371     2.89235
      N    2   -0.26400      0.99973     2.75412    0.01015     3.76400
      S    3    0.26568      4.99940     2.70789    0.02703     7.73432
      C    4    0.05136      0.99962     1.92942    0.01961     2.94864
      N    5   -0.32442      0.99960     2.81093    0.01388     3.82442
      S    6    0.12316      4.99945     2.85720    0.02018     7.87684
      C    7   -0.24984      0.99958     2.23742    0.01284     3.24984
      C    8   -0.20837      0.99961     2.19804    0.01072     3.20837
      C    9   -0.01552      0.99960     2.00071    0.01521     3.01552
      O   10   -0.39258      0.99989     3.38546    0.00722     4.39258
      H   11    0.08313      0.00000     0.41578    0.00108     0.41687
      H   12    0.11415      0.00000     0.38418    0.00167     0.38585
      H   13    0.10248      0.00000     0.39646    0.00106     0.39752
      H   14    0.09627      0.00000     0.40228    0.00144     0.40373
      H   15    0.09851      0.00000     0.39956    0.00193     0.40149
      H   16    0.07890      0.00000     0.41996    0.00114     0.42110
      H   17    0.08397      0.00000     0.41477    0.00126     0.41603
      H   18    0.24945      0.00000     0.24729    0.00326     0.25055
 =======================================================================
   * Total *    0.00000     17.99617    27.83045    0.17338    46.00000

 Normal termination of Gaussian 16 at Tue Dec  8 13:23:47 2020.
