 Gaussian 16, Revision A.03,

 -----------------------------------------------------------
 # opt freq B3LYP/6-31G(d) empiricaldispersion=gd3bj scf=xqc
 -----------------------------------------------------------

 ------------------------------
 CID_83893790_JID_7223_neutraal
 ------------------------------
 Symbolic Z-matrix:
 Charge =  0 Multiplicity = 1

 SCF Done:  E(RB3LYP) =  -709.221047033     A.U. after   16 cycles
 SCF Done:  E(RB3LYP) =  -709.229455364     A.U. after   13 cycles
 SCF Done:  E(RB3LYP) =  -709.223954241     A.U. after   14 cycles
 SCF Done:  E(RB3LYP) =  -709.221777799     A.U. after   14 cycles
 SCF Done:  E(RB3LYP) =  -709.210952223     A.U. after   14 cycles
 SCF Done:  E(RB3LYP) =  -709.229479213     A.U. after   10 cycles
 SCF Done:  E(RB3LYP) =  -709.231097798     A.U. after   13 cycles
 SCF Done:  E(RB3LYP) =  -709.231542642     A.U. after   13 cycles
 SCF Done:  E(RB3LYP) =  -709.232049515     A.U. after   12 cycles
 SCF Done:  E(RB3LYP) =  -709.232172811     A.U. after   12 cycles
 SCF Done:  E(RB3LYP) =  -709.232212005     A.U. after    9 cycles
 SCF Done:  E(RB3LYP) =  -709.232212446     A.U. after    8 cycles
 SCF Done:  E(RB3LYP) =  -709.232212577     A.U. after    7 cycles
 SCF Done:  E(RB3LYP) =  -709.232212661     A.U. after    7 cycles
 SCF Done:  E(RB3LYP) =  -709.232212709     A.U. after    7 cycles
 Optimization completed.
    -- Stationary point found.
 Normal termination of Gaussian 16 at Fri Dec 11 12:05:50 2020.

 --------------------------------------------------------------------
 #N Geom=AllCheck Guess=TCheck SCRF=Check GenChk RB3LYP/6-31G(d) Freq
 --------------------------------------------------------------------

 Structure from the checkpoint file:  "JID_7223.chk"
 ------------------------------
 CID_83893790_JID_7223_neutraal
 ------------------------------
 Charge =  0 Multiplicity = 1

 SCF Done:  E(RB3LYP) =  -709.232212709     A.U. after    1 cycles

  Exact polarizability: 201.243  16.338 188.547   8.062   2.134 105.000
 Approx polarizability: 309.833  23.728 337.261  17.854   4.718 150.591

                      1                      2                      3
                      A                      A                      A
 Frequencies --     27.2741                54.1520                67.3910
 Red. masses --      2.6709                 3.3769                 4.0418
 Frc consts  --      0.0012                 0.0058                 0.0108
 IR Inten    --      0.2337                 0.3411                 3.0272

                      4                      5                      6
                      A                      A                      A
 Frequencies --     94.0066                98.7123               158.1268
 Red. masses --      3.2885                 3.7658                 3.8657
 Frc consts  --      0.0171                 0.0216                 0.0569
 IR Inten    --      1.1897                 1.2029                 2.4417

                      7                      8                      9
                      A                      A                      A
 Frequencies --    180.5919               213.6427               217.5514
 Red. masses --      3.9177                 1.0508                 1.6337
 Frc consts  --      0.0753                 0.0283                 0.0456
 IR Inten    --      4.4346                 0.1484                 2.8606

                     10                     11                     12
                      A                      A                      A
 Frequencies --    238.7314               247.0774               254.0598
 Red. masses --      1.3369                 1.5346                 2.9855
 Frc consts  --      0.0449                 0.0552                 0.1135
 IR Inten    --      0.2198                 2.9015                 1.5424

                     13                     14                     15
                      A                      A                      A
 Frequencies --    264.8186               312.4194               322.9736
 Red. masses --      3.9354                 1.2921                 2.0856
 Frc consts  --      0.1626                 0.0743                 0.1282
 IR Inten    --      1.1440                78.0029                13.1769

                     16                     17                     18
                      A                      A                      A
 Frequencies --    341.9894               367.8180               400.5449
 Red. masses --      3.1732                 2.7389                 2.5416
 Frc consts  --      0.2187                 0.2183                 0.2403
 IR Inten    --      0.7306                 3.4499                 0.1000

                     19                     20                     21
                      A                      A                      A
 Frequencies --    424.2292               463.6603               467.3669
 Red. masses --      2.3501                 3.8417                 4.7554
 Frc consts  --      0.2492                 0.4866                 0.6120
 IR Inten    --      0.0354                 1.5794                 0.6887

                     22                     23                     24
                      A                      A                      A
 Frequencies --    508.7996               514.7958               533.0629
 Red. masses --      4.0873                 3.7148                 5.2267
 Frc consts  --      0.6234                 0.5800                 0.8750
 IR Inten    --      2.9947                 1.5674                 1.9489

                     25                     26                     27
                      A                      A                      A
 Frequencies --    571.4138               609.4903               651.9564
 Red. masses --      3.9193                 5.2249                 4.7095
 Frc consts  --      0.7540                 1.1436                 1.1794
 IR Inten    --      7.4397                 1.0052                 3.3385

                     28                     29                     30
                      A                      A                      A
 Frequencies --    698.1747               727.4250               762.9345
 Red. masses --      4.6482                 3.4977                 5.9067
 Frc consts  --      1.3349                 1.0905                 2.0257
 IR Inten    --      0.6357                 4.7014                 5.2974

                     31                     32                     33
                      A                      A                      A
 Frequencies --    793.8260               814.4268               834.1660
 Red. masses --      1.3977                 3.4973                 2.6735
 Frc consts  --      0.5189                 1.3667                 1.0961
 IR Inten    --     55.6744                 4.4773                 2.9706

                     34                     35                     36
                      A                      A                      A
 Frequencies --    869.6920               890.7587               905.1476
 Red. masses --      2.5960                 1.9863                 1.5980
 Frc consts  --      1.1569                 0.9286                 0.7714
 IR Inten    --     18.0903                24.3988                12.3929

                     37                     38                     39
                      A                      A                      A
 Frequencies --    913.6467               939.5393               955.6170
 Red. masses --      2.5751                 1.2306                 1.7941
 Frc consts  --      1.2665                 0.6400                 0.9653
 IR Inten    --      5.6627                 8.2589                27.3611

                     40                     41                     42
                      A                      A                      A
 Frequencies --    971.1342               983.6276               991.1820
 Red. masses --      2.1056                 1.6056                 1.4076
 Frc consts  --      1.1700                 0.9153                 0.8148
 IR Inten    --      2.8317                 0.6722                 4.4796

                     43                     44                     45
                      A                      A                      A
 Frequencies --   1009.8620              1013.7475              1034.0247
 Red. masses --      1.4869                 1.5543                 1.8983
 Frc consts  --      0.8934                 0.9411                 1.1958
 IR Inten    --      3.5964                 1.3449                 5.6615

                     46                     47                     48
                      A                      A                      A
 Frequencies --   1058.1301              1070.4070              1091.8327
 Red. masses --      2.1212                 1.5238                 3.0036
 Frc consts  --      1.3993                 1.0287                 2.1096
 IR Inten    --      5.8073                 2.5336                 3.0211

                     49                     50                     51
                      A                      A                      A
 Frequencies --   1120.4479              1148.2848              1161.3618
 Red. masses --      2.4701                 1.9696                 2.0463
 Frc consts  --      1.8271                 1.5301                 1.6261
 IR Inten    --      5.4766                 7.6862                 3.4386

                     52                     53                     54
                      A                      A                      A
 Frequencies --   1174.4493              1185.3951              1204.4914
 Red. masses --      2.3110                 1.5333                 1.8647
 Frc consts  --      1.8781                 1.2695                 1.5939
 IR Inten    --      7.4246                 3.3467                11.0605

                     55                     56                     57
                      A                      A                      A
 Frequencies --   1218.3768              1230.5232              1284.7637
 Red. masses --      1.2972                 1.6847                 2.4537
 Frc consts  --      1.1345                 1.5030                 2.3862
 IR Inten    --      0.1255                 7.0380                18.7871

                     58                     59                     60
                      A                      A                      A
 Frequencies --   1310.0677              1313.1923              1338.2876
 Red. masses --      3.8293                 1.3608                 2.5733
 Frc consts  --      3.8721                 1.3826                 2.7154
 IR Inten    --      6.0072                 0.6051                13.9309

                     61                     62                     63
                      A                      A                      A
 Frequencies --   1356.6502              1362.8818              1387.0436
 Red. masses --      1.3973                 1.3743                 1.3912
 Frc consts  --      1.5152                 1.5040                 1.5770
 IR Inten    --      6.2622                 3.8196                 1.4771

                     64                     65                     66
                      A                      A                      A
 Frequencies --   1407.5267              1418.8720              1428.5636
 Red. masses --      3.6412                 1.3920                 1.2652
 Frc consts  --      4.2502                 1.6511                 1.5213
 IR Inten    --      0.8898                 8.3106                 1.9011

                     67                     68                     69
                      A                      A                      A
 Frequencies --   1432.3963              1441.8639              1447.0295
 Red. masses --      1.5756                 1.3740                 1.9500
 Frc consts  --      1.9047                 1.6830                 2.4057
 IR Inten    --     12.7110                 4.6850                 1.1782

                     70                     71                     72
                      A                      A                      A
 Frequencies --   1452.7680              1487.2831              1513.3403
 Red. masses --      1.4235                 2.7567                 1.1459
 Frc consts  --      1.7701                 3.5927                 1.5462
 IR Inten    --     16.3101                12.5355                 3.9084

                     73                     74                     75
                      A                      A                      A
 Frequencies --   1517.2980              1522.9263              1524.8339
 Red. masses --      1.0539                 1.0517                 1.0520
 Frc consts  --      1.4295                 1.4371                 1.4411
 IR Inten    --      1.1528                 1.8473                 4.7648

                     76                     77                     78
                      A                      A                      A
 Frequencies --   1533.5475              1534.8157              1543.8252
 Red. masses --      1.0576                 1.0663                 2.1807
 Frc consts  --      1.4655                 1.4800                 3.0623
 IR Inten    --      5.2080                 7.1628                11.0976

                     79                     80                     81
                      A                      A                      A
 Frequencies --   1552.4370              1580.1524              1611.8662
 Red. masses --      1.0907                 6.8082                 6.6745
 Frc consts  --      1.5488                10.0157                10.2171
 IR Inten    --     13.1969                 9.1143                 9.8121

                     82                     83                     84
                      A                      A                      A
 Frequencies --   1677.9873              1700.6127              2973.7835
 Red. masses --      5.4716                 1.0879                 1.0743
 Frc consts  --      9.0769                 1.8538                 5.5974
 IR Inten    --      2.6847                34.0290                63.6529

                     85                     86                     87
                      A                      A                      A
 Frequencies --   3037.9108              3043.1773              3048.6282
 Red. masses --      1.0398                 1.0408                 1.0409
 Frc consts  --      5.6540                 5.6792                 5.7001
 IR Inten    --     20.7685                26.8854                15.4602

                     88                     89                     90
                      A                      A                      A
 Frequencies --   3073.2086              3097.0843              3100.2096
 Red. masses --      1.0804                 1.0897                 1.0911
 Frc consts  --      6.0121                 6.1582                 6.1788
 IR Inten    --     13.1179                22.1571                49.1356

                     91                     92                     93
                      A                      A                      A
 Frequencies --   3100.9800              3102.0601              3125.6975
 Red. masses --      1.0989                 1.0993                 1.0947
 Frc consts  --      6.2260                 6.2325                 6.3012
 IR Inten    --      7.2336                 6.6040                38.3967

                     94                     95                     96
                      A                      A                      A
 Frequencies --   3129.5439              3133.2142              3158.4143
 Red. masses --      1.0993                 1.0948                 1.0988
 Frc consts  --      6.3437                 6.3324                 6.4580
 IR Inten    --     33.8993                42.2849                 7.4969

                     97                     98                     99
                      A                      A                      A
 Frequencies --   3190.9542              3205.8882              3223.6198
 Red. masses --      1.0873                 1.0912                 1.0954
 Frc consts  --      6.5231                 6.6076                 6.7069
 IR Inten    --      7.6082                17.0984                13.4209

                    100                    101                    102
                      A                      A                      A
 Frequencies --   3259.3555              3475.7615              3557.8903
 Red. masses --      1.0913                 1.0502                 1.0927
 Frc consts  --      6.8309                 7.4750                 8.1497
 IR Inten    --      5.1087                 0.7148                 0.0325

 - Thermochemistry -
 -------------------
 Temperature   298.150 Kelvin.  Pressure   1.00000 Atm.
 Atom     1 has atomic number  6 and mass  12.00000

 Molecular mass:   229.15790 amu.
 Principal axes and moments of inertia in atomic units:
                           1         2         3
     Eigenvalues --  2845.182414377.776455626.81767
           X            0.99974   0.02241  -0.00526
           Y           -0.02240   0.99975   0.00180
           Z            0.00529  -0.00168   0.99998
 This molecule is an asymmetric top.
 Rotational symmetry number  1.
 Warning -- assumption of classical behavior for rotation
           may cause significant error
 Rotational temperatures (Kelvin)      0.03044     0.01978     0.01539
 Rotational constants (GHZ):           0.63431     0.41225     0.32074
 Zero-point vibrational energy     820037.1 (Joules/Mol)
                                  195.99358 (Kcal/Mol)
 Warning -- explicit consideration of  26 degrees of freedom as
           vibrations may cause significant error
 Vibrational temperatures:     39.24    77.91    96.96   135.25   142.02
          (Kelvin)            227.51   259.83   307.38   313.01   343.48
                              355.49   365.54   381.01   449.50   464.69
                              492.05   529.21   576.29   610.37   667.10
                              672.44   732.05   740.68   766.96   822.14
                              876.92   938.02  1004.52  1046.60  1097.69
                             1142.14  1171.78  1200.18  1251.29  1281.60
                             1302.31  1314.53  1351.79  1374.92  1397.25
                             1415.22  1426.09  1452.97  1458.56  1487.73
                             1522.41  1540.08  1570.90  1612.07  1652.13
                             1670.94  1689.77  1705.52  1732.99  1752.97
                             1770.45  1848.49  1884.90  1889.39  1925.50
                             1951.92  1960.88  1995.65  2025.12  2041.44
                             2055.38  2060.90  2074.52  2081.95  2090.21
                             2139.87  2177.36  2183.05  2191.15  2193.90
                             2206.43  2208.26  2221.22  2233.61  2273.49
                             2319.12  2414.25  2446.80  4278.61  4370.88
                             4378.45  4386.30  4421.66  4456.01  4460.51
                             4461.62  4463.17  4497.18  4502.72  4508.00
                             4544.25  4591.07  4612.56  4638.07  4689.49
                             5000.85  5119.01

 Zero-point correction=                           0.312336 (Hartree/Particle)
 Thermal correction to Energy=                    0.328553
 Thermal correction to Enthalpy=                  0.329497
 Thermal correction to Gibbs Free Energy=         0.268817
 Sum of electronic and zero-point Energies=           -708.919877
 Sum of electronic and thermal Energies=              -708.903660
 Sum of electronic and thermal Enthalpies=            -708.902716
 Sum of electronic and thermal Free Energies=         -708.963396

                     E (Thermal)             CV                S
                      KCal/Mol        Cal/Mol-Kelvin    Cal/Mol-Kelvin
 Total                  206.170             63.266            127.711
 Electronic               0.000              0.000              0.000
 Translational            0.889              2.981             42.190
 Rotational               0.889              2.981             32.616
 Vibrational            204.392             57.305             52.905
 Vibration     1          0.593              1.984              6.018
 Vibration     2          0.596              1.976              4.660
 Vibration     3          0.598              1.970              4.228
 Vibration     4          0.603              1.953              3.575
 Vibration     5          0.604              1.950              3.480
 Vibration     6          0.621              1.894              2.572
 Vibration     7          0.630              1.866              2.322
 Vibration     8          0.644              1.820              2.012
 Vibration     9          0.646              1.814              1.979
 Vibration    10          0.657              1.781              1.812
 Vibration    11          0.661              1.768              1.751
 Vibration    12          0.665              1.756              1.702
 Vibration    13          0.671              1.737              1.630
 Vibration    14          0.701              1.650              1.349
 Vibration    15          0.708              1.629              1.295
 Vibration    16          0.721              1.592              1.203
 Vibration    17          0.740              1.538              1.089
 Vibration    18          0.766              1.469              0.961
 Vibration    19          0.786              1.418              0.878
 Vibration    20          0.821              1.331              0.756
 Vibration    21          0.825              1.322              0.745
 Vibration    22          0.864              1.230              0.636
 Vibration    23          0.870              1.217              0.622
 Vibration    24          0.888              1.177              0.580
 Vibration    25          0.928              1.093              0.502
 Vibration    26          0.968              1.012              0.434

 Optimization completed.
    -- Stationary point found.
 Normal termination of Gaussian 16 at Fri Dec 11 12:21:10 2020.

 ----------------------------------------------------------------------
 # B3LYP/6-311++G(d,p) empiricaldispersion=gd3bj scf=xqc pop=npa geom=c
 heck
 ----------------------------------------------------------------------

 --------------------------------------
 CID_83893790_JID_7223_Energie_neutraal
 --------------------------------------
 Structure from the checkpoint file:  "JID_7223.chk"
 Charge =  0 Multiplicity = 1

 SCF Done:  E(RB3LYP) =  -709.421613527     A.U. after   16 cycles
 Normal termination of Gaussian 16 at Fri Dec 11 12:29:32 2020.

 ----------------------------------------------------------------------
 # B3LYP/6-311++G(d,p) empiricaldispersion=gd3bj scf=xqc pop=npa geom=c
 heck
 ----------------------------------------------------------------------

 ------------------------------------
 CID_83893790_JID_7223_Energie_kation
 ------------------------------------
 Structure from the checkpoint file:  "JID_7223.chk"
 Charge =  1 Multiplicity = 2

 SCF Done:  E(UB3LYP) =  -709.124661656     A.U. after   33 cycles
 SCF Done:  E(UB3LYP) =  -709.124661656     a.u. after    1 cycles
 Normal termination of Gaussian 16 at Fri Dec 11 12:54:47 2020.
 Gaussian 16:  ES64L-G16RevA.03 25-Dec-2016

 ----------------------------------------------------------------------
 # B3LYP/6-311++G(d,p) empiricaldispersion=gd3bj scf=xqc pop=npa geom=c
 heck
 ----------------------------------------------------------------------

 -----------------------------------
 CID_83893790_JID_7223_Energie_anion
 -----------------------------------
 Structure from the checkpoint file:  "JID_7223.chk"
 Charge = -1 Multiplicity = 2

                         Standard orientation:
 ---------------------------------------------------------------------
 Center     Atomic      Atomic             Coordinates (Angstroms)
 Number     Number       Type             X           Y           Z
 ---------------------------------------------------------------------
      1          6           0        0.937395    3.087633    0.309622
      2          6           0       -0.111873    2.010989    0.170745
      3          6           0        0.175313    0.646417    0.141317
      4          6           0       -0.945573   -0.227587    0.031994
      5          6           0       -0.904542   -1.653658    0.029100
      6          6           0       -2.058907   -2.390260   -0.103745
      7          6           0       -3.322164   -1.762633   -0.243484
      8          6           0       -3.403441   -0.393446   -0.229946
      9          6           0       -2.228716    0.392237   -0.087988
     10          7           0       -2.407246    1.743114   -0.069881
     11          7           0       -1.376034    2.522661    0.069845
     12          6           0        1.629445    0.193260    0.229681
     13          6           0        2.002970   -0.271552    1.657903
     14          7           0        1.471539   -1.591578    2.010871
     15          6           0        2.093856   -0.755515   -0.908346
     16          6           0        1.726307   -0.167457   -2.277328
     17          6           0        3.604412   -1.010159   -0.824480
     18          1           0        1.549837    2.956980    1.208971
     19          1           0        0.429890    4.052159    0.370136
     20          1           0        1.617813    3.110527   -0.550339
     21          1           0        0.037447   -2.162566    0.175731
     22          1           0       -1.999972   -3.475126   -0.097639
     23          1           0       -4.217316   -2.367902   -0.351759
     24          1           0       -4.345833    0.136653   -0.320311
     25          1           0        2.228548    1.098546    0.087304
     26          1           0        3.093827   -0.334268    1.713811
     27          1           0        1.700046    0.525412    2.358264
     28          1           0        1.939840   -1.930579    2.848994
     29          1           0        0.485043   -1.514866    2.251062
     30          1           0        1.600500   -1.724141   -0.807746
     31          1           0        2.197800    0.813733   -2.421011
     32          1           0        2.071683   -0.822569   -3.084725
     33          1           0        0.645648   -0.038047   -2.388507
     34          1           0        3.872981   -1.574994    0.073042
     35          1           0        3.940150   -1.590818   -1.690909
     36          1           0        4.167368   -0.067126   -0.820479
 ---------------------------------------------------------------------

 SCF Done:  E(UB3LYP) =  -709.440974203     A.U. after   27 cycles

 The electronic state is 2-A.
 Alpha  occ. eigenvalues --  -14.19022 -14.15615 -14.14733 -10.08452 -10.05980
 Alpha  occ. eigenvalues --  -10.05863 -10.05542 -10.04997 -10.04646 -10.04523
 Alpha  occ. eigenvalues --  -10.03773 -10.03764 -10.02649 -10.02302 -10.02166
 Alpha  occ. eigenvalues --  -10.01522 -10.01242  -0.84212  -0.78113  -0.71126
 Alpha  occ. eigenvalues --   -0.70282  -0.67088  -0.63175  -0.60760  -0.59910
 Alpha  occ. eigenvalues --   -0.57935  -0.55665  -0.51988  -0.49883  -0.46646
 Alpha  occ. eigenvalues --   -0.45607  -0.43094  -0.39542  -0.38007  -0.36716
 Alpha  occ. eigenvalues --   -0.35320  -0.34769  -0.33638  -0.31990  -0.30896
 Alpha  occ. eigenvalues --   -0.30686  -0.29844  -0.28735  -0.28247  -0.27871
 Alpha  occ. eigenvalues --   -0.27345  -0.25965  -0.25607  -0.25106  -0.24137
 Alpha  occ. eigenvalues --   -0.22626  -0.22266  -0.21360  -0.20959  -0.20515
 Alpha  occ. eigenvalues --   -0.19473  -0.15151  -0.14533  -0.13830  -0.11489
 Alpha  occ. eigenvalues --   -0.08697  -0.05898   0.03848
 Alpha virt. eigenvalues --    0.06878   0.08278   0.08827   0.09360   0.10029
 Alpha virt. eigenvalues --    0.11073   0.11126   0.11498   0.11770   0.12494
 Alpha virt. eigenvalues --    0.13039   0.13199   0.13702   0.14246   0.14489

  Beta  occ. eigenvalues --  -14.19020 -14.15287 -14.14127 -10.08413 -10.05960
  Beta  occ. eigenvalues --  -10.05862 -10.05570 -10.05058 -10.04646 -10.04624
  Beta  occ. eigenvalues --  -10.03801 -10.03774 -10.02664 -10.02139 -10.01760
  Beta  occ. eigenvalues --  -10.01357 -10.00965  -0.83350  -0.78087  -0.70861
  Beta  occ. eigenvalues --   -0.70040  -0.66725  -0.62802  -0.60497  -0.59737
  Beta  occ. eigenvalues --   -0.57919  -0.55335  -0.51641  -0.49472  -0.46520
  Beta  occ. eigenvalues --   -0.45379  -0.42929  -0.39441  -0.37842  -0.36460
  Beta  occ. eigenvalues --   -0.35194  -0.34667  -0.33567  -0.31920  -0.30750
  Beta  occ. eigenvalues --   -0.30553  -0.29639  -0.28668  -0.28151  -0.27794
  Beta  occ. eigenvalues --   -0.27274  -0.25560  -0.25032  -0.24839  -0.24061
  Beta  occ. eigenvalues --   -0.22498  -0.22111  -0.21203  -0.20829  -0.19455
  Beta  occ. eigenvalues --   -0.18858  -0.14415  -0.13868  -0.13289  -0.10428
  Beta  occ. eigenvalues --   -0.06864  -0.05275
  Beta virt. eigenvalues --    0.06815   0.08228   0.08775   0.09318   0.09894
  Beta virt. eigenvalues --    0.10219   0.11038   0.11180   0.11486   0.11739
  Beta virt. eigenvalues --    0.12638   0.13021   0.13153   0.13661   0.14209

 Mulliken charges and spin densities:
               1          2
     1  C   -0.496334  -0.035220
     2  C   -0.647920  -0.031633
     3  C    1.327007   0.316340
     4  C    1.060992   0.022315
     5  C   -0.757690   0.062102
     6  C   -0.473429   0.178172
     7  C   -0.277055   0.009487
     8  C   -0.588032   0.168402
     9  C   -0.487629  -0.070225
    10  N   -0.126231   0.258403
    11  N    0.022483   0.154785
    12  C    0.173643   0.007222
    13  C   -0.791207  -0.057995
    14  N   -0.455257   0.002354
    15  C    0.155983   0.035056
    16  C   -0.794732  -0.000376
    17  C   -0.533185  -0.049065
    18  H    0.105180   0.012993
    19  H    0.156603  -0.002602
    20  H    0.111291  -0.001302
    21  H    0.150006  -0.007587
    22  H    0.118720  -0.010420
    23  H    0.101931   0.000053
    24  H    0.141012  -0.017086
    25  H    0.174320  -0.002654
    26  H    0.067187   0.040010
    27  H    0.157297   0.000476
    28  H    0.228364  -0.000960
    29  H    0.239732   0.000489
    30  H    0.130302   0.001652
    31  H    0.131046  -0.000223
    32  H    0.124188  -0.000245
    33  H    0.166617  -0.000177
    34  H    0.134944   0.006325
    35  H    0.123093   0.005409
    36  H    0.126763   0.005725
 Sum of Mulliken charges =  -1.00000   1.00000

 Dipole moment (field-independent basis, Debye):
    X=              7.3969    Y=             -3.4370    Z=              1.1989  Tot=              8.2441
 Quadrupole moment (field-independent basis, Debye-Ang):
   XX=           -139.4229   YY=           -136.6397   ZZ=           -111.3776
   XY=             10.0344   XZ=              1.1163   YZ=             -1.5199

 Summary of Natural Population Analysis:

                                       Natural Population
                Natural  -----------------------------------------------
    Atom  No    Charge         Core      Valence    Rydberg      Total
 -----------------------------------------------------------------------
      C    1   -0.29865      0.99964     2.29422    0.00479     3.29865
      C    2    0.06054      0.99949     1.92496    0.01501     2.93946
      C    3    0.04543      0.99942     1.94259    0.01256     2.95457
      C    4   -0.04450      0.99945     2.03313    0.01191     3.04450
      C    5   -0.10787      0.99958     2.09373    0.01457     3.10787
      C    6   -0.03714      0.99958     2.03323    0.00433     3.03714
      C    7   -0.13661      0.99960     2.12086    0.01615     3.13661
      C    8   -0.04136      0.99953     2.03171    0.01013     3.04136
      C    9    0.04754      0.99949     1.94087    0.01210     2.95246
      N   10   -0.04631      0.99970     2.52552    0.02109     3.54631
      N   11   -0.09595      0.99970     2.58004    0.01621     3.59595
      C   12   -0.12233      0.99956     2.10859    0.01418     3.12233
      C   13   -0.07732      0.99961     2.06827    0.00945     3.07732
      N   14   -0.42686      0.99977     2.91760    0.00949     3.92686
      C   15   -0.10936      0.99960     2.10203    0.00774     3.10936
      C   16   -0.28359      0.99966     2.27917    0.00476     3.28359
      C   17   -0.28394      0.99966     2.27948    0.00481     3.28394
      H   18    0.09270      0.00000     0.40619    0.00111     0.40730
      H   19    0.10973      0.00000     0.38868    0.00159     0.39027
      H   20    0.09383      0.00000     0.40516    0.00101     0.40617
      H   21    0.09927      0.00000     0.39839    0.00234     0.40073
      H   22    0.08445      0.00000     0.41462    0.00093     0.41555
      H   23    0.08802      0.00000     0.41028    0.00170     0.41198
      H   24    0.09508      0.00000     0.40318    0.00174     0.40492
      H   25    0.10161      0.00000     0.39722    0.00117     0.39839
      H   26    0.08294      0.00000     0.41540    0.00167     0.41706
      H   27    0.08139      0.00000     0.41728    0.00133     0.41861
      H   28    0.16812      0.00000     0.33020    0.00168     0.33188
      H   29    0.18172      0.00000     0.31674    0.00153     0.31828
      H   30    0.10200      0.00000     0.39613    0.00187     0.39800
      H   31    0.09133      0.00000     0.40779    0.00089     0.40867
      H   32    0.09062      0.00000     0.40855    0.00083     0.40938
      H   33    0.11216      0.00000     0.38718    0.00066     0.38784
      H   34    0.09825      0.00000     0.40091    0.00084     0.40175
      H   35    0.09406      0.00000     0.40511    0.00083     0.40594
      H   36    0.09104      0.00000     0.40803    0.00093     0.40896
 =======================================================================
   * Total *    0.00004     16.99302    44.79303    0.21391    61.99996

 Normal termination of Gaussian 16 at Fri Dec 11 13:14:42 2020.
