 Gaussian 16, Revision A.03,

 -----------------------------------------------------------
 # opt freq B3LYP/6-31G(d) empiricaldispersion=gd3bj scf=xqc
 -----------------------------------------------------------

 -------------------------------
 CID_106314436_JID_6740_neutraal
 -------------------------------
 Symbolic Z-matrix:
 Charge =  0 Multiplicity = 1

 SCF Done:  E(RB3LYP) =  -725.707299770     A.U. after   15 cycles
 SCF Done:  E(RB3LYP) =  -725.712714600     A.U. after   13 cycles
 SCF Done:  E(RB3LYP) =  -725.714839907     A.U. after   14 cycles
 SCF Done:  E(RB3LYP) =  -725.716257766     A.U. after   14 cycles
 SCF Done:  E(RB3LYP) =  -725.716358105     A.U. after   12 cycles
 SCF Done:  E(RB3LYP) =  -725.717318341     A.U. after   12 cycles
 SCF Done:  E(RB3LYP) =  -725.717482732     A.U. after   12 cycles
 SCF Done:  E(RB3LYP) =  -725.717514825     A.U. after   10 cycles
 SCF Done:  E(RB3LYP) =  -725.717521632     A.U. after   10 cycles
 SCF Done:  E(RB3LYP) =  -725.717522577     A.U. after    9 cycles
 SCF Done:  E(RB3LYP) =  -725.717522834     A.U. after    8 cycles
 SCF Done:  E(RB3LYP) =  -725.717522969     A.U. after    8 cycles
 SCF Done:  E(RB3LYP) =  -725.717522985     A.U. after    7 cycles
 Optimization completed.
    -- Stationary point found.
 Normal termination of Gaussian 16 at Thu Dec 10 23:12:43 2020.

 --------------------------------------------------------------------
 #N Geom=AllCheck Guess=TCheck SCRF=Check GenChk RB3LYP/6-31G(d) Freq
 --------------------------------------------------------------------

 Structure from the checkpoint file:  "JID_6740.chk"
 -------------------------------
 CID_106314436_JID_6740_neutraal
 -------------------------------
 Charge =  0 Multiplicity = 1

 SCF Done:  E(RB3LYP) =  -725.717522985     A.U. after    1 cycles

  Exact polarizability: 199.066   3.925 162.462  -1.469   4.806  73.544
 Approx polarizability: 275.686  10.498 265.187  -1.996  11.484 115.360

                      1                      2                      3
                      A                      A                      A
 Frequencies --     29.1263                35.3963                47.4811
 Red. masses --      3.9184                 4.8115                 5.7965
 Frc consts  --      0.0020                 0.0036                 0.0077
 IR Inten    --      0.4894                 1.4442                 0.2857

                      4                      5                      6
                      A                      A                      A
 Frequencies --     89.8266               139.9236               147.4145
 Red. masses --      4.4828                 2.8650                 3.3993
 Frc consts  --      0.0213                 0.0330                 0.0435
 IR Inten    --      1.3348                 0.6659                 0.9345

                      7                      8                      9
                      A                      A                      A
 Frequencies --    162.6302               181.9851               227.3884
 Red. masses --      2.0271                 1.6233                 4.0574
 Frc consts  --      0.0316                 0.0317                 0.1236
 IR Inten    --      5.4866                 0.8251                 0.7283

                     10                     11                     12
                      A                      A                      A
 Frequencies --    248.0551               305.6570               319.7051
 Red. masses --      2.2935                 4.7010                 3.1423
 Frc consts  --      0.0831                 0.2588                 0.1892
 IR Inten    --      4.9056                 4.8337                 0.7315

                     13                     14                     15
                      A                      A                      A
 Frequencies --    334.7612               383.9583               429.1862
 Red. masses --      2.4721                 5.0272                 2.5891
 Frc consts  --      0.1632                 0.4367                 0.2810
 IR Inten    --      4.6036                 2.8288                 1.1800

                     16                     17                     18
                      A                      A                      A
 Frequencies --    438.7307               465.2258               476.7595
 Red. masses --      4.0444                 3.5482                 4.9525
 Frc consts  --      0.4587                 0.4525                 0.6632
 IR Inten    --      0.0877                 2.0261                 0.0596

                     19                     20                     21
                      A                      A                      A
 Frequencies --    534.3597               559.7343               589.0345
 Red. masses --      2.4561                 4.3253                 5.4066
 Frc consts  --      0.4132                 0.7984                 1.1052
 IR Inten    --     15.1065                 6.7179                 2.3780

                     22                     23                     24
                      A                      A                      A
 Frequencies --    640.7819               646.2857               656.0932
 Red. masses --      2.6335                 2.3094                 2.8000
 Frc consts  --      0.6371                 0.5683                 0.7101
 IR Inten    --     45.0254                82.3840                26.4722

                     25                     26                     27
                      A                      A                      A
 Frequencies --    726.7276               737.7704               771.8212
 Red. masses --      3.2224                 2.1924                 2.8454
 Frc consts  --      1.0027                 0.7031                 0.9987
 IR Inten    --     22.2844                 6.5224                67.1825

                     28                     29                     30
                      A                      A                      A
 Frequencies --    804.1514               823.4418               841.0212
 Red. masses --      1.8764                 3.4394                 1.8114
 Frc consts  --      0.7149                 1.3741                 0.7549
 IR Inten    --      3.0497                 4.8516                10.2522

                     31                     32                     33
                      A                      A                      A
 Frequencies --    881.5642               886.1002               941.5788
 Red. masses --      3.2154                 1.4891                 2.2515
 Frc consts  --      1.4723                 0.6889                 1.1761
 IR Inten    --      1.3718                 0.2942                 0.9157

                     34                     35                     36
                      A                      A                      A
 Frequencies --    952.9486               984.2482               991.0145
 Red. masses --      2.4921                 1.6114                 1.2872
 Frc consts  --      1.3334                 0.9197                 0.7449
 IR Inten    --     20.9983                10.8857                 0.1173

                     37                     38                     39
                      A                      A                      A
 Frequencies --   1002.4872              1026.9154              1048.6870
 Red. masses --      5.9455                 2.1784                 1.9261
 Frc consts  --      3.5204                 1.3535                 1.2480
 IR Inten    --     19.7567                16.4602                69.2973

                     40                     41                     42
                      A                      A                      A
 Frequencies --   1081.5612              1091.2389              1108.2812
 Red. masses --      2.0534                 1.6508                 1.7065
 Frc consts  --      1.4152                 1.1582                 1.2349
 IR Inten    --      4.5753                 1.0709                 4.9625

                     43                     44                     45
                      A                      A                      A
 Frequencies --   1123.7521              1163.8234              1191.6487
 Red. masses --      1.7712                 3.2651                 2.3737
 Frc consts  --      1.3178                 2.6057                 1.9860
 IR Inten    --      4.0228               269.3028                 6.5191

                     46                     47                     48
                      A                      A                      A
 Frequencies --   1204.9774              1214.3897              1233.5572
 Red. masses --      1.3615                 1.7443                 1.3518
 Frc consts  --      1.1647                 1.5156                 1.2119
 IR Inten    --      4.2448                68.0980                28.5336

                     49                     50                     51
                      A                      A                      A
 Frequencies --   1240.9098              1282.8451              1304.7832
 Red. masses --      1.7002                 1.3537                 1.6513
 Frc consts  --      1.5425                 1.3125                 1.6563
 IR Inten    --     10.8067               121.5215                65.9410

                     52                     53                     54
                      A                      A                      A
 Frequencies --   1345.4209              1361.3054              1387.6318
 Red. masses --      2.6143                 1.5549                 2.5178
 Frc consts  --      2.7881                 1.6977                 2.8564
 IR Inten    --     31.5613                 3.2918                71.6222

                     55                     56                     57
                      A                      A                      A
 Frequencies --   1394.5291              1412.0323              1422.7382
 Red. masses --      1.6256                 1.8455                 1.5339
 Frc consts  --      1.8626                 2.1679                 1.8293
 IR Inten    --     36.7496                17.1411                 0.0392

                     58                     59                     60
                      A                      A                      A
 Frequencies --   1441.2538              1445.8392              1483.9694
 Red. masses --      1.9597                 1.3925                 3.7062
 Frc consts  --      2.3984                 1.7150                 4.8088
 IR Inten    --     41.3429                22.2705                10.9156

                     61                     62                     63
                      A                      A                      A
 Frequencies --   1506.0079              1507.9579              1514.7562
 Red. masses --      1.0989                 1.0477                 1.0952
 Frc consts  --      1.4685                 1.4037                 1.4806
 IR Inten    --      2.0256                10.5452                 3.2988

                     64                     65                     66
                      A                      A                      A
 Frequencies --   1521.9924              1525.8924              1532.0146
 Red. masses --      1.2370                 1.8932                 1.2861
 Frc consts  --      1.6883                 2.5972                 1.7785
 IR Inten    --     55.1053               317.7004                15.7315

                     67                     68                     69
                      A                      A                      A
 Frequencies --   1618.0966              1658.8674              1765.3372
 Red. masses --      5.5029                 6.1962                 6.8550
 Frc consts  --      8.4889                10.0462                12.5868
 IR Inten    --     18.3328               302.0419                 1.6554

                     70                     71                     72
                      A                      A                      A
 Frequencies --   1844.6483              2965.8298              2989.9656
 Red. masses --     10.1347                 1.0753                 1.0753
 Frc consts  --     20.3183                 5.5729                 5.6640
 IR Inten    --    234.6077                41.5085                59.1593

                     73                     74                     75
                      A                      A                      A
 Frequencies --   3024.6998              3032.7254              3062.2138
 Red. masses --      1.0633                 1.0383                 1.0986
 Frc consts  --      5.7315                 5.6267                 6.0696
 IR Inten    --     43.8532                32.7625                47.0174

                     76                     77                     78
                      A                      A                      A
 Frequencies --   3078.4849              3108.6790              3127.8215
 Red. masses --      1.0998                 1.0847                 1.1000
 Frc consts  --      6.1412                 6.1759                 6.3403
 IR Inten    --     21.7571                 7.2477                21.5826

                     79                     80                     81
                      A                      A                      A
 Frequencies --   3162.1591              3164.4965              3196.8245
 Red. masses --      1.0883                 1.0902                 1.0895
 Frc consts  --      6.4118                 6.4324                 6.5599
 IR Inten    --     27.3485                31.5310                14.2080

                     82                     83                     84
                      A                      A                      A
 Frequencies --   3235.4327              3255.5135              3702.2293
 Red. masses --      1.0910                 1.0932                 1.0642
 Frc consts  --      6.7290                 6.8264                 8.5939
 IR Inten    --     15.4975                 0.5750                69.9797

 - Thermochemistry -
 -------------------
 Temperature   298.150 Kelvin.  Pressure   1.00000 Atm.
 Atom     1 has atomic number  6 and mass  12.00000

 Molecular mass:   218.10553 amu.
 Principal axes and moments of inertia in atomic units:
                           1         2         3
     Eigenvalues --  1846.050165852.941007587.20301
           X            0.99987  -0.01594  -0.00018
           Y            0.01594   0.99987   0.00044
           Z            0.00018  -0.00044   1.00000
 This molecule is an asymmetric top.
 Rotational symmetry number  1.
 Warning -- assumption of classical behavior for rotation
           may cause significant error
 Rotational temperatures (Kelvin)      0.04692     0.01480     0.01142
 Rotational constants (GHZ):           0.97762     0.30835     0.23787
 Zero-point vibrational energy     649267.9 (Joules/Mol)
                                  155.17875 (Kcal/Mol)
 Warning -- explicit consideration of  21 degrees of freedom as
           vibrations may cause significant error
 Vibrational temperatures:     41.91    50.93    68.31   129.24   201.32
          (Kelvin)            212.10   233.99   261.84   327.16   356.90
                              439.77   459.98   481.65   552.43   617.50
                              631.24   669.36   685.95   768.82   805.33
                              847.49   921.94   929.86   943.97  1045.60
                             1061.49  1110.48  1156.99  1184.75  1210.04
                             1268.37  1274.90  1354.72  1371.08  1416.11
                             1425.85  1442.36  1477.50  1508.83  1556.13
                             1570.05  1594.57  1616.83  1674.48  1714.52
                             1733.69  1747.24  1774.81  1785.39  1845.73
                             1877.29  1935.76  1958.61  1996.49  2006.42
                             2031.60  2047.00  2073.64  2080.24  2135.10
                             2166.81  2169.62  2179.40  2189.81  2195.42
                             2204.23  2328.08  2386.74  2539.93  2654.04
                             4267.17  4301.89  4351.87  4363.42  4405.84
                             4429.25  4472.70  4500.24  4549.64  4553.00
                             4599.52  4655.07  4683.96  5326.68

 Zero-point correction=                           0.247293 (Hartree/Particle)
 Thermal correction to Energy=                    0.261719
 Thermal correction to Enthalpy=                  0.262663
 Thermal correction to Gibbs Free Energy=         0.204369
 Sum of electronic and zero-point Energies=           -725.470230
 Sum of electronic and thermal Energies=              -725.455804
 Sum of electronic and thermal Enthalpies=            -725.454860
 Sum of electronic and thermal Free Energies=         -725.513154

                     E (Thermal)             CV                S
                      KCal/Mol        Cal/Mol-Kelvin    Cal/Mol-Kelvin
 Total                  164.231             54.921            122.691
 Electronic               0.000              0.000              0.000
 Translational            0.889              2.981             42.042
 Rotational               0.889              2.981             32.772
 Vibrational            162.454             48.960             47.876
 Vibration     1          0.593              1.984              5.888
 Vibration     2          0.594              1.982              5.501
 Vibration     3          0.595              1.979              4.920
 Vibration     4          0.602              1.956              3.664
 Vibration     5          0.615              1.913              2.805
 Vibration     6          0.617              1.905              2.705
 Vibration     7          0.623              1.888              2.519
 Vibration     8          0.630              1.864              2.308
 Vibration     9          0.651              1.799              1.899
 Vibration    10          0.662              1.766              1.744
 Vibration    11          0.696              1.663              1.386
 Vibration    12          0.706              1.636              1.312
 Vibration    13          0.716              1.606              1.237
 Vibration    14          0.753              1.504              1.024
 Vibration    15          0.791              1.407              0.861
 Vibration    16          0.799              1.386              0.831
 Vibration    17          0.823              1.327              0.751
 Vibration    18          0.833              1.302              0.719
 Vibration    19          0.889              1.174              0.578
 Vibration    20          0.915              1.118              0.524
 Vibration    21          0.946              1.055              0.469

                           ! Non-Optimized Parameters !
 Normal termination of Gaussian 16 at Thu Dec 10 23:21:54 2020.

 ----------------------------------------------------------------------
 # B3LYP/6-311++G(d,p) empiricaldispersion=gd3bj scf=xqc pop=npa geom=c
 heck
 ----------------------------------------------------------------------

 ---------------------------------------
 CID_106314436_JID_6740_Energie_neutraal
 ---------------------------------------
 Structure from the checkpoint file:  "JID_6740.chk"
 Charge =  0 Multiplicity = 1

 SCF Done:  E(RB3LYP) =  -725.922266366     A.U. after   15 cycles
 Normal termination of Gaussian 16 at Thu Dec 10 23:25:27 2020.

 ----------------------------------------------------------------------
 # B3LYP/6-311++G(d,p) empiricaldispersion=gd3bj scf=xqc pop=npa geom=c
 heck
 ----------------------------------------------------------------------

 -------------------------------------
 CID_106314436_JID_6740_Energie_kation
 -------------------------------------
 Structure from the checkpoint file:  "JID_6740.chk"
 Charge =  1 Multiplicity = 2

 SCF Done:  E(UB3LYP) =  -725.644433506     A.U. after   24 cycles
 Normal termination of Gaussian 16 at Thu Dec 10 23:32:58 2020.
 Gaussian 16:  ES64L-G16RevA.03 25-Dec-2016

 ----------------------------------------------------------------------
 # B3LYP/6-311++G(d,p) empiricaldispersion=gd3bj scf=xqc pop=npa geom=c
 heck
 ----------------------------------------------------------------------

 ------------------------------------
 CID_106314436_JID_6740_Energie_anion
 ------------------------------------
 Structure from the checkpoint file:  "JID_6740.chk"
 Charge = -1 Multiplicity = 2

                         Standard orientation:
 ---------------------------------------------------------------------
 Center     Atomic      Atomic             Coordinates (Angstroms)
 Number     Number       Type             X           Y           Z
 ---------------------------------------------------------------------
      1          6           0       -3.417353    2.557142   -0.038778
      2          6           0       -3.018564    1.106875   -0.054911
      3          6           0       -3.871836    0.118953   -0.342685
      4          6           0       -3.471060   -1.329944   -0.312854
      5          6           0       -2.199351   -1.513680    0.516069
      6          7           0       -1.186116   -0.551820    0.101922
      7          6           0       -1.567504    0.849507    0.265141
      8          6           0        0.159479   -0.852518    0.058242
      9          6           0        0.654116   -2.181377   -0.032546
     10          6           0        2.020503   -2.378666   -0.110052
     11          6           0        2.892777   -1.284185   -0.105462
     12          6           0        2.314888   -0.020363   -0.022159
     13          7           0        0.997456    0.194701    0.067098
     14          6           0        3.150446    1.225356   -0.022006
     15          8           0        2.729554    2.358534    0.019633
     16          8           0        4.482428    0.946885   -0.078245
     17          1           0       -3.212998    3.012971    0.939552
     18          1           0       -4.482425    2.681102   -0.256040
     19          1           0       -2.845585    3.134105   -0.777881
     20          1           0       -4.902134    0.356484   -0.602171
     21          1           0       -3.306038   -1.708801   -1.332170
     22          1           0       -4.274143   -1.940690    0.120625
     23          1           0       -1.821110   -2.528320    0.403510
     24          1           0       -2.434904   -1.369197    1.583450
     25          1           0       -1.340348    1.199579    1.288292
     26          1           0       -0.928927    1.451367   -0.387048
     27          1           0       -0.011313   -3.034870   -0.058331
     28          1           0        2.412863   -3.389238   -0.181701
     29          1           0        3.966109   -1.405071   -0.165536
     30          1           0        4.926484    1.814463   -0.076777
 ---------------------------------------------------------------------

 SCF Done:  E(UB3LYP) =  -725.926729083     A.U. after   33 cycles
 SCF Done:  E(UB3LYP) =  -725.926729083     a.u. after    1 cycles

 The electronic state is 2-A.
 Alpha  occ. eigenvalues --  -19.02000 -18.94482 -14.20390 -14.13963 -10.12713
 Alpha  occ. eigenvalues --  -10.09926 -10.09429 -10.08247 -10.07578 -10.07357
 Alpha  occ. eigenvalues --  -10.07105 -10.06262 -10.04492 -10.03594 -10.02072
 Alpha  occ. eigenvalues --  -10.01988  -0.95495  -0.86080  -0.84306  -0.77691
 Alpha  occ. eigenvalues --   -0.70964  -0.67041  -0.65102  -0.62009  -0.59435
 Alpha  occ. eigenvalues --   -0.55250  -0.52516  -0.51468  -0.46609  -0.44983
 Alpha  occ. eigenvalues --   -0.41096  -0.40838  -0.36696  -0.36181  -0.35522
 Alpha  occ. eigenvalues --   -0.34159  -0.33233  -0.32556  -0.32196  -0.31681
 Alpha  occ. eigenvalues --   -0.30966  -0.30186  -0.29138  -0.27653  -0.27373
 Alpha  occ. eigenvalues --   -0.26684  -0.25318  -0.24775  -0.24448  -0.23420
 Alpha  occ. eigenvalues --   -0.22303  -0.18063  -0.16414  -0.14112  -0.13937
 Alpha  occ. eigenvalues --   -0.12536  -0.10986  -0.07577   0.04748
 Alpha virt. eigenvalues --    0.06319   0.07711   0.08728   0.09100   0.09467
 Alpha virt. eigenvalues --    0.10137   0.10451   0.11062   0.11375   0.12529
 Alpha virt. eigenvalues --    0.12941   0.13242   0.13749   0.14640   0.14680

  Beta  occ. eigenvalues --  -19.01934 -18.94199 -14.20408 -14.13706 -10.12485
  Beta  occ. eigenvalues --  -10.09991 -10.09428 -10.08243 -10.07575 -10.07353
  Beta  occ. eigenvalues --  -10.07090 -10.06251 -10.04243 -10.03530 -10.02035
  Beta  occ. eigenvalues --  -10.01685  -0.95215  -0.85660  -0.84233  -0.77335
  Beta  occ. eigenvalues --   -0.70918  -0.66988  -0.64678  -0.61644  -0.59384
  Beta  occ. eigenvalues --   -0.55090  -0.52360  -0.50961  -0.46535  -0.44699
  Beta  occ. eigenvalues --   -0.41019  -0.40785  -0.36591  -0.36130  -0.35409
  Beta  occ. eigenvalues --   -0.34025  -0.33085  -0.32377  -0.32101  -0.31443
  Beta  occ. eigenvalues --   -0.30794  -0.29213  -0.28950  -0.27606  -0.27327
  Beta  occ. eigenvalues --   -0.26536  -0.25117  -0.24252  -0.24224  -0.23204
  Beta  occ. eigenvalues --   -0.22228  -0.16960  -0.15890  -0.13960  -0.12371
  Beta  occ. eigenvalues --   -0.12240  -0.10648  -0.06688
  Beta virt. eigenvalues --    0.06551   0.07788   0.08726   0.09085   0.09493
  Beta virt. eigenvalues --    0.10072   0.10172   0.10785   0.11095   0.11387
  Beta virt. eigenvalues --    0.12511   0.12893   0.13473   0.13736   0.14565

 Mulliken charges and spin densities:
               1          2
     1  C   -0.222850  -0.449751
     2  C    0.798804   0.131755
     3  C   -0.572452   0.330424
     4  C    0.783212  -1.224525
     5  C   -0.442999   0.250462
     6  N    0.400840   0.028289
     7  C   -1.333549   0.287492
     8  C    0.186318  -0.117090
     9  C   -0.182718   0.247390
    10  C   -0.461089   0.062901
    11  C   -0.225742   0.087984
    12  C   -0.508381   0.131084
    13  N   -0.075984   0.112820
    14  C    0.316107   0.102310
    15  O   -0.408166   0.102602
    16  O   -0.233115   0.013931
    17  H    0.106650   0.029479
    18  H    0.027793   0.110222
    19  H    0.149938  -0.000442
    20  H   -0.192826   0.326274
    21  H    0.023450   0.123241
    22  H   -0.108053   0.231374
    23  H    0.141763  -0.005818
    24  H    0.087322   0.025779
    25  H    0.150572   0.035096
    26  H    0.268872  -0.013546
    27  H   -0.001559   0.035863
    28  H    0.119836   0.005503
    29  H    0.149459   0.000049
    30  H    0.258544  -0.001151
 Sum of Mulliken charges =  -1.00000   1.00000

 Dipole moment (field-independent basis, Debye):
    X=             -2.9494    Y=             -0.9516    Z=              0.3935  Tot=              3.1240
 Quadrupole moment (field-independent basis, Debye-Ang):
   XX=           -143.4811   YY=           -118.7200   ZZ=           -106.9854
   XY=             -4.9387   XZ=             -1.4048   YZ=             -1.5562

 Summary of Natural Population Analysis:

                                       Natural Population
                Natural  -----------------------------------------------
    Atom  No    Charge         Core      Valence    Rydberg      Total
 -----------------------------------------------------------------------
      C    1   -0.29296      0.99963     2.28854    0.00479     3.29296
      C    2   -0.00878      0.99949     2.00019    0.00911     3.00878
      C    3   -0.10586      0.99945     2.09607    0.01033     3.10586
      C    4   -0.20709      0.99962     2.19721    0.01027     3.20709
      C    5   -0.07643      0.99962     2.06567    0.01114     3.07643
      N    6   -0.25824      0.99963     2.74848    0.01013     3.75824
      C    7   -0.09874      0.99956     2.08907    0.01010     3.09874
      C    8    0.19425      0.99953     1.79148    0.01474     2.80575
      C    9   -0.08875      0.99953     2.08148    0.00774     3.08875
      C   10   -0.07987      0.99958     2.07134    0.00895     3.07987
      C   11   -0.12363      0.99953     2.11524    0.00886     3.12363
      C   12    0.09191      0.99948     1.89549    0.01312     2.90809
      N   13   -0.21548      0.99964     2.70629    0.00954     3.71548
      C   14    0.41765      0.99969     1.55840    0.02427     2.58235
      O   15   -0.29130      0.99987     3.28461    0.00682     4.29130
      O   16   -0.35771      0.99988     3.35026    0.00757     4.35771
      H   17    0.10105      0.00000     0.39774    0.00121     0.39895
      H   18    0.09910      0.00000     0.40001    0.00090     0.40090
      H   19    0.10199      0.00000     0.39682    0.00120     0.39801
      H   20    0.09188      0.00000     0.40703    0.00109     0.40812
      H   21    0.10195      0.00000     0.39670    0.00135     0.39805
      H   22    0.09679      0.00000     0.40185    0.00137     0.40321
      H   23    0.10219      0.00000     0.39640    0.00140     0.39781
      H   24    0.08144      0.00000     0.41701    0.00155     0.41856
      H   25    0.09386      0.00000     0.40435    0.00180     0.40614
      H   26    0.12294      0.00000     0.37546    0.00159     0.37706
      H   27    0.08931      0.00000     0.40947    0.00122     0.41069
      H   28    0.08855      0.00000     0.41006    0.00139     0.41145
      H   29    0.10303      0.00000     0.39591    0.00106     0.39697
      H   30    0.22695      0.00000     0.26749    0.00556     0.27305
 =======================================================================
   * Total *   -0.00000     15.99375    41.81610    0.19015    58.00000

 Normal termination of Gaussian 16 at Thu Dec 10 23:43:23 2020.
