 Gaussian 16, Revision A.03,

 -----------------------------------------------------------
 # opt freq B3LYP/6-31G(d) empiricaldispersion=gd3bj scf=xqc
 -----------------------------------------------------------

 ------------------------------
 CID_89390219_JID_1778_neutraal
 ------------------------------
 Symbolic Z-matrix:
 Charge =  0 Multiplicity = 1

 SCF Done:  E(RB3LYP) =  -448.494641153     A.U. after   13 cycles
 SCF Done:  E(RB3LYP) =  -448.496998936     A.U. after   11 cycles
 SCF Done:  E(RB3LYP) =  -448.496767586     A.U. after   11 cycles
 SCF Done:  E(RB3LYP) =  -448.497410337     A.U. after   10 cycles
 SCF Done:  E(RB3LYP) =  -448.497542245     A.U. after   11 cycles
 SCF Done:  E(RB3LYP) =  -448.497583091     A.U. after   10 cycles
 SCF Done:  E(RB3LYP) =  -448.497613872     A.U. after    9 cycles
 SCF Done:  E(RB3LYP) =  -448.497616411     A.U. after    8 cycles
 SCF Done:  E(RB3LYP) =  -448.497617381     A.U. after    8 cycles
 SCF Done:  E(RB3LYP) =  -448.497617676     A.U. after    7 cycles
 SCF Done:  E(RB3LYP) =  -448.497617792     A.U. after    7 cycles
 Optimization completed.
    -- Stationary point found.
 Normal termination of Gaussian 16 at Tue Dec  8 21:04:54 2020.

 --------------------------------------------------------------------
 #N Geom=AllCheck Guess=TCheck SCRF=Check GenChk RB3LYP/6-31G(d) Freq
 --------------------------------------------------------------------

 Structure from the checkpoint file:  "JID_1778.chk"
 ------------------------------
 CID_89390219_JID_1778_neutraal
 ------------------------------
 Charge =  0 Multiplicity = 1

 SCF Done:  E(RB3LYP) =  -448.497617792     A.U. after    1 cycles

  Exact polarizability: 149.905   0.595  99.113   1.482  -4.475  96.626
 Approx polarizability: 182.780   3.630 141.423   1.386  -7.507 141.184

                      1                      2                      3
                      A                      A                      A
 Frequencies --     39.9711                48.0046                66.2522
 Red. masses --      3.2269                 2.7610                 2.7749
 Frc consts  --      0.0030                 0.0037                 0.0072
 IR Inten    --      0.5053                 0.5236                 0.0920

                      4                      5                      6
                      A                      A                      A
 Frequencies --    105.5251               137.3738               192.7521
 Red. masses --      2.9191                 1.8414                 2.7049
 Frc consts  --      0.0192                 0.0205                 0.0592
 IR Inten    --      1.3947                 0.2323                 0.8885

                      7                      8                      9
                      A                      A                      A
 Frequencies --    210.3295               222.6751               244.4342
 Red. masses --      1.5503                 1.8854                 1.1136
 Frc consts  --      0.0404                 0.0551                 0.0392
 IR Inten    --      2.2894                 2.3670                 6.4670

                     10                     11                     12
                      A                      A                      A
 Frequencies --    279.2208               284.3122               308.7535
 Red. masses --      1.7578                 1.1875                 1.6199
 Frc consts  --      0.0807                 0.0566                 0.0910
 IR Inten    --     11.2892                13.6399                17.6182

                     13                     14                     15
                      A                      A                      A
 Frequencies --    329.5435               352.6543               363.0965
 Red. masses --      1.4249                 2.1771                 2.2765
 Frc consts  --      0.0912                 0.1595                 0.1768
 IR Inten    --     26.9010                10.0399                 2.0415

                     16                     17                     18
                      A                      A                      A
 Frequencies --    395.6640               424.1859               446.6692
 Red. masses --      2.2133                 2.0902                 2.3295
 Frc consts  --      0.2041                 0.2216                 0.2738
 IR Inten    --      6.6334                 1.0861                 6.2988

                     19                     20                     21
                      A                      A                      A
 Frequencies --    477.7044               512.7475               568.5328
 Red. masses --      2.2183                 2.3464                 2.3484
 Frc consts  --      0.2983                 0.3635                 0.4472
 IR Inten    --      0.9087                 0.0398                 0.9608

                     22                     23                     24
                      A                      A                      A
 Frequencies --    704.7882               773.1593               794.6969
 Red. masses --      2.0255                 1.8284                 1.6566
 Frc consts  --      0.5928                 0.6440                 0.6164
 IR Inten    --      5.8000                 4.1067                 1.1273

                     25                     26                     27
                      A                      A                      A
 Frequencies --    813.9424               874.5809               899.5508
 Red. masses --      2.1884                 1.9445                 2.0857
 Frc consts  --      0.8542                 0.8763                 0.9944
 IR Inten    --      0.1230                22.3671                 7.2766

                     28                     29                     30
                      A                      A                      A
 Frequencies --    917.8235               941.9745               955.0852
 Red. masses --      1.6240                 1.6293                 1.4007
 Frc consts  --      0.8060                 0.8518                 0.7528
 IR Inten    --     76.9243                 7.1767                16.8321

                     31                     32                     33
                      A                      A                      A
 Frequencies --    974.3090               980.7455              1007.2531
 Red. masses --      1.6837                 1.8389                 1.5117
 Frc consts  --      0.9417                 1.0421                 0.9036
 IR Inten    --      1.2633                 1.2072                 3.8109

                     34                     35                     36
                      A                      A                      A
 Frequencies --   1015.9482              1039.7808              1065.0934
 Red. masses --      1.0759                 1.3813                 1.7093
 Frc consts  --      0.6543                 0.8799                 1.1425
 IR Inten    --     20.6336                 3.1475                 5.6011

                     37                     38                     39
                      A                      A                      A
 Frequencies --   1079.2388              1088.1119              1111.7520
 Red. masses --      1.5179                 1.7349                 1.9250
 Frc consts  --      1.0417                 1.2103                 1.4018
 IR Inten    --      0.1568                13.7379                 0.7254

                     40                     41                     42
                      A                      A                      A
 Frequencies --   1121.9728              1151.9029              1187.2906
 Red. masses --      2.7959                 1.6699                 1.3893
 Frc consts  --      2.0737                 1.3055                 1.1538
 IR Inten    --      1.8393                 2.8922                 6.1807

                     43                     44                     45
                      A                      A                      A
 Frequencies --   1197.6406              1247.0028              1281.8212
 Red. masses --      1.4814                 1.5322                 2.3927
 Frc consts  --      1.2519                 1.4038                 2.3163
 IR Inten    --      2.6984                10.8826                13.1374

                     46                     47                     48
                      A                      A                      A
 Frequencies --   1305.8126              1335.0770              1342.4634
 Red. masses --      1.4080                 1.5261                 1.2549
 Frc consts  --      1.4145                 1.6027                 1.3325
 IR Inten    --      4.9294                 8.0376                 0.8214

                     49                     50                     51
                      A                      A                      A
 Frequencies --   1354.0206              1360.8322              1383.5623
 Red. masses --      1.2878                 1.2003                 1.4503
 Frc consts  --      1.3911                 1.3096                 1.6357
 IR Inten    --      3.6828                 3.3213                 1.0146

                     52                     53                     54
                      A                      A                      A
 Frequencies --   1397.1229              1419.9332              1424.2429
 Red. masses --      1.4038                 1.4097                 1.3161
 Frc consts  --      1.6144                 1.6746                 1.5729
 IR Inten    --      5.8598                 6.4160                 7.1577

                     55                     56                     57
                      A                      A                      A
 Frequencies --   1428.1157              1442.5956              1446.4843
 Red. masses --      1.4332                 1.2664                 1.2447
 Frc consts  --      1.7222                 1.5528                 1.5344
 IR Inten    --      4.6534                 2.7852                 4.8830

                     58                     59                     60
                      A                      A                      A
 Frequencies --   1502.6237              1510.1996              1511.6027
 Red. masses --      1.0840                 1.0454                 1.0536
 Frc consts  --      1.4421                 1.4048                 1.4184
 IR Inten    --      2.6523                 5.3319                 0.3440

                     61                     62                     63
                      A                      A                      A
 Frequencies --   1518.0956              1523.5502              1524.3235
 Red. masses --      1.0592                 1.0556                 1.0668
 Frc consts  --      1.4382                 1.4436                 1.4604
 IR Inten    --      1.4751                 4.0647                 5.2559

                     64                     65                     66
                      A                      A                      A
 Frequencies --   1528.5272              1533.0005              1535.2761
 Red. masses --      1.0717                 1.0792                 1.0888
 Frc consts  --      1.4752                 1.4943                 1.5120
 IR Inten    --     12.9185                 1.0932                 6.6769

                     67                     68                     69
                      A                      A                      A
 Frequencies --   1543.5384              1699.1120              1761.3828
 Red. masses --      1.0664                 1.0913                 5.8080
 Frc consts  --      1.4970                 1.8562                10.6166
 IR Inten    --      2.9340                43.1079                 1.3575

                     70                     71                     72
                      A                      A                      A
 Frequencies --   3023.3853              3028.8151              3032.2888
 Red. masses --      1.0641                 1.0375                 1.0635
 Frc consts  --      5.7306                 5.6078                 5.7612
 IR Inten    --     45.6455                41.7113                 9.2614

                     73                     74                     75
                      A                      A                      A
 Frequencies --   3035.7062              3039.5862              3043.1110
 Red. masses --      1.0387                 1.0573                 1.0494
 Frc consts  --      5.6399                 5.7553                 5.7254
 IR Inten    --     17.9355                36.0621                25.3882

                     76                     77                     78
                      A                      A                      A
 Frequencies --   3047.8067              3059.8042              3070.6434
 Red. masses --      1.0552                 1.0937                 1.1021
 Frc consts  --      5.7748                 6.0333                 6.1226
 IR Inten    --     20.6663                39.1458                46.7437

                     79                     80                     81
                      A                      A                      A
 Frequencies --   3073.9761              3083.8236              3088.8118
 Red. masses --      1.1001                 1.1025                 1.0985
 Frc consts  --      6.1247                 6.1774                 6.1747
 IR Inten    --     29.8250                47.8570                44.7971

                     82                     83                     84
                      A                      A                      A
 Frequencies --   3099.9951              3109.2837              3111.4530
 Red. masses --      1.1015                 1.0986                 1.0977
 Frc consts  --      6.2368                 6.2575                 6.2610
 IR Inten    --     11.9403                57.8445                 7.6895

                     85                     86                     87
                      A                      A                      A
 Frequencies --   3111.6680              3131.6671              3132.1736
 Red. masses --      1.1012                 1.1029                 1.0920
 Frc consts  --      6.2823                 6.3729                 6.3120
 IR Inten    --     36.7424                30.2214                 5.6032

                     88                     89                     90
                      A                      A                      A
 Frequencies --   3139.3126              3457.0129              3549.6414
 Red. masses --      1.0867                 1.0519                 1.0887
 Frc consts  --      6.3102                 7.4066                 8.0825
 IR Inten    --     65.5095                 6.4423                 0.9355

 - Thermochemistry -
 -------------------
 Temperature   298.150 Kelvin.  Pressure   1.00000 Atm.
 Atom     1 has atomic number  6 and mass  12.00000

 Molecular mass:   155.16740 amu.
 Principal axes and moments of inertia in atomic units:
                           1         2         3
     Eigenvalues --   805.938034276.736384363.22399
           X            1.00000  -0.00245   0.00115
           Y            0.00254   0.99614  -0.08772
           Z           -0.00093   0.08773   0.99614
 This molecule is an asymmetric top.
 Rotational symmetry number  1.
 Warning -- assumption of classical behavior for rotation
           may cause significant error
 Rotational temperatures (Kelvin)      0.10747     0.02025     0.01985
 Rotational constants (GHZ):           2.23931     0.42199     0.41363
 Zero-point vibrational energy     783777.3 (Joules/Mol)
                                  187.32727 (Kcal/Mol)
 Warning -- explicit consideration of  21 degrees of freedom as
           vibrations may cause significant error
 Vibrational temperatures:     57.51    69.07    95.32   151.83   197.65
          (Kelvin)            277.33   302.62   320.38   351.69   401.74
                              409.06   444.23   474.14   507.39   522.41
                              569.27   610.31   642.66   687.31   737.73
                              817.99  1014.03  1112.40  1143.39  1171.08
                             1258.33  1294.25  1320.54  1355.29  1374.15
                             1401.81  1411.07  1449.21  1461.72  1496.01
                             1532.43  1552.78  1565.55  1599.56  1614.27
                             1657.33  1708.25  1723.14  1794.16  1844.25
                             1878.77  1920.88  1931.51  1948.13  1957.93
                             1990.64  2010.15  2042.97  2049.17  2054.74
                             2075.57  2081.17  2161.94  2172.84  2174.86
                             2184.20  2192.05  2193.16  2199.21  2205.65
                             2208.92  2220.81  2444.64  2534.24  4349.98
                             4357.79  4362.79  4367.70  4373.29  4378.36
                             4385.11  4402.38  4417.97  4422.77  4436.93
                             4444.11  4460.20  4473.57  4476.69  4477.00
                             4505.77  4506.50  4516.77  4973.87  5107.14

 Zero-point correction=                           0.298525 (Hartree/Particle)
 Thermal correction to Energy=                    0.312409
 Thermal correction to Enthalpy=                  0.313354
 Thermal correction to Gibbs Free Energy=         0.258213
 Sum of electronic and zero-point Energies=           -448.199093
 Sum of electronic and thermal Energies=              -448.185208
 Sum of electronic and thermal Enthalpies=            -448.184264
 Sum of electronic and thermal Free Energies=         -448.239404

                     E (Thermal)             CV                S
                      KCal/Mol        Cal/Mol-Kelvin    Cal/Mol-Kelvin
 Total                  196.040             52.284            116.052
 Electronic               0.000              0.000              0.000
 Translational            0.889              2.981             41.028
 Rotational               0.889              2.981             31.087
 Vibrational            194.262             46.323             43.938
 Vibration     1          0.594              1.981              5.261
 Vibration     2          0.595              1.978              4.898
 Vibration     3          0.598              1.970              4.262
 Vibration     4          0.605              1.945              3.350
 Vibration     5          0.614              1.916              2.840
 Vibration     6          0.635              1.850              2.201
 Vibration     7          0.642              1.825              2.041
 Vibration     8          0.648              1.807              1.937
 Vibration     9          0.660              1.772              1.770
 Vibration    10          0.680              1.712              1.538
 Vibration    11          0.683              1.703              1.508
 Vibration    12          0.698              1.657              1.369
 Vibration    13          0.712              1.616              1.262
 Vibration    14          0.729              1.570              1.154
 Vibration    15          0.737              1.548              1.109
 Vibration    16          0.762              1.479              0.979
 Vibration    17          0.786              1.418              0.878
 Vibration    18          0.806              1.368              0.806
 Vibration    19          0.834              1.300              0.716
 Vibration    20          0.868              1.222              0.627
 Vibration    21          0.925              1.099              0.507

 Optimization completed.
    -- Stationary point found.
 Normal termination of Gaussian 16 at Tue Dec  8 21:11:47 2020.

 ----------------------------------------------------------------------
 # B3LYP/6-311++G(d,p) empiricaldispersion=gd3bj scf=xqc pop=npa geom=c
 heck
 ----------------------------------------------------------------------

 --------------------------------------
 CID_89390219_JID_1778_Energie_neutraal
 --------------------------------------
 Structure from the checkpoint file:  "JID_1778.chk"
 Charge =  0 Multiplicity = 1

 SCF Done:  E(RB3LYP) =  -448.632354659     A.U. after   13 cycles
 Normal termination of Gaussian 16 at Tue Dec  8 21:14:56 2020.

 ----------------------------------------------------------------------
 # B3LYP/6-311++G(d,p) empiricaldispersion=gd3bj scf=xqc pop=npa geom=c
 heck
 ----------------------------------------------------------------------

 ------------------------------------
 CID_89390219_JID_1778_Energie_kation
 ------------------------------------
 Structure from the checkpoint file:  "JID_1778.chk"
 Charge =  1 Multiplicity = 2

 SCF Done:  E(UB3LYP) =  -448.327692228     A.U. after   20 cycles
 Normal termination of Gaussian 16 at Tue Dec  8 21:21:31 2020.
 Gaussian 16:  ES64L-G16RevA.03 25-Dec-2016

 ----------------------------------------------------------------------
 # B3LYP/6-311++G(d,p) empiricaldispersion=gd3bj scf=xqc pop=npa geom=c
 heck
 ----------------------------------------------------------------------

 -----------------------------------
 CID_89390219_JID_1778_Energie_anion
 -----------------------------------
 Structure from the checkpoint file:  "JID_1778.chk"
 Charge = -1 Multiplicity = 2

                         Standard orientation:
 ---------------------------------------------------------------------
 Center     Atomic      Atomic             Coordinates (Angstroms)
 Number     Number       Type             X           Y           Z
 ---------------------------------------------------------------------
      1          6           0       -4.760016    0.842913   -0.345291
      2          6           0       -3.701435    0.007486    0.314331
      3          6           0       -2.386946    0.227572    0.235103
      4          6           0       -1.329268   -0.619681    0.886006
      5          6           0       -0.497963   -1.439161   -0.123723
      6          6           0        0.203535   -0.614143   -1.215431
      7          6           0        1.079874    0.569783   -0.768578
      8          6           0        2.350946    0.286260    0.068201
      9          6           0        3.205344   -0.823044   -0.573452
     10          6           0        3.169999    1.583570    0.142200
     11          7           0        1.961476   -0.037697    1.458737
     12          1           0       -4.319881    1.668328   -0.915251
     13          1           0       -5.450387    1.271632    0.393868
     14          1           0       -5.371124    0.243404   -1.033772
     15          1           0       -4.055293   -0.840368    0.904557
     16          1           0       -2.036867    1.077424   -0.353455
     17          1           0       -0.648858    0.013588    1.469410
     18          1           0       -1.803612   -1.312832    1.592476
     19          1           0        0.236031   -2.043896    0.427123
     20          1           0       -1.161949   -2.159639   -0.619173
     21          1           0        0.797262   -1.293875   -1.839712
     22          1           0       -0.569128   -0.206904   -1.880379
     23          1           0        1.402108    1.087082   -1.682304
     24          1           0        0.475833    1.289359   -0.203562
     25          1           0        3.460801   -0.588370   -1.614321
     26          1           0        4.143063   -0.951511   -0.018993
     27          1           0        2.679695   -1.784415   -0.567011
     28          1           0        2.572804    2.385941    0.587053
     29          1           0        4.066218    1.443778    0.760300
     30          1           0        3.497517    1.899444   -0.853954
     31          1           0        1.545058   -0.966043    1.490882
     32          1           0        2.805955   -0.097581    2.028857
 ---------------------------------------------------------------------

 SCF Done:  E(UB3LYP) =  -448.616693770     A.U. after   30 cycles

 The electronic state is 2-A.
 Alpha  occ. eigenvalues --  -14.18447 -10.10261 -10.07185 -10.07121 -10.06728
 Alpha  occ. eigenvalues --  -10.06508 -10.06373 -10.06188 -10.05842 -10.05375
 Alpha  occ. eigenvalues --  -10.05098  -0.78930  -0.71373  -0.68384  -0.65867
 Alpha  occ. eigenvalues --   -0.62271  -0.58496  -0.58043  -0.53587  -0.48360
 Alpha  occ. eigenvalues --   -0.44965  -0.43188  -0.39079  -0.37530  -0.35700
 Alpha  occ. eigenvalues --   -0.35174  -0.33535  -0.32955  -0.31916  -0.31511
 Alpha  occ. eigenvalues --   -0.30713  -0.28761  -0.28038  -0.27423  -0.26820
 Alpha  occ. eigenvalues --   -0.26369  -0.25685  -0.24433  -0.23442  -0.22083
 Alpha  occ. eigenvalues --   -0.21634  -0.20546  -0.14957  -0.14006   0.04477
 Alpha virt. eigenvalues --    0.06030   0.07399   0.07787   0.08586   0.08901
 Alpha virt. eigenvalues --    0.09073   0.10003   0.10169   0.10599   0.10784
 Alpha virt. eigenvalues --    0.11083   0.11586   0.12405   0.12863   0.13265

  Beta  occ. eigenvalues --  -14.18414 -10.10259 -10.07159 -10.07106 -10.06725
  Beta  occ. eigenvalues --  -10.06489 -10.06365 -10.06174 -10.05829 -10.05346
  Beta  occ. eigenvalues --  -10.05054  -0.78882  -0.71348  -0.68348  -0.65820
  Beta  occ. eigenvalues --   -0.62234  -0.58425  -0.57996  -0.53543  -0.48303
  Beta  occ. eigenvalues --   -0.44916  -0.43129  -0.39039  -0.37492  -0.35665
  Beta  occ. eigenvalues --   -0.35139  -0.33506  -0.32912  -0.31880  -0.31475
  Beta  occ. eigenvalues --   -0.30668  -0.28724  -0.28008  -0.27392  -0.26786
  Beta  occ. eigenvalues --   -0.26330  -0.25654  -0.24400  -0.23409  -0.22054
  Beta  occ. eigenvalues --   -0.21601  -0.20513  -0.14925  -0.13967
  Beta virt. eigenvalues --    0.06458   0.07030   0.07881   0.08363   0.09086
  Beta virt. eigenvalues --    0.09377   0.09554   0.10209   0.10582   0.10924
  Beta virt. eigenvalues --    0.11110   0.11348   0.11925   0.12706   0.13189

 Mulliken charges and spin densities:
               1          2
     1  C    1.109081  -1.866254
     2  C   -0.205788  -0.049777
     3  C   -0.106483   0.274081
     4  C   -0.704287   0.555228
     5  C    0.271569  -0.516383
     6  C   -0.017299  -0.394944
     7  C    1.040373  -1.316535
     8  C   -1.942208   2.075051
     9  C    1.366915  -2.057026
    10  C    0.638710  -1.130363
    11  N   -0.337513   0.087738
    12  H   -0.225296   0.361309
    13  H   -0.146423   0.277088
    14  H   -0.203201   0.346895
    15  H   -0.179461   0.304707
    16  H    0.243140  -0.142587
    17  H    0.124878   0.053343
    18  H   -0.101949   0.262409
    19  H   -0.289530   0.423560
    20  H   -0.044002   0.197587
    21  H   -0.028659   0.188525
    22  H   -0.001411   0.162917
    23  H   -0.144073   0.318372
    24  H   -0.078359   0.241338
    25  H   -0.278713   0.434241
    26  H   -0.410508   0.557292
    27  H   -0.059422   0.187911
    28  H    0.028265   0.125527
    29  H   -0.244988   0.377204
    30  H   -0.117284   0.252860
    31  H    0.056432   0.150884
    32  H   -0.012507   0.257802
 Sum of Mulliken charges =  -1.00000   1.00000

 Dipole moment (field-independent basis, Debye):
    X=             -1.6714    Y=              0.5448    Z=              0.2031  Tot=              1.7697
 Quadrupole moment (field-independent basis, Debye-Ang):
   XX=           -166.9424   YY=           -107.2761   ZZ=           -109.1416
   XY=              3.9293   XZ=             -3.3628   YZ=              0.5669

 Summary of Natural Population Analysis:

                                       Natural Population
                Natural  -----------------------------------------------
    Atom  No    Charge         Core      Valence    Rydberg      Total
 -----------------------------------------------------------------------
      C    1   -0.29709      0.99965     2.29253    0.00490     3.29709
      C    2   -0.09121      0.99952     2.08350    0.00819     3.09121
      C    3   -0.08974      0.99950     2.08122    0.00902     3.08974
      C    4   -0.21274      0.99961     2.20372    0.00941     3.21274
      C    5   -0.18397      0.99962     2.17616    0.00818     3.18397
      C    6   -0.19346      0.99962     2.18517    0.00867     3.19346
      C    7   -0.19224      0.99957     2.18235    0.01032     3.19224
      C    8    0.04732      0.99959     1.93973    0.01336     2.95268
      C    9   -0.29469      0.99962     2.28761    0.00746     3.29469
      C   10   -0.28438      0.99962     2.27720    0.00756     3.28438
      N   11   -0.42710      0.99975     2.91634    0.01101     3.92710
      H   12    0.09913      0.00000     0.39953    0.00134     0.40087
      H   13    0.09883      0.00000     0.39962    0.00156     0.40117
      H   14    0.10090      0.00000     0.39719    0.00191     0.39910
      H   15    0.08761      0.00000     0.41108    0.00131     0.41239
      H   16    0.08972      0.00000     0.40890    0.00138     0.41028
      H   17    0.11135      0.00000     0.38681    0.00184     0.38865
      H   18    0.09723      0.00000     0.40153    0.00124     0.40277
      H   19    0.09105      0.00000     0.40736    0.00158     0.40895
      H   20    0.09696      0.00000     0.40181    0.00123     0.40304
      H   21    0.09895      0.00000     0.39980    0.00125     0.40105
      H   22    0.09773      0.00000     0.40104    0.00123     0.40227
      H   23    0.10005      0.00000     0.39878    0.00117     0.39995
      H   24    0.09980      0.00000     0.39851    0.00169     0.40020
      H   25    0.10045      0.00000     0.39823    0.00132     0.39955
      H   26    0.10087      0.00000     0.39734    0.00178     0.39913
      H   27    0.09962      0.00000     0.39888    0.00149     0.40038
      H   28    0.10206      0.00000     0.39691    0.00103     0.39794
      H   29    0.09809      0.00000     0.40086    0.00105     0.40191
      H   30    0.10031      0.00000     0.39861    0.00108     0.39969
      H   31    0.17434      0.00000     0.32329    0.00237     0.32566
      H   32    0.17426      0.00000     0.32369    0.00205     0.32574
 =======================================================================
   * Total *    0.00000     10.99567    32.87533    0.12900    44.00000

 Normal termination of Gaussian 16 at Tue Dec  8 21:31:58 2020.
