 Gaussian 16, Revision A.03,

 -----------------------------------------------------------
 # opt freq B3LYP/6-31G(d) empiricaldispersion=gd3bj scf=xqc
 -----------------------------------------------------------

 ------------------------------
 CID_84022858_JID_3576_neutraal
 ------------------------------
 Symbolic Z-matrix:
 Charge =  0 Multiplicity = 1

 SCF Done:  E(RB3LYP) =  -577.839408205     A.U. after   14 cycles
 SCF Done:  E(RB3LYP) =  -577.842736972     A.U. after   13 cycles
 SCF Done:  E(RB3LYP) =  -577.838978559     A.U. after   12 cycles
 SCF Done:  E(RB3LYP) =  -577.843656230     A.U. after   12 cycles
 SCF Done:  E(RB3LYP) =  -577.843754546     A.U. after   12 cycles
 SCF Done:  E(RB3LYP) =  -577.843913514     A.U. after   11 cycles
 SCF Done:  E(RB3LYP) =  -577.844002080     A.U. after   12 cycles
 SCF Done:  E(RB3LYP) =  -577.844063096     A.U. after   12 cycles
 SCF Done:  E(RB3LYP) =  -577.844108652     A.U. after   12 cycles
 SCF Done:  E(RB3LYP) =  -577.844211262     A.U. after   12 cycles
 SCF Done:  E(RB3LYP) =  -577.851093894     A.U. after    9 cycles
 SCF Done:  E(RB3LYP) =  -577.851097125     A.U. after   10 cycles
 SCF Done:  E(RB3LYP) =  -577.851100415     A.U. after    9 cycles
 SCF Done:  E(RB3LYP) =  -577.851100718     A.U. after    7 cycles
 SCF Done:  E(RB3LYP) =  -577.851100776     A.U. after    6 cycles
 Optimization completed.
    -- Stationary point found.
 Normal termination of Gaussian 16 at Mon Dec 14 16:41:39 2020.

 --------------------------------------------------------------------
 #N Geom=AllCheck Guess=TCheck SCRF=Check GenChk RB3LYP/6-31G(d) Freq
 --------------------------------------------------------------------

 Structure from the checkpoint file:  "JID_3576.chk"
 ------------------------------
 CID_84022858_JID_3576_neutraal
 ------------------------------
 Charge =  0 Multiplicity = 1

 SCF Done:  E(RB3LYP) =  -577.851100776     A.U. after    1 cycles

  Exact polarizability: 138.927   0.840 114.539   1.198  -1.897 107.368
 Approx polarizability: 161.290   2.633 165.793  -1.876  -8.572 170.959

                      1                      2                      3
                      A                      A                      A
 Frequencies --     20.6040                38.2482                75.7781
 Red. masses --      4.7280                 3.7983                 5.2423
 Frc consts  --      0.0012                 0.0033                 0.0177
 IR Inten    --      1.6765                 0.4751                 1.7219

                      4                      5                      6
                      A                      A                      A
 Frequencies --    107.8276               132.7048               147.9587
 Red. masses --      2.6027                 2.4677                 2.7961
 Frc consts  --      0.0178                 0.0256                 0.0361
 IR Inten    --      1.0373                 0.3843                 5.9407

                      7                      8                      9
                      A                      A                      A
 Frequencies --    202.4294               219.2929               251.3325
 Red. masses --      2.2758                 1.0617                 1.2263
 Frc consts  --      0.0549                 0.0301                 0.0456
 IR Inten    --      4.1010                 0.5913                 0.7276

                     10                     11                     12
                      A                      A                      A
 Frequencies --    264.6029               290.3099               311.3761
 Red. masses --      2.7386                 3.0107                 2.0877
 Frc consts  --      0.1130                 0.1495                 0.1193
 IR Inten    --      1.0817                 2.0894                 4.3303

                     13                     14                     15
                      A                      A                      A
 Frequencies --    339.6329               348.3096               354.3084
 Red. masses --      1.9988                 2.4815                 2.3087
 Frc consts  --      0.1358                 0.1774                 0.1708
 IR Inten    --      0.3013                 1.5908                 6.2872

                     16                     17                     18
                      A                      A                      A
 Frequencies --    375.2139               416.9896               440.8640
 Red. masses --      2.0780                 2.6756                 2.4921
 Frc consts  --      0.1724                 0.2741                 0.2854
 IR Inten    --      2.5880                 2.3672                 1.8503

                     19                     20                     21
                      A                      A                      A
 Frequencies --    469.5906               542.5852               565.0051
 Red. masses --      2.6323                 2.2734                 2.8148
 Frc consts  --      0.3420                 0.3943                 0.5294
 IR Inten    --      4.4712                 2.2323                 1.8046

                     22                     23                     24
                      A                      A                      A
 Frequencies --    574.0660               729.6072               815.9674
 Red. masses --      2.6549                 2.5836                 3.4564
 Frc consts  --      0.5155                 0.8103                 1.3559
 IR Inten    --      6.8050                 9.4709                10.0338

                     25                     26                     27
                      A                      A                      A
 Frequencies --    848.6693               869.9977               916.0372
 Red. masses --      1.8774                 2.1587                 1.5499
 Frc consts  --      0.7967                 0.9627                 0.7663
 IR Inten    --     13.1037                 3.1248                 1.7753

                     28                     29                     30
                      A                      A                      A
 Frequencies --    938.1072               942.1908               968.6376
 Red. masses --      1.4094                 1.6260                 2.5457
 Frc consts  --      0.7308                 0.8504                 1.4073
 IR Inten    --      8.3974                 9.1608                 4.0290

                     31                     32                     33
                      A                      A                      A
 Frequencies --    983.9384               988.9937              1012.0579
 Red. masses --      1.9921                 2.1043                 2.1943
 Frc consts  --      1.1363                 1.2127                 1.3242
 IR Inten    --      0.7068                11.4757                12.1051

                     34                     35                     36
                      A                      A                      A
 Frequencies --   1060.8632              1069.4687              1100.1712
 Red. masses --      2.0036                 2.3458                 2.7792
 Frc consts  --      1.3285                 1.5808                 1.9820
 IR Inten    --     14.2248                 2.2553                 9.6102

                     37                     38                     39
                      A                      A                      A
 Frequencies --   1106.9199              1128.8521              1131.7459
 Red. masses --      2.1487                 1.7206                 2.4076
 Frc consts  --      1.5512                 1.2918                 1.8169
 IR Inten    --     21.6400                11.7710                17.8222

                     40                     41                     42
                      A                      A                      A
 Frequencies --   1163.1869              1172.1703              1175.6597
 Red. masses --      1.8864                 1.5757                 1.8588
 Frc consts  --      1.5038                 1.2756                 1.5137
 IR Inten    --     40.4785                 6.2664                23.0433

                     43                     44                     45
                      A                      A                      A
 Frequencies --   1179.4843              1214.6799              1250.4088
 Red. masses --      2.3915                 1.9113                 1.3540
 Frc consts  --      1.9602                 1.6615                 1.2473
 IR Inten    --     17.9408                10.0770                 3.7543

                     46                     47                     48
                      A                      A                      A
 Frequencies --   1257.7610              1282.4729              1313.3142
 Red. masses --      1.5949                 1.4284                 1.7444
 Frc consts  --      1.4866                 1.3842                 1.7727
 IR Inten    --      7.9469                 6.8952                25.5502

                     49                     50                     51
                      A                      A                      A
 Frequencies --   1328.3520              1353.2047              1353.9219
 Red. masses --      1.2742                 1.3120                 1.3209
 Frc consts  --      1.3247                 1.4155                 1.4266
 IR Inten    --     14.1834                 9.6066                 6.2989

                     52                     53                     54
                      A                      A                      A
 Frequencies --   1362.3312              1374.7887              1389.1128
 Red. masses --      1.4820                 1.2459                 1.2791
 Frc consts  --      1.6205                 1.3874                 1.4542
 IR Inten    --     10.7379                 6.8655                 2.2189

                     55                     56                     57
                      A                      A                      A
 Frequencies --   1404.9354              1415.2698              1425.4785
 Red. masses --      1.3579                 1.3427                 1.3718
 Frc consts  --      1.5792                 1.5846                 1.6423
 IR Inten    --      8.5609                18.8830                10.6867

                     58                     59                     60
                      A                      A                      A
 Frequencies --   1429.7147              1438.5215              1443.4409
 Red. masses --      1.2116                 1.3062                 1.3640
 Frc consts  --      1.4591                 1.5926                 1.6744
 IR Inten    --      2.0702                17.2230                12.6977

                     61                     62                     63
                      A                      A                      A
 Frequencies --   1460.6518              1486.6645              1503.5454
 Red. masses --      1.3991                 1.1927                 1.0913
 Frc consts  --      1.7587                 1.5531                 1.4535
 IR Inten    --      0.9751                 1.1099                 6.9607

                     64                     65                     66
                      A                      A                      A
 Frequencies --   1514.3445              1516.8870              1522.4471
 Red. masses --      1.0844                 1.0490                 1.0752
 Frc consts  --      1.4652                 1.4221                 1.4683
 IR Inten    --      1.4837                18.5227                 0.3842

                     67                     68                     69
                      A                      A                      A
 Frequencies --   1529.5180              1530.1089              1530.9263
 Red. masses --      1.0809                 1.0576                 1.0604
 Frc consts  --      1.4899                 1.4588                 1.4643
 IR Inten    --      5.4119                11.6762                 4.7134

                     70                     71                     72
                      A                      A                      A
 Frequencies --   1536.3677              1538.9457              1552.0114
 Red. masses --      1.1015                 1.0639                 1.0858
 Frc consts  --      1.5319                 1.4846                 1.5410
 IR Inten    --      7.5272                 3.2044                 5.1043

                     73                     74                     75
                      A                      A                      A
 Frequencies --   1836.3651              2887.5528              2888.9102
 Red. masses --      9.9478                 1.0742                 1.0831
 Frc consts  --     19.7649                 5.2772                 5.3257
 IR Inten    --    167.3670                34.6727               104.2996

                     76                     77                     78
                      A                      A                      A
 Frequencies --   2911.7878              2925.1154              2933.6668
 Red. masses --      1.0723                 1.0729                 1.0672
 Frc consts  --      5.3567                 5.4089                 5.4116
 IR Inten    --     33.5585                21.0595                13.6480

                     79                     80                     81
                      A                      A                      A
 Frequencies --   2938.6224              3035.2248              3046.2790
 Red. masses --      1.0702                 1.0842                 1.0547
 Frc consts  --      5.4449                 5.8851                 5.7668
 IR Inten    --    247.1860                24.9048                 9.4341

                     82                     83                     84
                      A                      A                      A
 Frequencies --   3049.4527              3055.3137              3068.0625
 Red. masses --      1.0664                 1.0739                 1.0778
 Frc consts  --      5.8425                 5.9064                 5.9775
 IR Inten    --     41.0600                23.9916                53.5492

                     85                     86                     87
                      A                      A                      A
 Frequencies --   3069.6424              3075.9767              3079.5413
 Red. masses --      1.0772                 1.0718                 1.0785
 Frc consts  --      5.9805                 5.9747                 6.0264
 IR Inten    --     23.3497                16.9055                56.2173

                     88                     89                     90
                      A                      A                      A
 Frequencies --   3084.5132              3104.3966              3113.4920
 Red. masses --      1.0863                 1.0983                 1.1006
 Frc consts  --      6.0892                 6.2361                 6.2863
 IR Inten    --     20.9697                34.2050                31.3229

                     91                     92                     93
                      A                      A                      A
 Frequencies --   3121.1130              3130.7652              3132.5365
 Red. masses --      1.1039                 1.1017                 1.0966
 Frc consts  --      6.3356                 6.3621                 6.3402
 IR Inten    --     32.8460                 9.7586                40.7300

 - Thermochemistry -
 -------------------
 Temperature   298.150 Kelvin.  Pressure   1.00000 Atm.
 Atom     1 has atomic number  6 and mass  12.00000

 Molecular mass:   184.15756 amu.
 Principal axes and moments of inertia in atomic units:
                           1         2         3
     Eigenvalues --  1167.744794737.637804886.11387
           X            0.99987  -0.00420   0.01576
           Y            0.00338   0.99865   0.05191
           Z           -0.01595  -0.05185   0.99853
 This molecule is an asymmetric top.
 Rotational symmetry number  1.
 Warning -- assumption of classical behavior for rotation
           may cause significant error
 Rotational temperatures (Kelvin)      0.07417     0.01828     0.01773
 Rotational constants (GHZ):           1.54549     0.38094     0.36936
 Zero-point vibrational energy     786785.2 (Joules/Mol)
                                  188.04618 (Kcal/Mol)
 Warning -- explicit consideration of  22 degrees of freedom as
           vibrations may cause significant error
 Vibrational temperatures:     29.64    55.03   109.03   155.14   190.93
          (Kelvin)            212.88   291.25   315.51   361.61   380.70
                              417.69   448.00   488.66   501.14   509.77
                              539.85   599.96   634.30   675.64   780.66
                              812.92   825.95  1049.74  1174.00  1221.05
                             1251.73  1317.97  1349.73  1355.60  1393.65
                             1415.67  1422.94  1456.13  1526.35  1538.73
                             1582.90  1592.61  1624.17  1628.33  1673.57
                             1686.49  1691.51  1697.01  1747.65  1799.06
                             1809.64  1845.19  1889.57  1911.20  1946.96
                             1947.99  1960.09  1978.01  1998.62  2021.39
                             2036.26  2050.95  2057.04  2069.71  2076.79
                             2101.55  2138.98  2163.27  2178.80  2182.46
                             2190.46  2200.64  2201.49  2202.66  2210.49
                             2214.20  2233.00  2642.12  4154.54  4156.50
                             4189.41  4208.59  4220.89  4228.02  4367.01
                             4382.92  4387.48  4395.91  4414.26  4416.53
                             4425.64  4430.77  4437.93  4466.53  4479.62
                             4490.59  4504.47  4507.02

 Zero-point correction=                           0.299671 (Hartree/Particle)
 Thermal correction to Energy=                    0.313789
 Thermal correction to Enthalpy=                  0.314733
 Thermal correction to Gibbs Free Energy=         0.257925
 Sum of electronic and zero-point Energies=           -577.551430
 Sum of electronic and thermal Energies=              -577.537312
 Sum of electronic and thermal Enthalpies=            -577.536368
 Sum of electronic and thermal Free Energies=         -577.593176

                     E (Thermal)             CV                S
                      KCal/Mol        Cal/Mol-Kelvin    Cal/Mol-Kelvin
 Total                  196.905             52.947            119.563
 Electronic               0.000              0.000              0.000
 Translational            0.889              2.981             41.538
 Rotational               0.889              2.981             31.669
 Vibrational            195.128             46.986             46.355
 Vibration     1          0.593              1.986              6.575
 Vibration     2          0.594              1.982              5.348
 Vibration     3          0.599              1.965              3.997
 Vibration     4          0.606              1.943              3.308
 Vibration     5          0.613              1.921              2.906
 Vibration     6          0.617              1.905              2.698
 Vibration     7          0.639              1.836              2.111
 Vibration     8          0.647              1.812              1.965
 Vibration     9          0.663              1.761              1.721
 Vibration    10          0.671              1.738              1.631
 Vibration    11          0.686              1.692              1.472
 Vibration    12          0.700              1.652              1.355
 Vibration    13          0.720              1.596              1.214
 Vibration    14          0.726              1.579              1.174
 Vibration    15          0.730              1.566              1.147
 Vibration    16          0.746              1.523              1.058
 Vibration    17          0.780              1.433              0.902
 Vibration    18          0.801              1.381              0.824
 Vibration    19          0.827              1.318              0.739
 Vibration    20          0.898              1.156              0.560
 Vibration    21          0.921              1.107              0.514
 Vibration    22          0.930              1.087              0.496

 Optimization completed.
    -- Stationary point found.
 Normal termination of Gaussian 16 at Mon Dec 14 16:50:27 2020.

 ----------------------------------------------------------------------
 # B3LYP/6-311++G(d,p) empiricaldispersion=gd3bj scf=xqc pop=npa geom=c
 heck
 ----------------------------------------------------------------------

 --------------------------------------
 CID_84022858_JID_3576_Energie_neutraal
 --------------------------------------
 Structure from the checkpoint file:  "JID_3576.chk"
 Charge =  0 Multiplicity = 1

 SCF Done:  E(RB3LYP) =  -578.016077271     A.U. after   14 cycles
 Normal termination of Gaussian 16 at Mon Dec 14 16:54:45 2020.

 ----------------------------------------------------------------------
 # B3LYP/6-311++G(d,p) empiricaldispersion=gd3bj scf=xqc pop=npa geom=c
 heck
 ----------------------------------------------------------------------

 ------------------------------------
 CID_84022858_JID_3576_Energie_kation
 ------------------------------------
 Structure from the checkpoint file:  "JID_3576.chk"
 Charge =  1 Multiplicity = 2

 SCF Done:  E(UB3LYP) =  -577.736628839     A.U. after   21 cycles
 Normal termination of Gaussian 16 at Mon Dec 14 17:03:54 2020.
 Gaussian 16:  ES64L-G16RevA.03 25-Dec-2016

 ----------------------------------------------------------------------
 # B3LYP/6-311++G(d,p) empiricaldispersion=gd3bj scf=xqc pop=npa geom=c
 heck
 ----------------------------------------------------------------------

 -----------------------------------
 CID_84022858_JID_3576_Energie_anion
 -----------------------------------
 Structure from the checkpoint file:  "JID_3576.chk"
 Charge = -1 Multiplicity = 2

                         Standard orientation:
 ---------------------------------------------------------------------
 Center     Atomic      Atomic             Coordinates (Angstroms)
 Number     Number       Type             X           Y           Z
 ---------------------------------------------------------------------
      1          6           0       -3.776733   -0.475095   -1.376792
      2          6           0       -2.598042   -0.481344   -0.389112
      3          6           0       -1.380672    0.247610   -0.972652
      4          7           0       -0.366207    0.532265    0.036942
      5          6           0        0.513044    1.614550   -0.412716
      6          6           0        1.816511    1.760131    0.376221
      7          6           0        2.941933    0.821384   -0.073843
      8          7           0        2.780802   -0.578799    0.303241
      9          6           0        1.534946   -1.183975   -0.167126
     10          6           0        0.305843   -0.647287    0.586900
     11          6           0        3.938984   -1.348860   -0.125419
     12          6           0       -2.997304    0.214017    0.899257
     13          8           0       -3.215229   -0.348284    1.948777
     14          1           0       -4.127181    0.546948   -1.566553
     15          1           0       -4.618214   -1.056945   -0.988384
     16          1           0       -3.475598   -0.908158   -2.337114
     17          1           0       -2.356257   -1.517782   -0.132419
     18          1           0       -1.721194    1.216919   -1.360852
     19          1           0       -0.988444   -0.310037   -1.845792
     20          1           0        0.781324    1.492953   -1.480510
     21          1           0       -0.060961    2.548780   -0.348170
     22          1           0        1.635036    1.657885    1.451662
     23          1           0        2.177465    2.783409    0.216122
     24          1           0        3.883608    1.165548    0.370971
     25          1           0        3.056882    0.928661   -1.174248
     26          1           0        1.613068   -2.259029    0.030089
     27          1           0        1.400691   -1.075741   -1.263269
     28          1           0        0.625116   -0.435031    1.612776
     29          1           0       -0.442261   -1.439171    0.663400
     30          1           0        4.066620   -1.372698   -1.226121
     31          1           0        4.848108   -0.917828    0.307791
     32          1           0        3.849556   -2.381232    0.228421
     33          1           0       -3.118757    1.317783    0.802381
 ---------------------------------------------------------------------

 SCF Done:  E(UB3LYP) =  -578.003795030     A.U. after   33 cycles
 SCF Done:  E(UB3LYP) =  -578.003795030     a.u. after    1 cycles

 The electronic state is 2-A.
 Alpha  occ. eigenvalues --  -19.01240 -14.20926 -14.20585 -10.14785 -10.09818
 Alpha  occ. eigenvalues --  -10.09581 -10.09562 -10.09397 -10.09151 -10.09118
 Alpha  occ. eigenvalues --  -10.08151 -10.07437 -10.07041  -0.94231  -0.84073
 Alpha  occ. eigenvalues --   -0.81846  -0.70683  -0.68291  -0.64326  -0.59904
 Alpha  occ. eigenvalues --   -0.57514  -0.56114  -0.53344  -0.47878  -0.47297
 Alpha  occ. eigenvalues --   -0.45665  -0.40675  -0.39788  -0.37857  -0.37164
 Alpha  occ. eigenvalues --   -0.36465  -0.35085  -0.34747  -0.33179  -0.32066
 Alpha  occ. eigenvalues --   -0.30948  -0.30350  -0.30005  -0.29511  -0.28511
 Alpha  occ. eigenvalues --   -0.27621  -0.27227  -0.26618  -0.25380  -0.25159
 Alpha  occ. eigenvalues --   -0.24156  -0.23370  -0.22919  -0.15048  -0.12837
 Alpha  occ. eigenvalues --   -0.11265   0.04291
 Alpha virt. eigenvalues --    0.05913   0.06801   0.07401   0.08239   0.08301
 Alpha virt. eigenvalues --    0.08440   0.09809   0.10266   0.10481   0.10877
 Alpha virt. eigenvalues --    0.11056   0.12004   0.12158   0.12981   0.13206

  Beta  occ. eigenvalues --  -19.01146 -14.20914 -14.20584 -10.14702 -10.09795
  Beta  occ. eigenvalues --  -10.09569 -10.09541 -10.09379 -10.09145 -10.09091
  Beta  occ. eigenvalues --  -10.08152 -10.07426 -10.06984  -0.94055  -0.84053
  Beta  occ. eigenvalues --   -0.81824  -0.70630  -0.68260  -0.64292  -0.59853
  Beta  occ. eigenvalues --   -0.57464  -0.56032  -0.53211  -0.47796  -0.47232
  Beta  occ. eigenvalues --   -0.45598  -0.40634  -0.39759  -0.37825  -0.37104
  Beta  occ. eigenvalues --   -0.36418  -0.35006  -0.34654  -0.33075  -0.32030
  Beta  occ. eigenvalues --   -0.30905  -0.30300  -0.29883  -0.29467  -0.28469
  Beta  occ. eigenvalues --   -0.27485  -0.27148  -0.26527  -0.25213  -0.25133
  Beta  occ. eigenvalues --   -0.24117  -0.23340  -0.22868  -0.14966  -0.12781
  Beta  occ. eigenvalues --   -0.11246
  Beta virt. eigenvalues --    0.06464   0.07033   0.07406   0.08164   0.08570
  Beta virt. eigenvalues --    0.08785   0.09046   0.10240   0.10567   0.10869
  Beta virt. eigenvalues --    0.11160   0.11303   0.12243   0.12566   0.13270

 Mulliken charges and spin densities:
               1          2
     1  C    1.372113  -2.061482
     2  C   -1.271977   1.732878
     3  C    0.349733  -1.082222
     4  N    0.228415   0.087080
     5  C    0.303401  -0.478454
     6  C   -0.817741   0.327682
     7  C    0.707972  -1.005571
     8  N   -0.035960   0.201674
     9  C   -0.248365  -0.312565
    10  C   -0.345755   0.011014
    11  C    0.510832  -0.772314
    12  C    0.006868  -0.140401
    13  O   -0.236052   0.032243
    14  H   -0.243649   0.381573
    15  H   -0.057416   0.210571
    16  H   -0.558556   0.722818
    17  H   -0.023526   0.222153
    18  H   -0.050045   0.238378
    19  H    0.106081   0.013430
    20  H   -0.168680   0.303751
    21  H   -0.020499   0.159449
    22  H    0.208677  -0.050870
    23  H   -0.330811   0.510948
    24  H   -0.161667   0.324249
    25  H   -0.002214   0.111606
    26  H   -0.062148   0.225827
    27  H   -0.022098   0.163501
    28  H    0.112486   0.060154
    29  H    0.255737  -0.107580
    30  H   -0.172710   0.281285
    31  H   -0.235424   0.364341
    32  H   -0.122015   0.244450
    33  H    0.024993   0.080404
 Sum of Mulliken charges =  -1.00000   1.00000

 Dipole moment (field-independent basis, Debye):
    X=              0.9255    Y=              0.2773    Z=              2.0892  Tot=              2.3018
 Quadrupole moment (field-independent basis, Debye-Ang):
   XX=           -168.5600   YY=           -117.9296   ZZ=           -126.3598
   XY=             -3.0624   XZ=             -2.0966   YZ=              0.4889

 Summary of Natural Population Analysis:

                                       Natural Population
                Natural  -----------------------------------------------
    Atom  No    Charge         Core      Valence    Rydberg      Total
 -----------------------------------------------------------------------
      C    1   -0.28178      0.99965     2.27642    0.00572     3.28178
      C    2   -0.16535      0.99959     2.15463    0.01114     3.16535
      C    3   -0.07885      0.99959     2.06685    0.01241     3.07885
      N    4   -0.28395      0.99971     2.77278    0.01146     3.78395
      C    5   -0.08235      0.99961     2.07143    0.01132     3.08235
      C    6   -0.20357      0.99962     2.19519    0.00876     3.20357
      C    7   -0.08218      0.99960     2.07040    0.01217     3.08218
      N    8   -0.27970      0.99972     2.76750    0.01248     3.77970
      C    9   -0.09750      0.99961     2.08692    0.01097     3.09750
      C   10   -0.09245      0.99960     2.08108    0.01177     3.09245
      C   11   -0.17493      0.99965     2.16674    0.00855     3.17493
      C   12    0.24543      0.99969     1.73222    0.02265     2.75457
      O   13   -0.27338      0.99988     3.26695    0.00655     4.27338
      H   14    0.09912      0.00000     0.39953    0.00134     0.40088
      H   15    0.10183      0.00000     0.39724    0.00094     0.39817
      H   16    0.10692      0.00000     0.39071    0.00236     0.39308
      H   17    0.10101      0.00000     0.39688    0.00211     0.39899
      H   18    0.09672      0.00000     0.40158    0.00170     0.40328
      H   19    0.08946      0.00000     0.40889    0.00165     0.41054
      H   20    0.08231      0.00000     0.41597    0.00172     0.41769
      H   21    0.09508      0.00000     0.40371    0.00121     0.40492
      H   22    0.10176      0.00000     0.39690    0.00135     0.39824
      H   23    0.10463      0.00000     0.39443    0.00094     0.39537
      H   24    0.09674      0.00000     0.40174    0.00151     0.40326
      H   25    0.07818      0.00000     0.41998    0.00184     0.42182
      H   26    0.09750      0.00000     0.40119    0.00131     0.40250
      H   27    0.08384      0.00000     0.41461    0.00155     0.41616
      H   28    0.09936      0.00000     0.39905    0.00159     0.40064
      H   29    0.10071      0.00000     0.39808    0.00121     0.39929
      H   30    0.08075      0.00000     0.41781    0.00144     0.41925
      H   31    0.09534      0.00000     0.40341    0.00125     0.40466
      H   32    0.09398      0.00000     0.40484    0.00118     0.40602
      H   33    0.04531      0.00000     0.45235    0.00235     0.45469
 =======================================================================
   * Total *   -0.00000     12.99551    37.82801    0.17648    51.00000

 Normal termination of Gaussian 16 at Mon Dec 14 17:18:17 2020.
