 Gaussian 16, Revision A.03,

 -----------------------------------------------------------
 # opt freq B3LYP/6-31G(d) empiricaldispersion=gd3bj scf=xqc
 -----------------------------------------------------------

 ------------------------------
 CID_60092569_JID_5601_neutraal
 ------------------------------
 Symbolic Z-matrix:
 Charge =  0 Multiplicity = 1

 SCF Done:  E(RB3LYP) =  -600.941249602     A.U. after   14 cycles
 SCF Done:  E(RB3LYP) =  -600.938808149     A.U. after   12 cycles
 SCF Done:  E(RB3LYP) =  -600.947402194     A.U. after   11 cycles
 SCF Done:  E(RB3LYP) =  -600.948232951     A.U. after   11 cycles
 SCF Done:  E(RB3LYP) =  -600.948623706     A.U. after   12 cycles
 SCF Done:  E(RB3LYP) =  -600.949146151     A.U. after   11 cycles
 SCF Done:  E(RB3LYP) =  -600.949342240     A.U. after   11 cycles
 SCF Done:  E(RB3LYP) =  -600.949597180     A.U. after   10 cycles
 SCF Done:  E(RB3LYP) =  -600.949637833     A.U. after   10 cycles
 SCF Done:  E(RB3LYP) =  -600.949643739     A.U. after    9 cycles
 SCF Done:  E(RB3LYP) =  -600.949645379     A.U. after    7 cycles
 SCF Done:  E(RB3LYP) =  -600.949645711     A.U. after    7 cycles
 SCF Done:  E(RB3LYP) =  -600.949645746     A.U. after    7 cycles
 Optimization completed.
    -- Stationary point found.
 Normal termination of Gaussian 16 at Thu Dec 10 16:36:01 2020.

 --------------------------------------------------------------------
 #N Geom=AllCheck Guess=TCheck SCRF=Check GenChk RB3LYP/6-31G(d) Freq
 --------------------------------------------------------------------

 Structure from the checkpoint file:  "JID_5601.chk"
 ------------------------------
 CID_60092569_JID_5601_neutraal
 ------------------------------
 Charge =  0 Multiplicity = 1

 SCF Done:  E(RB3LYP) =  -600.949645746     A.U. after    1 cycles

  Exact polarizability: 163.437  15.965 140.088  13.318  -9.388 131.393
 Approx polarizability: 217.364  29.490 218.054  26.783 -23.386 214.444

                      1                      2                      3
                      A                      A                      A
 Frequencies --     38.6304                60.2622               104.1982
 Red. masses --      3.2818                 4.1842                 2.5991
 Frc consts  --      0.0029                 0.0090                 0.0166
 IR Inten    --      0.0334                 0.0787                 0.4252

                      4                      5                      6
                      A                      A                      A
 Frequencies --    139.5933               176.4274               202.6996
 Red. masses --      2.3291                 2.4238                 3.6858
 Frc consts  --      0.0267                 0.0445                 0.0892
 IR Inten    --      0.0632                 1.7491                 0.8031

                      7                      8                      9
                      A                      A                      A
 Frequencies --    223.2111               248.2737               267.2213
 Red. masses --      1.6743                 2.6599                 1.5914
 Frc consts  --      0.0491                 0.0966                 0.0670
 IR Inten    --      0.7378                 3.1693                 0.6320

                     10                     11                     12
                      A                      A                      A
 Frequencies --    279.5177               296.6689               308.6231
 Red. masses --      2.1291                 1.4009                 1.9117
 Frc consts  --      0.0980                 0.0726                 0.1073
 IR Inten    --      2.3322                 0.3250                 0.4008

                     13                     14                     15
                      A                      A                      A
 Frequencies --    363.6802               368.1951               413.5884
 Red. masses --      1.4231                 1.5133                 2.8008
 Frc consts  --      0.1109                 0.1209                 0.2823
 IR Inten    --      0.6322                 1.0680                 1.4026

                     16                     17                     18
                      A                      A                      A
 Frequencies --    419.9195               432.9585               449.4442
 Red. masses --      2.2984                 2.6587                 2.9575
 Frc consts  --      0.2388                 0.2936                 0.3520
 IR Inten    --      0.7111                 4.3249                 2.1438

                     19                     20                     21
                      A                      A                      A
 Frequencies --    480.6254               504.9419               533.3757
 Red. masses --      1.7837                 2.9175                 4.3212
 Frc consts  --      0.2428                 0.4383                 0.7243
 IR Inten    --     23.9094                 0.0394                 0.7961

                     22                     23                     24
                      A                      A                      A
 Frequencies --    586.2261               597.6531               645.4773
 Red. masses --      3.0118                 4.5887                 2.8594
 Frc consts  --      0.6098                 0.9657                 0.7019
 IR Inten    --      4.1807                 0.4698                52.9520

                     25                     26                     27
                      A                      A                      A
 Frequencies --    696.2384               713.4301               738.2831
 Red. masses --      2.6428                 3.4389                 2.8736
 Frc consts  --      0.7548                 1.0313                 0.9228
 IR Inten    --     25.3396                 0.0637                 4.8477

                     28                     29                     30
                      A                      A                      A
 Frequencies --    758.0424               780.3233               813.6031
 Red. masses --      1.2336                 1.3030                 3.4541
 Frc consts  --      0.4177                 0.4674                 1.3471
 IR Inten    --     36.4652                 3.3648                 2.0799

                     31                     32                     33
                      A                      A                      A
 Frequencies --    826.1908               853.3777               878.1755
 Red. masses --      2.7588                 3.6639                 1.4119
 Frc consts  --      1.1095                 1.5721                 0.6415
 IR Inten    --      3.7438                 0.5750                 0.3146

                     34                     35                     36
                      A                      A                      A
 Frequencies --    912.3447               927.0848               932.2161
 Red. masses --      1.7993                 2.0720                 1.6733
 Frc consts  --      0.8824                 1.0492                 0.8567
 IR Inten    --      5.6039                 1.9758                 0.8130

                     37                     38                     39
                      A                      A                      A
 Frequencies --    936.5694               951.6564               980.5477
 Red. masses --      1.5387                 1.6464                 1.2482
 Frc consts  --      0.7952                 0.8785                 0.7071
 IR Inten    --      0.9498                 0.4935                 0.0188

                     40                     41                     42
                      A                      A                      A
 Frequencies --   1001.9460              1028.9735              1041.4244
 Red. masses --      2.1735                 1.5143                 1.6320
 Frc consts  --      1.2856                 0.9446                 1.0429
 IR Inten    --      2.4737                 0.1006                 4.4567

                     43                     44                     45
                      A                      A                      A
 Frequencies --   1053.7100              1058.4177              1085.7480
 Red. masses --      2.5132                 2.2262                 1.7759
 Frc consts  --      1.6440                 1.4694                 1.2335
 IR Inten    --      6.4063                 1.7033                 5.4281

                     46                     47                     48
                      A                      A                      A
 Frequencies --   1098.7844              1122.5276              1124.5803
 Red. masses --      1.6051                 2.0629                 1.8521
 Frc consts  --      1.1418                 1.5315                 1.3801
 IR Inten    --      5.3245                 4.5608                20.2701

                     49                     50                     51
                      A                      A                      A
 Frequencies --   1180.7180              1191.5680              1196.5148
 Red. masses --      1.2289                 1.1124                 1.8224
 Frc consts  --      1.0094                 0.9306                 1.5372
 IR Inten    --      0.5270                 0.1905                 1.9569

                     52                     53                     54
                      A                      A                      A
 Frequencies --   1222.0370              1230.2522              1241.7971
 Red. masses --      2.2824                 2.0647                 1.4670
 Frc consts  --      2.0082                 1.8412                 1.3329
 IR Inten    --      4.8053                13.8324                 4.3086

                     55                     56                     57
                      A                      A                      A
 Frequencies --   1250.1182              1252.8257              1269.0584
 Red. masses --      2.1369                 2.4208                 1.6645
 Frc consts  --      1.9676                 2.2387                 1.5795
 IR Inten    --      6.7613                21.0901                42.0215

                     58                     59                     60
                      A                      A                      A
 Frequencies --   1309.8941              1323.2523              1339.6939
 Red. masses --      1.9309                 1.7751                 1.2839
 Frc consts  --      1.9520                 1.8313                 1.3576
 IR Inten    --      2.7790                 2.5144                11.1267

                     61                     62                     63
                      A                      A                      A
 Frequencies --   1352.9961              1377.0059              1396.5098
 Red. masses --      1.4828                 3.6682                 1.3003
 Frc consts  --      1.5993                 4.0980                 1.4941
 IR Inten    --      0.3536                 3.9370                 1.0670

                     64                     65                     66
                      A                      A                      A
 Frequencies --   1422.5356              1428.6613              1444.1321
 Red. masses --      1.2338                 1.2470                 1.2512
 Frc consts  --      1.4711                 1.4996                 1.5374
 IR Inten    --      1.5971                13.6905                 6.3800

                     67                     68                     69
                      A                      A                      A
 Frequencies --   1450.8089              1500.7554              1507.9270
 Red. masses --      1.2179                 1.2019                 1.2061
 Frc consts  --      1.5104                 1.5949                 1.6159
 IR Inten    --      6.3766                 0.5374                 6.7265

                     70                     71                     72
                      A                      A                      A
 Frequencies --   1509.1934              1517.2118              1521.9452
 Red. masses --      1.7987                 1.0608                 1.1032
 Frc consts  --      2.4138                 1.4388                 1.5055
 IR Inten    --      4.9951                 0.0327                 6.9002

                     73                     74                     75
                      A                      A                      A
 Frequencies --   1524.5735              1528.2198              1534.2704
 Red. masses --      1.0755                 1.1446                 1.7100
 Frc consts  --      1.4729                 1.5750                 2.3717
 IR Inten    --      7.7382                 2.5525                12.8786

                     76                     77                     78
                      A                      A                      A
 Frequencies --   1540.6278              1541.8506              1554.5355
 Red. masses --      1.0800                 1.0640                 1.0702
 Frc consts  --      1.5103                 1.4903                 1.5238
 IR Inten    --      3.8106                 7.5082                 1.1131

                     79                     80                     81
                      A                      A                      A
 Frequencies --   1570.8855              1645.1671              1666.9009
 Red. masses --      1.1683                 6.0696                 6.3097
 Frc consts  --      1.6986                 9.6790                10.3294
 IR Inten    --      3.7559                 2.0466                 0.1237

                     82                     83                     84
                      A                      A                      A
 Frequencies --   3026.8897              3036.8669              3038.9860
 Red. masses --      1.0740                 1.0467                 1.0738
 Frc consts  --      5.7976                 5.6873                 5.8429
 IR Inten    --     22.9782                12.3297                20.2186

                     85                     86                     87
                      A                      A                      A
 Frequencies --   3039.6157              3048.5038              3059.0572
 Red. masses --      1.0594                 1.0410                 1.0433
 Frc consts  --      5.7668                 5.7001                 5.7522
 IR Inten    --     40.9480                29.8786                34.8723

                     88                     89                     90
                      A                      A                      A
 Frequencies --   3067.4291              3088.5056              3100.5706
 Red. masses --      1.0842                 1.0967                 1.1004
 Frc consts  --      6.0104                 6.1635                 6.2326
 IR Inten    --     69.8486                 9.0318                 9.2878

                     91                     92                     93
                      A                      A                      A
 Frequencies --   3107.6873              3112.8909              3114.5132
 Red. masses --      1.0965                 1.0929                 1.0979
 Frc consts  --      6.2392                 6.2396                 6.2747
 IR Inten    --     54.3893                50.1845                16.4401

                     94                     95                     96
                      A                      A                      A
 Frequencies --   3129.1722              3132.5361              3154.4207
 Red. masses --      1.0892                 1.1030                 1.0978
 Frc consts  --      6.2835                 6.3771                 6.4360
 IR Inten    --     15.0608                30.6139                10.2435

                     97                     98                     99
                      A                      A                      A
 Frequencies --   3172.2806              3176.0488              3181.3709
 Red. masses --      1.0946                 1.0855                 1.0887
 Frc consts  --      6.4903                 6.4514                 6.4922
 IR Inten    --      8.8817                 5.9749                 2.7247

                    100                    101                    102
                      A                      A                      A
 Frequencies --   3193.0105              3206.6402              3509.9354
 Red. masses --      1.0926                 1.0971                 1.0741
 Frc consts  --      6.5632                 6.6466                 7.7964
 IR Inten    --     34.0980                32.2487                 0.9464

 - Thermochemistry -
 -------------------
 Temperature   298.150 Kelvin.  Pressure   1.00000 Atm.
 Atom     1 has atomic number  6 and mass  12.00000

 Molecular mass:   203.16740 amu.
 Principal axes and moments of inertia in atomic units:
                           1         2         3
     Eigenvalues --  1736.401774189.787354533.20652
           X            0.99998  -0.00060  -0.00554
           Y            0.00044   0.99957  -0.02916
           Z            0.00555   0.02916   0.99956
 This molecule is an asymmetric top.
 Rotational symmetry number  1.
 Warning -- assumption of classical behavior for rotation
           may cause significant error
 Rotational temperatures (Kelvin)      0.04988     0.02067     0.01911
 Rotational constants (GHZ):           1.03936     0.43075     0.39812
 Zero-point vibrational energy     853517.5 (Joules/Mol)
                                  203.99558 (Kcal/Mol)
 Warning -- explicit consideration of  23 degrees of freedom as
           vibrations may cause significant error
 Vibrational temperatures:     55.58    86.70   149.92   200.84   253.84
          (Kelvin)            291.64   321.15   357.21   384.47   402.16
                              426.84   444.04   523.25   529.75   595.06
                              604.17   622.93   646.65   691.51   726.50
                              767.41   843.45   859.89   928.70  1001.73
                             1026.47  1062.22  1090.65  1122.71  1170.59
                             1188.70  1227.82  1263.50  1312.66  1333.87
                             1341.25  1347.51  1369.22  1410.79  1441.58
                             1480.46  1498.38  1516.05  1522.83  1562.15
                             1580.91  1615.07  1618.02  1698.79  1714.40
                             1721.52  1758.24  1770.06  1786.67  1798.64
                             1802.54  1825.89  1884.65  1903.86  1927.52
                             1946.66  1981.20  2009.27  2046.71  2055.52
                             2077.78  2087.39  2159.25  2169.57  2171.39
                             2182.93  2189.74  2193.52  2198.77  2207.47
                             2216.62  2218.38  2236.63  2260.15  2367.03
                             2398.30  4355.02  4369.37  4372.42  4373.33
                             4386.12  4401.30  4413.35  4443.67  4461.03
                             4471.27  4478.76  4481.09  4502.18  4507.02
                             4538.51  4564.20  4569.63  4577.28  4594.03
                             4613.64  5050.01

 Zero-point correction=                           0.325088 (Hartree/Particle)
 Thermal correction to Energy=                    0.339412
 Thermal correction to Enthalpy=                  0.340356
 Thermal correction to Gibbs Free Energy=         0.284899
 Sum of electronic and zero-point Energies=           -600.624558
 Sum of electronic and thermal Energies=              -600.610234
 Sum of electronic and thermal Enthalpies=            -600.609290
 Sum of electronic and thermal Free Energies=         -600.664747

                     E (Thermal)             CV                S
                      KCal/Mol        Cal/Mol-Kelvin    Cal/Mol-Kelvin
 Total                  212.984             58.643            116.720
 Electronic               0.000              0.000              0.000
 Translational            0.889              2.981             41.831
 Rotational               0.889              2.981             31.867
 Vibrational            211.207             52.682             43.021
 Vibration     1          0.594              1.981              5.328
 Vibration     2          0.597              1.973              4.449
 Vibration     3          0.605              1.946              3.374
 Vibration     4          0.615              1.914              2.809
 Vibration     5          0.628              1.871              2.366
 Vibration     6          0.639              1.836              2.108
 Vibration     7          0.649              1.806              1.933
 Vibration     8          0.662              1.766              1.743
 Vibration     9          0.672              1.733              1.614
 Vibration    10          0.680              1.711              1.537
 Vibration    11          0.690              1.680              1.436
 Vibration    12          0.698              1.657              1.370
 Vibration    13          0.737              1.547              1.106
 Vibration    14          0.741              1.538              1.087
 Vibration    15          0.777              1.441              0.914
 Vibration    16          0.783              1.427              0.892
 Vibration    17          0.794              1.398              0.849
 Vibration    18          0.808              1.362              0.797
 Vibration    19          0.837              1.293              0.708
 Vibration    20          0.860              1.239              0.646
 Vibration    21          0.888              1.176              0.580
 Vibration    22          0.943              1.061              0.474
 Vibration    23          0.956              1.037              0.454

 Optimization completed.
    -- Stationary point found.
 Normal termination of Gaussian 16 at Thu Dec 10 16:49:50 2020.

 ----------------------------------------------------------------------
 # B3LYP/6-311++G(d,p) empiricaldispersion=gd3bj scf=xqc pop=npa geom=c
 heck
 ----------------------------------------------------------------------

 --------------------------------------
 CID_60092569_JID_5601_Energie_neutraal
 --------------------------------------
 Structure from the checkpoint file:  "JID_5601.chk"
 Charge =  0 Multiplicity = 1

 SCF Done:  E(RB3LYP) =  -601.110902870     A.U. after   14 cycles
 Normal termination of Gaussian 16 at Thu Dec 10 16:56:32 2020.

 ----------------------------------------------------------------------
 # B3LYP/6-311++G(d,p) empiricaldispersion=gd3bj scf=xqc pop=npa geom=c
 heck
 ----------------------------------------------------------------------

 ------------------------------------
 CID_60092569_JID_5601_Energie_kation
 ------------------------------------
 Structure from the checkpoint file:  "JID_5601.chk"
 Charge =  1 Multiplicity = 2

 SCF Done:  E(UB3LYP) =  -600.824641465     A.U. after   25 cycles
 Normal termination of Gaussian 16 at Thu Dec 10 17:12:30 2020.
 Gaussian 16:  ES64L-G16RevA.03 25-Dec-2016

 ----------------------------------------------------------------------
 # B3LYP/6-311++G(d,p) empiricaldispersion=gd3bj scf=xqc pop=npa geom=c
 heck
 ----------------------------------------------------------------------

 -----------------------------------
 CID_60092569_JID_5601_Energie_anion
 -----------------------------------
 Structure from the checkpoint file:  "JID_5601.chk"
 Charge = -1 Multiplicity = 2

                         Standard orientation:
 ---------------------------------------------------------------------
 Center     Atomic      Atomic             Coordinates (Angstroms)
 Number     Number       Type             X           Y           Z
 ---------------------------------------------------------------------
      1          6           0       -0.954957    2.387707    0.040579
      2          6           0       -2.168572    1.514011   -0.295855
      3          6           0       -2.244628    0.077723    0.318844
      4          6           0       -1.476714   -0.002498    1.652346
      5          6           0       -3.732802   -0.202926    0.610763
      6          7           0       -1.885442   -0.957947   -0.686750
      7          6           0       -0.540579   -1.385839   -1.085042
      8          6           0        0.314638   -0.289444   -1.787496
      9          6           0        1.460551   -0.012710   -0.844878
     10          6           0        2.404668    1.011735   -0.899498
     11          6           0        3.382854    1.093652    0.094530
     12          6           0        3.416131    0.156826    1.131728
     13          6           0        2.476187   -0.875678    1.180714
     14          6           0        1.501911   -0.958407    0.187139
     15          6           0        0.412219   -1.985240    0.011772
     16          1           0       -0.001823    1.918450   -0.206432
     17          1           0       -0.926320    2.636247    1.106829
     18          1           0       -1.014700    3.333151   -0.511356
     19          1           0       -3.058657    2.064945    0.034587
     20          1           0       -2.273623    1.400925   -1.379992
     21          1           0       -1.848387    0.756755    2.350771
     22          1           0       -1.624302   -0.981888    2.121726
     23          1           0       -0.404579    0.160913    1.526482
     24          1           0       -4.322936   -0.128977   -0.308859
     25          1           0       -3.870768   -1.208720    1.029281
     26          1           0       -4.125560    0.515480    1.336892
     27          1           0       -2.397219   -1.802449   -0.447260
     28          1           0       -0.747696   -2.176601   -1.813185
     29          1           0        0.692357   -0.671980   -2.745170
     30          1           0       -0.278059    0.597114   -2.023977
     31          1           0        2.373784    1.747923   -1.699115
     32          1           0        4.117849    1.893267    0.064618
     33          1           0        4.176543    0.232634    1.904144
     34          1           0        2.504482   -1.604376    1.987200
     35          1           0       -0.119504   -2.221013    0.937775
     36          1           0        0.841764   -2.929639   -0.351587
 ---------------------------------------------------------------------

 SCF Done:  E(UB3LYP) =  -601.095902525     A.U. after   33 cycles
 SCF Done:  E(UB3LYP) =  -601.095902525     a.u. after    1 cycles

 The electronic state is 2-A.
 Alpha  occ. eigenvalues --  -14.18818 -10.10887 -10.09729 -10.07517 -10.07465
 Alpha  occ. eigenvalues --  -10.07421 -10.07349 -10.07298 -10.07214 -10.06665
 Alpha  occ. eigenvalues --  -10.06275 -10.06244 -10.05906 -10.05611 -10.05341
 Alpha  occ. eigenvalues --   -0.80545  -0.76598  -0.70985  -0.68011  -0.65777
 Alpha  occ. eigenvalues --   -0.63458  -0.59957  -0.59369  -0.58530  -0.53212
 Alpha  occ. eigenvalues --   -0.50754  -0.48265  -0.47524  -0.43251  -0.40605
 Alpha  occ. eigenvalues --   -0.39485  -0.37572  -0.35642  -0.35015  -0.34669
 Alpha  occ. eigenvalues --   -0.33087  -0.32565  -0.32347  -0.31405  -0.31005
 Alpha  occ. eigenvalues --   -0.30010  -0.28385  -0.27905  -0.27229  -0.26443
 Alpha  occ. eigenvalues --   -0.25627  -0.24721  -0.24518  -0.24405  -0.23351
 Alpha  occ. eigenvalues --   -0.22567  -0.21632  -0.21437  -0.15258  -0.13995
 Alpha  occ. eigenvalues --   -0.11666   0.04437
 Alpha virt. eigenvalues --    0.06330   0.06702   0.07148   0.07949   0.08220
 Alpha virt. eigenvalues --    0.08855   0.08928   0.09266   0.09539   0.09989
 Alpha virt. eigenvalues --    0.10947   0.11055   0.11599   0.12080   0.12233

  Beta  occ. eigenvalues --  -14.18805 -10.10889 -10.09713 -10.07506 -10.07454
  Beta  occ. eigenvalues --  -10.07417 -10.07345 -10.07272 -10.07182 -10.06651
  Beta  occ. eigenvalues --  -10.06254 -10.06232 -10.05878 -10.05602 -10.05322
  Beta  occ. eigenvalues --   -0.80514  -0.76563  -0.70950  -0.67982  -0.65728
  Beta  occ. eigenvalues --   -0.63432  -0.59915  -0.59323  -0.58483  -0.53168
  Beta  occ. eigenvalues --   -0.50691  -0.48218  -0.47493  -0.43209  -0.40546
  Beta  occ. eigenvalues --   -0.39432  -0.37546  -0.35603  -0.34978  -0.34643
  Beta  occ. eigenvalues --   -0.33061  -0.32537  -0.32305  -0.31364  -0.30968
  Beta  occ. eigenvalues --   -0.29983  -0.28360  -0.27883  -0.27196  -0.26409
  Beta  occ. eigenvalues --   -0.25581  -0.24682  -0.24470  -0.24378  -0.23319
  Beta  occ. eigenvalues --   -0.22541  -0.21603  -0.21394  -0.15118  -0.13934
  Beta  occ. eigenvalues --   -0.11644
  Beta virt. eigenvalues --    0.06397   0.07024   0.07318   0.07650   0.08385
  Beta virt. eigenvalues --    0.08654   0.09010   0.09251   0.09686   0.09965
  Beta virt. eigenvalues --    0.10436   0.11152   0.11311   0.11997   0.12426

 Mulliken charges and spin densities:
               1          2
     1  C   -0.593654   0.073373
     2  C    0.099829  -0.631848
     3  C   -1.649410   2.141411
     4  C   -0.029064  -0.774569
     5  C    1.648845  -2.101753
     6  N   -0.090895   0.043612
     7  C   -0.635498   1.049178
     8  C    1.615874  -2.608722
     9  C   -0.361522   0.842319
    10  C   -1.025886   0.865674
    11  C    0.138495  -0.547782
    12  C    0.626568  -0.938140
    13  C   -1.039408   0.854606
    14  C   -0.822205   1.424249
    15  C    2.468709  -3.490565
    16  H    0.542479  -0.367269
    17  H    0.047723   0.083567
    18  H   -0.135241   0.271608
    19  H   -0.109361   0.252034
    20  H    0.188484  -0.028698
    21  H    0.035595   0.106397
    22  H   -0.121210   0.276137
    23  H    0.420667  -0.253732
    24  H   -0.171526   0.338513
    25  H   -0.204375   0.338257
    26  H    0.016085   0.112220
    27  H    0.012912   0.236722
    28  H   -0.586846   0.800764
    29  H   -0.206292   0.413571
    30  H    0.198684  -0.043930
    31  H   -0.242798   0.408910
    32  H   -0.247188   0.400220
    33  H   -0.211468   0.370254
    34  H   -0.377495   0.539375
    35  H    0.061284   0.090398
    36  H   -0.260889   0.453639
 Sum of Mulliken charges =  -1.00000   1.00000

 Dipole moment (field-independent basis, Debye):
    X=              0.1236    Y=              3.4475    Z=              1.0601  Tot=              3.6089
 Quadrupole moment (field-independent basis, Debye-Ang):
   XX=           -160.5202   YY=           -142.7864   ZZ=           -133.2095
   XY=             -3.5035   XZ=             -0.7055   YZ=             -3.9977

 Summary of Natural Population Analysis:

                                       Natural Population
                Natural  -----------------------------------------------
    Atom  No    Charge         Core      Valence    Rydberg      Total
 -----------------------------------------------------------------------
      C    1   -0.28965      0.99965     2.28541    0.00459     3.28965
      C    2   -0.19182      0.99958     2.18349    0.00874     3.19182
      C    3    0.05751      0.99957     1.92920    0.01371     2.94249
      C    4   -0.29928      0.99962     2.29246    0.00720     3.29928
      C    5   -0.28297      0.99963     2.27598    0.00736     3.28297
      N    6   -0.34904      0.99970     2.83624    0.01309     3.84904
      C    7   -0.00015      0.99961     1.98524    0.01530     3.00015
      C    8   -0.20378      0.99958     2.19515    0.00905     3.20378
      C    9   -0.01632      0.99945     2.00635    0.01052     3.01632
      C   10   -0.09846      0.99950     2.08894    0.01002     3.09846
      C   11   -0.10266      0.99956     2.09359    0.00951     3.10266
      C   12   -0.10243      0.99956     2.09348    0.00939     3.10243
      C   13   -0.09514      0.99950     2.08592    0.00972     3.09514
      C   14   -0.01515      0.99946     2.00498    0.01072     3.01515
      C   15   -0.20766      0.99959     2.19871    0.00937     3.20766
      H   16    0.10318      0.00000     0.39500    0.00183     0.39682
      H   17    0.09587      0.00000     0.40318    0.00095     0.40413
      H   18    0.09613      0.00000     0.40304    0.00083     0.40387
      H   19    0.09402      0.00000     0.40488    0.00110     0.40598
      H   20    0.10231      0.00000     0.39635    0.00134     0.39769
      H   21    0.09866      0.00000     0.40054    0.00079     0.40134
      H   22    0.09974      0.00000     0.39914    0.00112     0.40026
      H   23    0.10625      0.00000     0.39196    0.00179     0.39375
      H   24    0.10317      0.00000     0.39571    0.00112     0.39683
      H   25    0.09749      0.00000     0.40138    0.00113     0.40251
      H   26    0.09867      0.00000     0.40035    0.00098     0.40133
      H   27    0.17618      0.00000     0.32030    0.00351     0.32382
      H   28    0.09807      0.00000     0.39985    0.00209     0.40193
      H   29    0.10837      0.00000     0.39018    0.00145     0.39163
      H   30    0.10791      0.00000     0.39062    0.00147     0.39209
      H   31    0.10002      0.00000     0.39896    0.00102     0.39998
      H   32    0.09840      0.00000     0.40070    0.00091     0.40160
      H   33    0.09852      0.00000     0.40057    0.00091     0.40148
      H   34    0.09982      0.00000     0.39879    0.00139     0.40018
      H   35    0.10593      0.00000     0.39260    0.00147     0.39407
      H   36    0.10829      0.00000     0.38945    0.00226     0.39171
 =======================================================================
   * Total *   -0.00000     14.99355    40.82872    0.17773    56.00000

 Normal termination of Gaussian 16 at Thu Dec 10 17:34:48 2020.
