 Gaussian 16, Revision A.03,

 -----------------------------------------------------------
 # opt freq B3LYP/6-31G(d) empiricaldispersion=gd3bj scf=xqc
 -----------------------------------------------------------

 -------------------------------
 CID_121271032_JID_5669_neutraal
 -------------------------------
 Symbolic Z-matrix:
 Charge =  0 Multiplicity = 1

 SCF Done:  E(RB3LYP) =  -668.940497682     A.U. after   14 cycles
 SCF Done:  E(RB3LYP) =  -668.948876837     A.U. after   12 cycles
 SCF Done:  E(RB3LYP) =  -668.949894564     A.U. after   11 cycles
 SCF Done:  E(RB3LYP) =  -668.950087531     A.U. after   11 cycles
 SCF Done:  E(RB3LYP) =  -668.950162314     A.U. after   11 cycles
 SCF Done:  E(RB3LYP) =  -668.950168071     A.U. after   10 cycles
 SCF Done:  E(RB3LYP) =  -668.950183920     A.U. after    9 cycles
 SCF Done:  E(RB3LYP) =  -668.950188172     A.U. after   10 cycles
 SCF Done:  E(RB3LYP) =  -668.950190874     A.U. after   10 cycles
 SCF Done:  E(RB3LYP) =  -668.950193331     A.U. after    9 cycles
 SCF Done:  E(RB3LYP) =  -668.950198923     A.U. after    8 cycles
 SCF Done:  E(RB3LYP) =  -668.950199531     A.U. after    9 cycles
 SCF Done:  E(RB3LYP) =  -668.950199800     A.U. after    8 cycles
 SCF Done:  E(RB3LYP) =  -668.950200099     A.U. after    8 cycles
 SCF Done:  E(RB3LYP) =  -668.950200125     A.U. after    7 cycles
 Optimization completed.
    -- Stationary point found.
 Normal termination of Gaussian 16 at Thu Dec 10 16:40:17 2020.

 --------------------------------------------------------------------
 #N Geom=AllCheck Guess=TCheck SCRF=Check GenChk RB3LYP/6-31G(d) Freq
 --------------------------------------------------------------------

 Structure from the checkpoint file:  "JID_5669.chk"
 -------------------------------
 CID_121271032_JID_5669_neutraal
 -------------------------------
 Charge =  0 Multiplicity = 1

 SCF Done:  E(RB3LYP) =  -668.950200125     A.U. after    1 cycles

  Exact polarizability: 188.714   4.740 127.938  -3.647  -0.389  96.043
 Approx polarizability: 242.589  14.068 225.102  -5.113  -5.418 137.692

                      1                      2                      3
                      A                      A                      A
 Frequencies --     22.4234                27.9336                50.9287
 Red. masses --      4.0309                 2.8792                 3.3381
 Frc consts  --      0.0012                 0.0013                 0.0051
 IR Inten    --      1.8814                 0.0153                 0.4324

                      4                      5                      6
                      A                      A                      A
 Frequencies --     78.7447               124.9331               165.1329
 Red. masses --      3.1301                 4.7595                 2.9494
 Frc consts  --      0.0114                 0.0438                 0.0474
 IR Inten    --      1.5985                 0.4370                 0.7173

                      7                      8                      9
                      A                      A                      A
 Frequencies --    178.9529               235.8012               242.4763
 Red. masses --      2.2484                 1.3747                 1.0886
 Frc consts  --      0.0424                 0.0450                 0.0377
 IR Inten    --      0.4094                 0.8551                 1.9671

                     10                     11                     12
                      A                      A                      A
 Frequencies --    252.1666               264.0417               288.0226
 Red. masses --      4.1182                 3.6531                 3.6991
 Frc consts  --      0.1543                 0.1501                 0.1808
 IR Inten    --      1.1181                 5.1754                 3.6574

                     13                     14                     15
                      A                      A                      A
 Frequencies --    317.4198               359.3751               418.4900
 Red. masses --      1.9861                 2.9084                 3.2896
 Frc consts  --      0.1179                 0.2213                 0.3394
 IR Inten    --      5.1896                 1.7937                 0.3448

                     16                     17                     18
                      A                      A                      A
 Frequencies --    460.3384               485.4478               527.0525
 Red. masses --      3.1576                 3.9200                 4.2650
 Frc consts  --      0.3942                 0.5443                 0.6980
 IR Inten    --      0.2667                 3.7213                 5.2180

                     19                     20                     21
                      A                      A                      A
 Frequencies --    552.3683               604.1356               635.3602
 Red. masses --      2.3887                 7.0556                 2.6325
 Frc consts  --      0.4294                 1.5172                 0.6261
 IR Inten    --      0.1661                 2.1251                 1.0522

                     22                     23                     24
                      A                      A                      A
 Frequencies --    656.1934               723.9644               729.7894
 Red. masses --      3.0046                 4.5670                 5.3603
 Frc consts  --      0.7623                 1.4103                 1.6820
 IR Inten    --      1.1895                 6.9255                 3.1084

                     25                     26                     27
                      A                      A                      A
 Frequencies --    761.8176               785.4266               797.4939
 Red. masses --      3.0970                 1.5093                 8.3137
 Frc consts  --      1.0590                 0.5486                 3.1153
 IR Inten    --      1.1499                18.6273                13.4011

                     28                     29                     30
                      A                      A                      A
 Frequencies --    856.7635               870.8632               885.7861
 Red. masses --      1.8193                 1.9458                 2.6983
 Frc consts  --      0.7868                 0.8695                 1.2474
 IR Inten    --     21.7693               184.3769                 2.1256

                     31                     32                     33
                      A                      A                      A
 Frequencies --    912.5521               938.0394               946.5686
 Red. masses --      2.6553                 2.4254                 1.2268
 Frc consts  --      1.3028                 1.2574                 0.6476
 IR Inten    --      2.0108                23.1236                 5.9015

                     34                     35                     36
                      A                      A                      A
 Frequencies --    948.1544               956.9417               967.5851
 Red. masses --      2.3592                 1.3328                 1.5390
 Frc consts  --      1.2496                 0.7191                 0.8489
 IR Inten    --     13.1685                 1.4785                 0.0116

                     37                     38                     39
                      A                      A                      A
 Frequencies --    988.6702              1033.5999              1041.2254
 Red. masses --      3.2250                 2.3325                 2.1222
 Frc consts  --      1.8573                 1.4682                 1.3556
 IR Inten    --      3.9638                17.6586                 8.6061

                     40                     41                     42
                      A                      A                      A
 Frequencies --   1055.5335              1075.4731              1115.2055
 Red. masses --      2.6139                 1.5339                 4.4335
 Frc consts  --      1.7158                 1.0453                 3.2487
 IR Inten    --     31.1636                11.6983                16.2319

                     43                     44                     45
                      A                      A                      A
 Frequencies --   1146.5758              1164.1336              1177.0653
 Red. masses --      2.5955                 2.1294                 1.4509
 Frc consts  --      2.0104                 1.7002                 1.1844
 IR Inten    --     57.4797                 3.3724                 0.8535

                     46                     47                     48
                      A                      A                      A
 Frequencies --   1199.3834              1212.7480              1229.0810
 Red. masses --      1.4123                 2.8532                 1.8665
 Frc consts  --      1.1970                 2.4724                 1.6613
 IR Inten    --      6.2813                37.8046                 1.0615

                     49                     50                     51
                      A                      A                      A
 Frequencies --   1248.7757              1250.9438              1292.9288
 Red. masses --      1.3150                 1.8713                 1.3873
 Frc consts  --      1.2082                 1.7253                 1.3664
 IR Inten    --      3.8759               117.0486                 0.5777

                     52                     53                     54
                      A                      A                      A
 Frequencies --   1315.6036              1330.6214              1354.2543
 Red. masses --      1.3537                 1.7529                 1.2380
 Frc consts  --      1.3804                 1.8286                 1.3377
 IR Inten    --      0.2204                56.0530                 0.6988

                     55                     56                     57
                      A                      A                      A
 Frequencies --   1359.4950              1370.5590              1381.0303
 Red. masses --      1.3245                 1.3618                 1.3247
 Frc consts  --      1.4423                 1.5072                 1.4886
 IR Inten    --      1.4827                 3.5573                 2.3162

                     58                     59                     60
                      A                      A                      A
 Frequencies --   1407.5311              1421.2442              1433.4523
 Red. masses --      1.6594                 1.2737                 1.2850
 Frc consts  --      1.9369                 1.5158                 1.5556
 IR Inten    --     24.6148                13.7280                 9.6580

                     61                     62                     63
                      A                      A                      A
 Frequencies --   1455.1137              1487.0090              1507.0533
 Red. masses --      1.3551                 1.1606                 1.4711
 Frc consts  --      1.6905                 1.5121                 1.9685
 IR Inten    --    125.4891                 7.0737                18.3403

                     64                     65                     66
                      A                      A                      A
 Frequencies --   1507.6672              1513.9406              1519.1350
 Red. masses --      1.0413                 1.4888                 1.0829
 Frc consts  --      1.3946                 2.0105                 1.4725
 IR Inten    --      0.0243                23.1069                 1.4034

                     67                     68                     69
                      A                      A                      A
 Frequencies --   1523.2270              1534.8529              1535.2402
 Red. masses --      1.1431                 1.1234                 1.0491
 Frc consts  --      1.5627                 1.5592                 1.4569
 IR Inten    --     18.4831                 4.0084                 0.3278

                     70                     71                     72
                      A                      A                      A
 Frequencies --   1552.9905              1571.3695              1683.6266
 Red. masses --      1.1205                 4.0442                 6.1796
 Frc consts  --      1.5921                 5.8835                10.3205
 IR Inten    --      9.8464               153.2780               238.3828

                     73                     74                     75
                      A                      A                      A
 Frequencies --   1780.1818              3054.4452              3058.0133
 Red. masses --     11.2213                 1.0787                 1.0769
 Frc consts  --     20.9519                 5.9295                 5.9336
 IR Inten    --    565.2046                15.4447                17.6904

                     76                     77                     78
                      A                      A                      A
 Frequencies --   3060.7554              3066.4270              3069.4987
 Red. masses --      1.0382                 1.0447                 1.0598
 Frc consts  --      5.7307                 5.7878                 5.8832
 IR Inten    --     28.5662                33.8205                36.2080

                     79                     80                     81
                      A                      A                      A
 Frequencies --   3072.8268              3074.4235              3121.7083
 Red. masses --      1.0629                 1.0761                 1.1035
 Frc consts  --      5.9132                 5.9927                 6.3358
 IR Inten    --     11.1881                47.9000                31.6518

                     82                     83                     84
                      A                      A                      A
 Frequencies --   3122.7152              3126.0184              3127.3575
 Red. masses --      1.1030                 1.1024                 1.1071
 Frc consts  --      6.3369                 6.3472                 6.3796
 IR Inten    --     16.2931                48.0655                25.5004

                     85                     86                     87
                      A                      A                      A
 Frequencies --   3140.5298              3178.1160              3181.0199
 Red. masses --      1.1008                 1.0996                 1.0992
 Frc consts  --      6.3967                 6.5438                 6.5533
 IR Inten    --     22.1337                 0.5236                 5.2384

                     88                     89                     90
                      A                      A                      A
 Frequencies --   3204.2193              3242.0775              3454.9416
 Red. masses --      1.0905                 1.0952                 1.0741
 Frc consts  --      6.5963                 6.7825                 7.5538
 IR Inten    --      8.7470                 4.2471                 3.1535

 - Thermochemistry -
 -------------------
 Temperature   298.150 Kelvin.  Pressure   1.00000 Atm.
 Atom     1 has atomic number  6 and mass  12.00000

 Molecular mass:   207.13716 amu.
 Principal axes and moments of inertia in atomic units:
                           1         2         3
     Eigenvalues --  1175.094275932.883686265.69807
           X            0.99999  -0.00052  -0.00445
           Y            0.00062   0.99972   0.02356
           Z            0.00444  -0.02356   0.99971
 This molecule is an asymmetric top.
 Rotational symmetry number  1.
 Warning -- assumption of classical behavior for rotation
           may cause significant error
 Rotational temperatures (Kelvin)      0.07371     0.01460     0.01382
 Rotational constants (GHZ):           1.53583     0.30419     0.28804
 Zero-point vibrational energy     730685.8 (Joules/Mol)
                                  174.63809 (Kcal/Mol)
 Warning -- explicit consideration of  20 degrees of freedom as
           vibrations may cause significant error
 Vibrational temperatures:     32.26    40.19    73.28   113.30   179.75
          (Kelvin)            237.59   257.47   339.27   348.87   362.81
                              379.90   414.40   456.70   517.06   602.11
                              662.32   698.45   758.31   794.73   869.22
                              914.14   944.12  1041.62  1050.00  1096.09
                             1130.05  1147.42  1232.69  1252.98  1274.45
                             1312.96  1349.63  1361.90  1364.18  1376.83
                             1392.14  1422.48  1487.12  1498.09  1518.68
                             1547.37  1604.53  1649.67  1674.93  1693.53
                             1725.65  1744.87  1768.37  1796.71  1799.83
                             1860.24  1892.86  1914.47  1948.47  1956.01
                             1971.93  1986.99  2025.12  2044.85  2062.42
                             2093.58  2139.47  2168.31  2169.20  2178.22
                             2185.70  2191.58  2208.31  2208.87  2234.41
                             2260.85  2422.36  2561.28  4394.67  4399.80
                             4403.74  4411.90  4416.32  4421.11  4423.41
                             4491.44  4492.89  4497.64  4499.57  4518.52
                             4572.60  4576.78  4610.16  4664.63  4970.89

 Zero-point correction=                           0.278304 (Hartree/Particle)
 Thermal correction to Energy=                    0.292535
 Thermal correction to Enthalpy=                  0.293479
 Thermal correction to Gibbs Free Energy=         0.235473
 Sum of electronic and zero-point Energies=           -668.671897
 Sum of electronic and thermal Energies=              -668.657666
 Sum of electronic and thermal Enthalpies=            -668.656721
 Sum of electronic and thermal Free Energies=         -668.714727

                     E (Thermal)             CV                S
                      KCal/Mol        Cal/Mol-Kelvin    Cal/Mol-Kelvin
 Total                  183.568             54.277            122.083
 Electronic               0.000              0.000              0.000
 Translational            0.889              2.981             41.889
 Rotational               0.889              2.981             32.146
 Vibrational            181.791             48.316             48.048
 Vibration     1          0.593              1.985              6.407
 Vibration     2          0.593              1.984              5.971
 Vibration     3          0.595              1.977              4.781
 Vibration     4          0.600              1.963              3.922
 Vibration     5          0.610              1.928              3.023
 Vibration     6          0.624              1.885              2.490
 Vibration     7          0.629              1.868              2.339
 Vibration     8          0.655              1.786              1.834
 Vibration     9          0.659              1.775              1.785
 Vibration    10          0.664              1.759              1.715
 Vibration    11          0.671              1.739              1.635
 Vibration    12          0.685              1.696              1.486
 Vibration    13          0.704              1.640              1.323
 Vibration    14          0.734              1.556              1.125
 Vibration    15          0.781              1.430              0.897
 Vibration    16          0.818              1.338              0.765
 Vibration    17          0.842              1.282              0.696
 Vibration    18          0.882              1.190              0.594
 Vibration    19          0.908              1.135              0.539
 Vibration    20          0.963              1.023              0.443

                           ! Non-Optimized Parameters !
 Normal termination of Gaussian 16 at Thu Dec 10 16:51:38 2020.

 ----------------------------------------------------------------------
 # B3LYP/6-311++G(d,p) empiricaldispersion=gd3bj scf=xqc pop=npa geom=c
 heck
 ----------------------------------------------------------------------

 ---------------------------------------
 CID_121271032_JID_5669_Energie_neutraal
 ---------------------------------------
 Structure from the checkpoint file:  "JID_5669.chk"
 Charge =  0 Multiplicity = 1

 SCF Done:  E(RB3LYP) =  -669.135623786     A.U. after   16 cycles
 Normal termination of Gaussian 16 at Thu Dec 10 16:57:32 2020.

 ----------------------------------------------------------------------
 # B3LYP/6-311++G(d,p) empiricaldispersion=gd3bj scf=xqc pop=npa geom=c
 heck
 ----------------------------------------------------------------------

 -------------------------------------
 CID_121271032_JID_5669_Energie_kation
 -------------------------------------
 Structure from the checkpoint file:  "JID_5669.chk"
 Charge =  1 Multiplicity = 2

 SCF Done:  E(UB3LYP) =  -668.837899200     A.U. after   26 cycles
 Normal termination of Gaussian 16 at Thu Dec 10 17:12:00 2020.
 Gaussian 16:  ES64L-G16RevA.03 25-Dec-2016

 ----------------------------------------------------------------------
 # B3LYP/6-311++G(d,p) empiricaldispersion=gd3bj scf=xqc pop=npa geom=c
 heck
 ----------------------------------------------------------------------

 ------------------------------------
 CID_121271032_JID_5669_Energie_anion
 ------------------------------------
 Structure from the checkpoint file:  "JID_5669.chk"
 Charge = -1 Multiplicity = 2

                         Standard orientation:
 ---------------------------------------------------------------------
 Center     Atomic      Atomic             Coordinates (Angstroms)
 Number     Number       Type             X           Y           Z
 ---------------------------------------------------------------------
      1          6           0       -3.928700   -0.493236   -1.136081
      2          6           0       -3.366816    0.283092    0.057478
      3          6           0       -3.783245   -0.302155    1.409154
      4          7           0       -1.889057    0.422680   -0.037500
      5          6           0       -1.340382    1.654181   -0.162381
      6          6           0        0.010881    1.827976   -0.255511
      7          6           0        0.812866    0.654456   -0.215419
      8          7           0        0.301858   -0.550749   -0.090599
      9          6           0       -1.057628   -0.748554    0.002693
     10          8           0       -1.574088   -1.851414    0.115282
     11          6           0        2.315110    0.752760   -0.262724
     12          6           0        2.987209   -0.273369   -1.220858
     13          6           0        3.861456   -1.149151   -0.289498
     14          7           0        4.193469   -0.320960    0.878636
     15          6           0        2.952865    0.408703    1.135132
     16          1           0       -3.575271   -1.524703   -1.120429
     17          1           0       -3.624441   -0.026650   -2.079147
     18          1           0       -5.022935   -0.488295   -1.088212
     19          1           0       -3.740857    1.311837    0.001616
     20          1           0       -3.425252   -1.327468    1.507328
     21          1           0       -3.377982    0.296856    2.231686
     22          1           0       -4.875862   -0.294916    1.485375
     23          1           0       -2.038841    2.485215   -0.185540
     24          1           0        0.442215    2.815539   -0.357875
     25          1           0        2.592336    1.774047   -0.544693
     26          1           0        3.608571    0.254337   -1.953034
     27          1           0        2.245664   -0.864125   -1.762857
     28          1           0        3.276627   -2.007403    0.059404
     29          1           0        4.770168   -1.526792   -0.767283
     30          1           0        4.912237    0.349039    0.601842
     31          1           0        3.133374    1.294546    1.750689
     32          1           0        2.267366   -0.254758    1.673204
 ---------------------------------------------------------------------

 SCF Done:  E(UB3LYP) =  -669.138382488     A.U. after   33 cycles
 SCF Done:  E(UB3LYP) =  -669.138382488     a.u. after    1 cycles

 The electronic state is 2-A.
 Alpha  occ. eigenvalues --  -18.91439 -14.19022 -14.17944 -14.10556 -10.11912
 Alpha  occ. eigenvalues --  -10.09006 -10.06835 -10.05882 -10.04006 -10.03996
 Alpha  occ. eigenvalues --  -10.03752 -10.03555 -10.03414 -10.02801 -10.00546
 Alpha  occ. eigenvalues --   -0.88141  -0.80166  -0.79842  -0.74067  -0.65974
 Alpha  occ. eigenvalues --   -0.63266  -0.60469  -0.58899  -0.57168  -0.50500
 Alpha  occ. eigenvalues --   -0.49380  -0.47944  -0.45157  -0.42611  -0.38734
 Alpha  occ. eigenvalues --   -0.37151  -0.35436  -0.33876  -0.32469  -0.31646
 Alpha  occ. eigenvalues --   -0.30774  -0.30310  -0.29179  -0.28281  -0.27797
 Alpha  occ. eigenvalues --   -0.26195  -0.25937  -0.25242  -0.23959  -0.23538
 Alpha  occ. eigenvalues --   -0.22765  -0.22256  -0.21863  -0.20141  -0.19667
 Alpha  occ. eigenvalues --   -0.18340  -0.14920  -0.11565  -0.10412  -0.08571
 Alpha  occ. eigenvalues --   -0.07096   0.05824
 Alpha virt. eigenvalues --    0.07733   0.08062   0.09657   0.10149   0.10394
 Alpha virt. eigenvalues --    0.10713   0.11340   0.12227   0.12454   0.13481
 Alpha virt. eigenvalues --    0.13831   0.13950   0.14527   0.14907   0.15613

  Beta  occ. eigenvalues --  -18.91438 -14.18633 -14.17929 -14.10205 -10.11933
  Beta  occ. eigenvalues --  -10.09023 -10.06833 -10.05822 -10.03994 -10.03983
  Beta  occ. eigenvalues --  -10.03597 -10.03375 -10.03182 -10.02315 -10.00710
  Beta  occ. eigenvalues --   -0.87952  -0.79917  -0.79485  -0.73361  -0.65741
  Beta  occ. eigenvalues --   -0.62987  -0.60203  -0.58654  -0.57131  -0.49970
  Beta  occ. eigenvalues --   -0.48973  -0.47841  -0.45056  -0.42400  -0.38659
  Beta  occ. eigenvalues --   -0.36827  -0.35204  -0.33723  -0.32388  -0.31032
  Beta  occ. eigenvalues --   -0.30712  -0.30189  -0.29089  -0.27985  -0.27678
  Beta  occ. eigenvalues --   -0.25957  -0.25479  -0.25171  -0.23825  -0.23289
  Beta  occ. eigenvalues --   -0.22677  -0.22193  -0.21612  -0.19965  -0.19520
  Beta  occ. eigenvalues --   -0.16974  -0.13064  -0.11046  -0.10257  -0.08194
  Beta  occ. eigenvalues --   -0.05870
  Beta virt. eigenvalues --    0.07668   0.07996   0.09577   0.10102   0.10323
  Beta virt. eigenvalues --    0.10665   0.11262   0.12122   0.12404   0.12792
  Beta virt. eigenvalues --    0.13546   0.13795   0.14176   0.14499   0.15071

 Mulliken charges and spin densities:
               1          2
     1  C   -0.454885  -0.002574
     2  C    0.012382  -0.001290
     3  C   -0.450930  -0.001111
     4  N    0.278744   0.091070
     5  C   -0.466302   0.471664
     6  C   -0.210689  -0.074473
     7  C   -0.023878   0.294323
     8  N   -0.171426   0.186407
     9  C    0.064585   0.014211
    10  O   -0.361352   0.000785
    11  C    0.100585  -0.009354
    12  C   -0.338148  -0.022075
    13  C   -0.488798  -0.032693
    14  N   -0.058628   0.006197
    15  C   -0.771350   0.014612
    16  H    0.187721  -0.000287
    17  H    0.131805   0.006807
    18  H    0.100499   0.001223
    19  H    0.087117   0.000558
    20  H    0.186719   0.000886
    21  H    0.137336   0.001195
    22  H    0.089429   0.011473
    23  H    0.067038  -0.039114
    24  H    0.118375   0.010345
    25  H    0.161485   0.005034
    26  H    0.045355   0.052636
    27  H    0.189193  -0.006488
    28  H    0.180007  -0.000274
    29  H    0.120143   0.016106
    30  H    0.187316   0.004600
    31  H    0.130829   0.004108
    32  H    0.219722  -0.004505
 Sum of Mulliken charges =  -1.00000   1.00000

 Dipole moment (field-independent basis, Debye):
    X=             -0.1205    Y=              3.6098    Z=             -0.7755  Tot=              3.6941
 Quadrupole moment (field-independent basis, Debye-Ang):
   XX=           -120.7305   YY=           -110.9294   ZZ=           -104.5008
   XY=              0.6862   XZ=             -5.1313   YZ=              2.7889

 Summary of Natural Population Analysis:

                                       Natural Population
                Natural  -----------------------------------------------
    Atom  No    Charge         Core      Valence    Rydberg      Total
 -----------------------------------------------------------------------
      C    1   -0.29041      0.99964     2.28627    0.00450     3.29041
      C    2    0.00015      0.99963     1.99025    0.00997     2.99985
      C    3   -0.29048      0.99964     2.28634    0.00450     3.29048
      N    4   -0.19141      0.99961     2.68011    0.01169     3.69141
      C    5    0.15226      0.99958     1.83713    0.01102     2.84774
      C    6   -0.21311      0.99952     2.20412    0.00947     3.21311
      C    7    0.21636      0.99955     1.76942    0.01467     2.78364
      N    8   -0.26122      0.99962     2.74811    0.01350     3.76122
      C    9    0.39339      0.99968     1.58108    0.02586     2.60661
      O   10   -0.35910      0.99987     3.35318    0.00604     4.35910
      C   11   -0.13132      0.99958     2.12161    0.01014     3.13132
      C   12   -0.19266      0.99963     2.18506    0.00796     3.19266
      C   13   -0.09364      0.99965     2.08423    0.00976     3.09364
      N   14   -0.33564      0.99977     2.82352    0.01235     3.83564
      C   15   -0.07871      0.99963     2.06834    0.01074     3.07871
      H   16    0.11605      0.00000     0.38292    0.00103     0.38395
      H   17    0.09811      0.00000     0.40106    0.00083     0.40189
      H   18    0.08783      0.00000     0.41126    0.00091     0.41217
      H   19    0.08624      0.00000     0.41216    0.00160     0.41376
      H   20    0.11615      0.00000     0.38282    0.00103     0.38385
      H   21    0.09804      0.00000     0.40113    0.00083     0.40196
      H   22    0.08794      0.00000     0.41115    0.00091     0.41206
      H   23    0.07727      0.00000     0.42164    0.00110     0.42273
      H   24    0.09480      0.00000     0.40401    0.00118     0.40520
      H   25    0.09010      0.00000     0.40839    0.00151     0.40990
      H   26    0.08386      0.00000     0.41405    0.00210     0.41614
      H   27    0.11223      0.00000     0.38681    0.00095     0.38777
      H   28    0.09571      0.00000     0.40289    0.00140     0.40429
      H   29    0.08478      0.00000     0.41404    0.00119     0.41522
      H   30    0.16005      0.00000     0.33777    0.00218     0.33995
      H   31    0.08711      0.00000     0.41173    0.00116     0.41289
      H   32    0.09929      0.00000     0.39936    0.00135     0.40071
 =======================================================================
   * Total *    0.00000     14.99459    40.82199    0.18342    56.00000

 Normal termination of Gaussian 16 at Thu Dec 10 17:28:44 2020.
