 Gaussian 16, Revision A.03,

 -----------------------------------------------------------
 # opt freq B3LYP/6-31G(d) empiricaldispersion=gd3bj scf=xqc
 -----------------------------------------------------------

 -------------------------------
 CID_104692954_JID_4128_neutraal
 -------------------------------
 Symbolic Z-matrix:
 Charge =  0 Multiplicity = 1

 SCF Done:  E(RB3LYP) =  -924.097216380     A.U. after   14 cycles
 SCF Done:  E(RB3LYP) =  -924.102760260     A.U. after   12 cycles
 SCF Done:  E(RB3LYP) =  -924.103780017     A.U. after   12 cycles
 SCF Done:  E(RB3LYP) =  -924.104654373     A.U. after   11 cycles
 SCF Done:  E(RB3LYP) =  -924.105178048     A.U. after   11 cycles
 SCF Done:  E(RB3LYP) =  -924.105510265     A.U. after   11 cycles
 SCF Done:  E(RB3LYP) =  -924.105862193     A.U. after   12 cycles
 SCF Done:  E(RB3LYP) =  -924.105455324     A.U. after   12 cycles
 SCF Done:  E(RB3LYP) =  -924.106120062     A.U. after   12 cycles
 SCF Done:  E(RB3LYP) =  -924.105732613     A.U. after   12 cycles
 SCF Done:  E(RB3LYP) =  -924.107245564     A.U. after   11 cycles
 SCF Done:  E(RB3LYP) =  -924.107268196     A.U. after   11 cycles
 SCF Done:  E(RB3LYP) =  -924.107263774     A.U. after    9 cycles
 SCF Done:  E(RB3LYP) =  -924.107265465     A.U. after    8 cycles
 SCF Done:  E(RB3LYP) =  -924.107266870     A.U. after    8 cycles
 Optimization completed.
    -- Stationary point found.
 Normal termination of Gaussian 16 at Thu Dec 10 09:50:48 2020.

 --------------------------------------------------------------------
 #N Geom=AllCheck Guess=TCheck SCRF=Check GenChk RB3LYP/6-31G(d) Freq
 --------------------------------------------------------------------

 Structure from the checkpoint file:  "JID_4128.chk"
 -------------------------------
 CID_104692954_JID_4128_neutraal
 -------------------------------
 Charge =  0 Multiplicity = 1

 SCF Done:  E(RB3LYP) =  -924.107266870     A.U. after    1 cycles

  Exact polarizability: 168.683   5.230 138.542  -8.044  -2.419 138.046
 Approx polarizability: 228.642  16.911 193.948 -13.884  -6.219 206.348

                      1                      2                      3
                      A                      A                      A
 Frequencies --     30.2715                37.0818                42.1585
 Red. masses --      4.3217                 3.8996                 4.7224
 Frc consts  --      0.0023                 0.0032                 0.0049
 IR Inten    --      0.3654                 0.0316                 0.1667

                      4                      5                      6
                      A                      A                      A
 Frequencies --     82.9467               101.7822               112.5412
 Red. masses --      2.6778                 2.4987                 3.2203
 Frc consts  --      0.0109                 0.0153                 0.0240
 IR Inten    --      0.5496                 0.4759                 0.3103

                      7                      8                      9
                      A                      A                      A
 Frequencies --    139.3835               195.2980               209.8398
 Red. masses --      2.8755                 1.8630                 1.9495
 Frc consts  --      0.0329                 0.0419                 0.0506
 IR Inten    --      0.7384                 8.0597                 1.3537

                     10                     11                     12
                      A                      A                      A
 Frequencies --    225.8397               244.3609               257.8314
 Red. masses --      1.8739                 1.7210                 1.5104
 Frc consts  --      0.0563                 0.0605                 0.0592
 IR Inten    --      0.0867                 6.8175                12.9807

                     13                     14                     15
                      A                      A                      A
 Frequencies --    275.5228               292.7235               321.2919
 Red. masses --      1.7907                 2.3258                 2.2990
 Frc consts  --      0.0801                 0.1174                 0.1398
 IR Inten    --      0.9683                 0.1597                 0.5957

                     16                     17                     18
                      A                      A                      A
 Frequencies --    352.0200               362.9731               370.8616
 Red. masses --      3.1043                 3.2513                 2.6732
 Frc consts  --      0.2266                 0.2524                 0.2166
 IR Inten    --      3.8058                 2.9731                 4.8540

                     19                     20                     21
                      A                      A                      A
 Frequencies --    385.3336               467.5384               503.4687
 Red. masses --      2.4660                 2.0092                 1.7839
 Frc consts  --      0.2157                 0.2588                 0.2664
 IR Inten    --      2.0830                 4.9814                 0.4628

                     22                     23                     24
                      A                      A                      A
 Frequencies --    521.0521               534.1028               614.3785
 Red. masses --      2.0539                 2.2177                 2.7833
 Frc consts  --      0.3285                 0.3727                 0.6190
 IR Inten    --      5.1673                 4.8629                 1.9342

                     25                     26                     27
                      A                      A                      A
 Frequencies --    674.5357               717.0250               782.0667
 Red. masses --      3.8349                 2.5128                 1.4139
 Frc consts  --      1.0281                 0.7611                 0.5095
 IR Inten    --     12.5381                 2.8868                 2.7716

                     28                     29                     30
                      A                      A                      A
 Frequencies --    791.8964               815.1544               825.8979
 Red. masses --      1.3027                 2.0643                 1.7641
 Frc consts  --      0.4813                 0.8082                 0.7090
 IR Inten    --      0.3416                 1.4652                 0.9438

                     31                     32                     33
                      A                      A                      A
 Frequencies --    846.8561               867.0603               882.6775
 Red. masses --      1.7570                 1.5636                 2.4053
 Frc consts  --      0.7424                 0.6926                 1.1041
 IR Inten    --      4.8511                 2.1476                 1.3830

                     34                     35                     36
                      A                      A                      A
 Frequencies --    922.9009               938.4443               976.3768
 Red. masses --      2.0862                 1.9189                 1.9066
 Frc consts  --      1.0470                 0.9957                 1.0709
 IR Inten    --      4.7146                15.6672                 8.3004

                     37                     38                     39
                      A                      A                      A
 Frequencies --    992.0108               995.4740              1001.1210
 Red. masses --      1.7198                 1.8277                 1.6700
 Frc consts  --      0.9972                 1.0671                 0.9861
 IR Inten    --      2.7324                 6.5974                23.1785

                     40                     41                     42
                      A                      A                      A
 Frequencies --   1012.1831              1043.6015              1060.3317
 Red. masses --      1.2140                 1.8531                 1.8489
 Frc consts  --      0.7328                 1.1891                 1.2248
 IR Inten    --     28.8722                 1.6424                 5.8512

                     43                     44                     45
                      A                      A                      A
 Frequencies --   1069.8583              1079.7035              1104.6369
 Red. masses --      1.6518                 3.1954                 2.2909
 Frc consts  --      1.1139                 2.1948                 1.6470
 IR Inten    --      2.5581                 3.0624                14.7964

                     46                     47                     48
                      A                      A                      A
 Frequencies --   1111.4196              1119.6195              1141.0616
 Red. masses --      2.1064                 1.9105                 1.6508
 Frc consts  --      1.5330                 1.4111                 1.2664
 IR Inten    --     18.5957                 3.5403                25.3497

                     49                     50                     51
                      A                      A                      A
 Frequencies --   1174.9953              1189.8639              1230.0538
 Red. masses --      1.9357                 1.4790                 1.6322
 Frc consts  --      1.5746                 1.2337                 1.4550
 IR Inten    --      7.9736                30.3112                 8.2092

                     52                     53                     54
                      A                      A                      A
 Frequencies --   1234.6398              1261.4146              1283.1458
 Red. masses --      1.3677                 1.4340                 1.2637
 Frc consts  --      1.2283                 1.3444                 1.2259
 IR Inten    --      7.9365                 5.1405                 7.3916

                     55                     56                     57
                      A                      A                      A
 Frequencies --   1286.9335              1301.3928              1318.3938
 Red. masses --      1.3588                 1.1821                 1.1714
 Frc consts  --      1.3259                 1.1796                 1.1996
 IR Inten    --     14.5210                 2.2691                 1.7616

                     58                     59                     60
                      A                      A                      A
 Frequencies --   1337.3892              1340.5446              1347.8028
 Red. masses --      1.3795                 1.2794                 1.3213
 Frc consts  --      1.4537                 1.3546                 1.4142
 IR Inten    --     11.0906                 1.3457                 5.9213

                     61                     62                     63
                      A                      A                      A
 Frequencies --   1360.5933              1381.0764              1393.7246
 Red. masses --      1.2335                 1.3770                 1.4439
 Frc consts  --      1.3454                 1.5475                 1.6525
 IR Inten    --      3.8175                 0.0690                 6.1242

                     64                     65                     66
                      A                      A                      A
 Frequencies --   1399.8913              1401.5200              1403.2565
 Red. masses --      1.4493                 1.3039                 1.3028
 Frc consts  --      1.6734                 1.5090                 1.5115
 IR Inten    --     11.3461                16.1295                 4.0903

                     67                     68                     69
                      A                      A                      A
 Frequencies --   1415.3042              1417.8160              1425.3776
 Red. masses --      1.4079                 1.3825                 1.3160
 Frc consts  --      1.6616                 1.6374                 1.5753
 IR Inten    --     24.7379                 6.8252                 0.7472

                     70                     71                     72
                      A                      A                      A
 Frequencies --   1438.9025              1462.6660              1500.4291
 Red. masses --      1.3745                 1.3345                 1.0894
 Frc consts  --      1.6767                 1.6821                 1.4451
 IR Inten    --     10.3664                10.8739                 7.8617

                     73                     74                     75
                      A                      A                      A
 Frequencies --   1504.1536              1507.2295              1508.2621
 Red. masses --      1.1065                 1.0933                 1.0924
 Frc consts  --      1.4750                 1.4634                 1.4641
 IR Inten    --      3.5528                 2.0470                 7.2217

                     76                     77                     78
                      A                      A                      A
 Frequencies --   1514.1695              1515.1423              1523.7005
 Red. masses --      1.0761                 1.0868                 1.1026
 Frc consts  --      1.4536                 1.4699                 1.5082
 IR Inten    --      1.6776                 1.3256                 3.8799

                     79                     80                     81
                      A                      A                      A
 Frequencies --   1532.1971              1533.6054              1542.3186
 Red. masses --      1.0466                 1.0814                 1.0600
 Frc consts  --      1.4477                 1.4986                 1.4856
 IR Inten    --      2.9990                 3.8189                 6.8549

                     82                     83                     84
                      A                      A                      A
 Frequencies --   1736.1320              2679.3826              3009.9560
 Red. masses --      5.8716                 1.0384                 1.0764
 Frc consts  --     10.4274                 4.3924                 5.7455
 IR Inten    --      0.4181                11.3933                23.4547

                     85                     86                     87
                      A                      A                      A
 Frequencies --   3016.2010              3017.6116              3022.6359
 Red. masses --      1.0653                 1.0659                 1.0645
 Frc consts  --      5.7099                 5.7187                 5.7302
 IR Inten    --     28.5023                 2.6575                36.0660

                     88                     89                     90
                      A                      A                      A
 Frequencies --   3027.3585              3031.4960              3034.9992
 Red. masses --      1.0621                 1.0649                 1.0641
 Frc consts  --      5.7352                 5.7658                 5.7752
 IR Inten    --     24.6196                52.3585                56.7793

                     91                     92                     93
                      A                      A                      A
 Frequencies --   3042.2299              3051.0560              3059.2224
 Red. masses --      1.0624                 1.0407                 1.0993
 Frc consts  --      5.7932                 5.7077                 6.0614
 IR Inten    --      9.8128                23.6642                31.7127

                     94                     95                     96
                      A                      A                      A
 Frequencies --   3061.3547              3063.8482              3069.5759
 Red. masses --      1.0985                 1.1010                 1.0991
 Frc consts  --      6.0654                 6.0895                 6.1014
 IR Inten    --     36.2074                21.5499                67.1194

                     97                     98                     99
                      A                      A                      A
 Frequencies --   3070.5406              3074.2339              3078.9484
 Red. masses --      1.0983                 1.0590                 1.1004
 Frc consts  --      6.1011                 5.8967                 6.1462
 IR Inten    --     43.7883                22.2721                30.1836

                    100                    101                    102
                      A                      A                      A
 Frequencies --   3088.3298              3112.3440              3125.1758
 Red. masses --      1.0976                 1.1016                 1.1021
 Frc consts  --      6.1677                 6.2871                 6.3418
 IR Inten    --    120.5368                48.8210                33.8662

                    103                    104                    105
                      A                      A                      A
 Frequencies --   3125.3950              3154.4163              3159.5908
 Red. masses --      1.1055                 1.0921                 1.0865
 Frc consts  --      6.3624                 6.4027                 6.3907
 IR Inten    --      7.1274                 2.0603                34.6578

 - Thermochemistry -
 -------------------
 Temperature   298.150 Kelvin.  Pressure   1.00000 Atm.
 Atom     1 has atomic number  6 and mass  12.00000

 Molecular mass:   213.15512 amu.
 Principal axes and moments of inertia in atomic units:
                           1         2         3
     Eigenvalues --  2425.095435042.884285380.86460
           X            0.99977  -0.01094   0.01841
           Y            0.01125   0.99980  -0.01679
           Z           -0.01822   0.01700   0.99969
 This molecule is an asymmetric top.
 Rotational symmetry number  1.
 Warning -- assumption of classical behavior for rotation
           may cause significant error
 Rotational temperatures (Kelvin)      0.03572     0.01718     0.01610
 Rotational constants (GHZ):           0.74419     0.35788     0.33540
 Zero-point vibrational energy     881363.4 (Joules/Mol)
                                  210.65091 (Kcal/Mol)
 Warning -- explicit consideration of  24 degrees of freedom as
           vibrations may cause significant error
 Vibrational temperatures:     43.55    53.35    60.66   119.34   146.44
          (Kelvin)            161.92   200.54   280.99   301.91   324.93
                              351.58   370.96   396.42   421.16   462.27
                              506.48   522.24   533.59   554.41   672.68
                              724.38   749.68   768.45   883.95   970.51
                             1031.64  1125.22  1139.36  1172.83  1188.28
                             1218.44  1247.51  1269.98  1327.85  1350.21
                             1404.79  1427.28  1432.27  1440.39  1456.31
                             1501.51  1525.58  1539.29  1553.45  1589.33
                             1599.08  1610.88  1641.73  1690.56  1711.95
                             1769.77  1776.37  1814.89  1846.16  1851.61
                             1872.41  1896.87  1924.20  1928.74  1939.19
                             1957.59  1987.06  2005.26  2014.13  2016.47
                             2018.97  2036.31  2039.92  2050.80  2070.26
                             2104.45  2158.78  2164.14  2168.57  2170.05
                             2178.55  2179.95  2192.27  2204.49  2206.52
                             2219.05  2497.91  3855.03  4330.66  4339.64
                             4341.67  4348.90  4355.69  4361.65  4366.69
                             4377.09  4389.79  4401.54  4404.61  4408.19
                             4416.44  4417.82  4423.14  4429.92  4443.42
                             4477.97  4496.43  4496.75  4538.50  4545.95

 Zero-point correction=                           0.335694 (Hartree/Particle)
 Thermal correction to Energy=                    0.351764
 Thermal correction to Enthalpy=                  0.352708
 Thermal correction to Gibbs Free Energy=         0.291275
 Sum of electronic and zero-point Energies=           -923.771573
 Sum of electronic and thermal Energies=              -923.755503
 Sum of electronic and thermal Enthalpies=            -923.754558
 Sum of electronic and thermal Free Energies=         -923.815992

                     E (Thermal)             CV                S
                      KCal/Mol        Cal/Mol-Kelvin    Cal/Mol-Kelvin
 Total                  220.735             60.671            129.297
 Electronic               0.000              0.000              0.000
 Translational            0.889              2.981             41.974
 Rotational               0.889              2.981             32.553
 Vibrational            218.958             54.709             54.770
 Vibration     1          0.594              1.984              5.812
 Vibration     2          0.594              1.982              5.409
 Vibration     3          0.595              1.980              5.155
 Vibration     4          0.600              1.961              3.820
 Vibration     5          0.604              1.948              3.420
 Vibration     6          0.607              1.939              3.225
 Vibration     7          0.615              1.914              2.812
 Vibration     8          0.636              1.846              2.177
 Vibration     9          0.642              1.826              2.045
 Vibration    10          0.650              1.802              1.912
 Vibration    11          0.660              1.772              1.771
 Vibration    12          0.667              1.750              1.676
 Vibration    13          0.677              1.719              1.561
 Vibration    14          0.688              1.687              1.458
 Vibration    15          0.707              1.633              1.304
 Vibration    16          0.729              1.571              1.157
 Vibration    17          0.737              1.549              1.109
 Vibration    18          0.743              1.532              1.076
 Vibration    19          0.754              1.501              1.018
 Vibration    20          0.825              1.322              0.744
 Vibration    21          0.859              1.242              0.650
 Vibration    22          0.876              1.203              0.608
 Vibration    23          0.889              1.175              0.578
 Vibration    24          0.974              1.001              0.426

                           ! Non-Optimized Parameters !
 Normal termination of Gaussian 16 at Thu Dec 10 10:03:03 2020.

 ----------------------------------------------------------------------
 # B3LYP/6-311++G(d,p) empiricaldispersion=gd3bj scf=xqc pop=npa geom=c
 heck
 ----------------------------------------------------------------------

 ---------------------------------------
 CID_104692954_JID_4128_Energie_neutraal
 ---------------------------------------
 Structure from the checkpoint file:  "JID_4128.chk"
 Charge =  0 Multiplicity = 1

 SCF Done:  E(RB3LYP) =  -924.280502511     A.U. after   14 cycles
 Normal termination of Gaussian 16 at Thu Dec 10 10:08:20 2020.

 ----------------------------------------------------------------------
 # B3LYP/6-311++G(d,p) empiricaldispersion=gd3bj scf=xqc pop=npa geom=c
 heck
 ----------------------------------------------------------------------

 -------------------------------------
 CID_104692954_JID_4128_Energie_kation
 -------------------------------------
 Structure from the checkpoint file:  "JID_4128.chk"
 Charge =  1 Multiplicity = 2

 SCF Done:  E(UB3LYP) =  -924.018121460     A.U. after   23 cycles
 Normal termination of Gaussian 16 at Thu Dec 10 10:21:56 2020.
 Gaussian 16:  ES64L-G16RevA.03 25-Dec-2016

 ----------------------------------------------------------------------
 # B3LYP/6-311++G(d,p) empiricaldispersion=gd3bj scf=xqc pop=npa geom=c
 heck
 ----------------------------------------------------------------------

 ------------------------------------
 CID_104692954_JID_4128_Energie_anion
 ------------------------------------
 Structure from the checkpoint file:  "JID_4128.chk"
 Charge = -1 Multiplicity = 2

                         Standard orientation:
 ---------------------------------------------------------------------
 Center     Atomic      Atomic             Coordinates (Angstroms)
 Number     Number       Type             X           Y           Z
 ---------------------------------------------------------------------
      1          6           0       -3.338634    2.005584   -0.583535
      2          6           0       -1.822663    2.123506   -0.749373
      3          6           0       -1.046092    0.810135   -0.504545
      4          6           0       -1.326220   -0.240911   -1.588785
      5          6           0       -0.530663   -1.548474   -1.430264
      6          6           0       -1.226401   -2.597907   -0.552725
      7          6           0       -1.371929   -2.219227    0.924395
      8          6           0       -2.027531   -0.844920    1.169653
      9          7           0       -1.244481    0.338206    0.868254
     10          6           0       -0.226848    0.751139    1.826185
     11          6           0        1.138395    0.146519    1.592417
     12          6           0        2.171158    0.814521    1.068382
     13          6           0        3.480412    0.187798    0.715691
     14         16           0        3.780340    0.179882   -1.116378
     15          1           0       -3.780386    1.322248   -1.317841
     16          1           0       -3.824378    2.979570   -0.709023
     17          1           0       -3.582104    1.633915    0.417236
     18          1           0       -1.578622    2.498663   -1.753268
     19          1           0       -1.446615    2.873819   -0.041275
     20          1           0        0.021174    1.051864   -0.609500
     21          1           0       -1.074350    0.227827   -2.548199
     22          1           0       -2.397261   -0.473255   -1.643982
     23          1           0       -0.367585   -1.987543   -2.422518
     24          1           0        0.465523   -1.323011   -1.023306
     25          1           0       -2.226553   -2.784812   -0.971191
     26          1           0       -0.683293   -3.549303   -0.625670
     27          1           0       -1.979445   -2.985375    1.427043
     28          1           0       -0.390220   -2.238426    1.412878
     29          1           0       -2.968103   -0.795919    0.606181
     30          1           0       -2.310409   -0.779779    2.229024
     31          1           0       -0.134301    1.846255    1.794763
     32          1           0       -0.589651    0.495457    2.829669
     33          1           0        1.249906   -0.917182    1.801760
     34          1           0        2.067589    1.874462    0.835395
     35          1           0        4.327069    0.757161    1.113894
     36          1           0        3.551255   -0.834361    1.097415
     37          1           0        2.638783   -0.464413   -1.440186
 ---------------------------------------------------------------------

 SCF Done:  E(UB3LYP) =  -924.265117829     A.U. after   33 cycles
 SCF Done:  E(UB3LYP) =  -924.265117829     a.u. after    1 cycles

 The electronic state is 2-A.
 Alpha  occ. eigenvalues --  -88.75031 -14.20002 -10.11481 -10.10496 -10.09941
 Alpha  occ. eigenvalues --  -10.09485 -10.08514 -10.07834 -10.06780 -10.06719
 Alpha  occ. eigenvalues --  -10.06564 -10.06338 -10.06234 -10.06133  -7.83696
 Alpha  occ. eigenvalues --   -5.80072  -5.79727  -5.79077  -0.82767  -0.72675
 Alpha  occ. eigenvalues --   -0.70514  -0.69429  -0.66629  -0.64496  -0.60783
 Alpha  occ. eigenvalues --   -0.57307  -0.56668  -0.53180  -0.50996  -0.47099
 Alpha  occ. eigenvalues --   -0.46822  -0.44172  -0.40079  -0.39074  -0.37707
 Alpha  occ. eigenvalues --   -0.36690  -0.35898  -0.34427  -0.33302  -0.32184
 Alpha  occ. eigenvalues --   -0.32038  -0.31498  -0.31011  -0.30772  -0.28996
 Alpha  occ. eigenvalues --   -0.27826  -0.27341  -0.26353  -0.25896  -0.25610
 Alpha  occ. eigenvalues --   -0.24628  -0.24169  -0.22645  -0.22271  -0.22160
 Alpha  occ. eigenvalues --   -0.20989  -0.17031  -0.14818  -0.10258   0.04369
 Alpha virt. eigenvalues --    0.06093   0.06514   0.06824   0.07747   0.08044
 Alpha virt. eigenvalues --    0.08272   0.08835   0.09183   0.09419   0.10360
 Alpha virt. eigenvalues --    0.10819   0.11491   0.11657   0.11826   0.12055

  Beta  occ. eigenvalues --  -88.75021 -14.20000 -10.11451 -10.10485 -10.09939
  Beta  occ. eigenvalues --  -10.09469 -10.08510 -10.07824 -10.06771 -10.06705
  Beta  occ. eigenvalues --  -10.06546 -10.06318 -10.06216 -10.06116  -7.83685
  Beta  occ. eigenvalues --   -5.80048  -5.79721  -5.79069  -0.82757  -0.72648
  Beta  occ. eigenvalues --   -0.70484  -0.69402  -0.66594  -0.64467  -0.60747
  Beta  occ. eigenvalues --   -0.57271  -0.56622  -0.53123  -0.50951  -0.47041
  Beta  occ. eigenvalues --   -0.46774  -0.44134  -0.40058  -0.39045  -0.37672
  Beta  occ. eigenvalues --   -0.36641  -0.35864  -0.34409  -0.33271  -0.32149
  Beta  occ. eigenvalues --   -0.32004  -0.31468  -0.30978  -0.30714  -0.28963
  Beta  occ. eigenvalues --   -0.27795  -0.27307  -0.26327  -0.25866  -0.25573
  Beta  occ. eigenvalues --   -0.24595  -0.24133  -0.22610  -0.22241  -0.22129
  Beta  occ. eigenvalues --   -0.20958  -0.17008  -0.14791  -0.10239
  Beta virt. eigenvalues --    0.06302   0.06810   0.07099   0.07359   0.07924
  Beta virt. eigenvalues --    0.08305   0.08775   0.09318   0.09460   0.09706
  Beta virt. eigenvalues --    0.10846   0.11056   0.11847   0.11963   0.11987

 Mulliken charges and spin densities:
               1          2
     1  C    0.011312  -0.626078
     2  C   -0.144971   0.040516
     3  C   -0.793160   0.513079
     4  C    0.011529  -0.514181
     5  C   -0.171142   0.181951
     6  C    1.058891  -1.658415
     7  C   -0.426610   0.358386
     8  C    0.328381  -0.695262
     9  N    0.184332   0.106497
    10  C   -0.398973  -0.197129
    11  C    1.049691  -1.197370
    12  C   -1.180620   1.533475
    13  C    0.811090  -1.513787
    14  S    0.320332  -0.262938
    15  H   -0.095571   0.228540
    16  H   -0.218616   0.370619
    17  H   -0.021529   0.182980
    18  H    0.033492   0.081708
    19  H    0.057119   0.076700
    20  H    0.321802  -0.168327
    21  H   -0.034849   0.210341
    22  H    0.091108   0.030072
    23  H   -0.373230   0.559369
    24  H    1.073842  -0.971197
    25  H    0.017326   0.115913
    26  H   -0.477741   0.648995
    27  H   -0.467469   0.638370
    28  H   -0.066035   0.171885
    29  H    0.098048   0.054813
    30  H   -0.081424   0.240545
    31  H    0.149683   0.018487
    32  H   -0.213508   0.363760
    33  H   -0.136492   0.247973
    34  H   -0.236346   0.364973
    35  H   -0.372792   0.576429
    36  H   -0.203535   0.440967
    37  H   -0.503365   0.447341
 Sum of Mulliken charges =  -1.00000   1.00000

 Dipole moment (field-independent basis, Debye):
    X=             -0.4651    Y=              3.3060    Z=             -0.2893  Tot=              3.3511
 Quadrupole moment (field-independent basis, Debye-Ang):
   XX=           -172.3800   YY=           -152.9283   ZZ=           -141.4077
   XY=             -0.1961   XZ=             -0.5188   YZ=              1.6413

 Summary of Natural Population Analysis:

                                       Natural Population
                Natural  -----------------------------------------------
    Atom  No    Charge         Core      Valence    Rydberg      Total
 -----------------------------------------------------------------------
      C    1   -0.28792      0.99966     2.28386    0.00441     3.28792
      C    2   -0.18916      0.99961     2.18071    0.00883     3.18916
      C    3    0.00070      0.99956     1.98716    0.01258     2.99930
      C    4   -0.19656      0.99960     2.18794    0.00902     3.19656
      C    5   -0.19217      0.99962     2.18357    0.00898     3.19217
      C    6   -0.18532      0.99962     2.17736    0.00833     3.18532
      C    7   -0.19714      0.99961     2.18896    0.00856     3.19714
      C    8   -0.08062      0.99960     2.06890    0.01212     3.08062
      N    9   -0.29006      0.99970     2.77544    0.01493     3.79006
      C   10   -0.09387      0.99959     2.08182    0.01246     3.09387
      C   11   -0.09106      0.99949     2.08206    0.00951     3.09106
      C   12   -0.10541      0.99950     2.09485    0.01107     3.10541
      C   13   -0.25059      0.99956     2.23988    0.01115     3.25059
      S   14   -0.02626      4.99967     3.01224    0.01435     8.02626
      H   15    0.09470      0.00000     0.40417    0.00112     0.40530
      H   16    0.09681      0.00000     0.40227    0.00092     0.40319
      H   17    0.10068      0.00000     0.39797    0.00136     0.39932
      H   18    0.09253      0.00000     0.40645    0.00103     0.40747
      H   19    0.09391      0.00000     0.40491    0.00119     0.40609
      H   20    0.09550      0.00000     0.40155    0.00295     0.40450
      H   21    0.10126      0.00000     0.39761    0.00114     0.39874
      H   22    0.09538      0.00000     0.40310    0.00152     0.40462
      H   23    0.09879      0.00000     0.40005    0.00116     0.40121
      H   24    0.09362      0.00000     0.40369    0.00269     0.40638
      H   25    0.09082      0.00000     0.40776    0.00141     0.40918
      H   26    0.10028      0.00000     0.39825    0.00147     0.39972
      H   27    0.09741      0.00000     0.40098    0.00160     0.40259
      H   28    0.09224      0.00000     0.40553    0.00223     0.40776
      H   29    0.09331      0.00000     0.40527    0.00142     0.40669
      H   30    0.09492      0.00000     0.40374    0.00135     0.40508
      H   31    0.09143      0.00000     0.40723    0.00134     0.40857
      H   32    0.09930      0.00000     0.39949    0.00122     0.40070
      H   33    0.09276      0.00000     0.40533    0.00191     0.40724
      H   34    0.09481      0.00000     0.40379    0.00140     0.40519
      H   35    0.10783      0.00000     0.39052    0.00165     0.39217
      H   36    0.10526      0.00000     0.39298    0.00176     0.39474
      H   37    0.06191      0.00000     0.43495    0.00313     0.43809
 =======================================================================
   * Total *   -0.00000     17.99440    40.82232    0.18328    59.00000

 Normal termination of Gaussian 16 at Thu Dec 10 10:47:10 2020.
