 Gaussian 16, Revision A.03,

 -----------------------------------------------------------
 # opt freq B3LYP/6-31G(d) empiricaldispersion=gd3bj scf=xqc
 -----------------------------------------------------------

 ------------------------------
 CID_90584234_JID_6066_neutraal
 ------------------------------
 Symbolic Z-matrix:
 Charge =  0 Multiplicity = 1

 SCF Done:  E(RB3LYP) =  -1074.57430690     A.U. after   14 cycles
 SCF Done:  E(RB3LYP) =  -1074.57776477     A.U. after   13 cycles
 SCF Done:  E(RB3LYP) =  -1074.57526592     A.U. after   12 cycles
 SCF Done:  E(RB3LYP) =  -1074.57927573     A.U. after   12 cycles
 SCF Done:  E(RB3LYP) =  -1074.57900366     A.U. after   12 cycles
 SCF Done:  E(RB3LYP) =  -1074.57999068     A.U. after   12 cycles
 SCF Done:  E(RB3LYP) =  -1074.58172620     A.U. after   11 cycles
 SCF Done:  E(RB3LYP) =  -1074.58179400     A.U. after   12 cycles
 SCF Done:  E(RB3LYP) =  -1074.58208249     A.U. after   11 cycles
 SCF Done:  E(RB3LYP) =  -1074.58216076     A.U. after   10 cycles
 SCF Done:  E(RB3LYP) =  -1074.58271131     A.U. after   10 cycles
 SCF Done:  E(RB3LYP) =  -1074.58271294     A.U. after    9 cycles
 SCF Done:  E(RB3LYP) =  -1074.58271433     A.U. after    8 cycles
 SCF Done:  E(RB3LYP) =  -1074.58271468     A.U. after    8 cycles
 SCF Done:  E(RB3LYP) =  -1074.58271494     A.U. after    7 cycles
 Optimization completed.
    -- Stationary point found.
 Normal termination of Gaussian 16 at Thu Dec 10 21:35:10 2020.

 --------------------------------------------------------------------
 #N Geom=AllCheck Guess=TCheck SCRF=Check GenChk RB3LYP/6-31G(d) Freq
 --------------------------------------------------------------------

 Structure from the checkpoint file:  "JID_6066.chk"
 ------------------------------
 CID_90584234_JID_6066_neutraal
 ------------------------------
 Charge =  0 Multiplicity = 1

 SCF Done:  E(RB3LYP) =  -1074.58271494     A.U. after    1 cycles

  Exact polarizability: 164.541   6.408 147.331  -4.591   3.303 139.006
 Approx polarizability: 209.422  14.408 230.007  -5.569  10.517 209.874

                      1                      2                      3
                      A                      A                      A
 Frequencies --     34.5084                44.8890                55.8893
 Red. masses --      3.9144                 3.9803                 3.7580
 Frc consts  --      0.0027                 0.0047                 0.0069
 IR Inten    --      0.2468                 0.5715                 0.8896

                      4                      5                      6
                      A                      A                      A
 Frequencies --     70.8094                80.4330               101.6396
 Red. masses --      3.5424                 4.4386                 3.2541
 Frc consts  --      0.0105                 0.0169                 0.0198
 IR Inten    --      0.2458                 1.3561                 5.7264

                      7                      8                      9
                      A                      A                      A
 Frequencies --    114.8966               125.7232               167.1008
 Red. masses --      2.3044                 2.1323                 2.7629
 Frc consts  --      0.0179                 0.0199                 0.0455
 IR Inten    --      1.1464                 1.8191                 0.7248

                     10                     11                     12
                      A                      A                      A
 Frequencies --    187.2911               187.7734               220.4658
 Red. masses --      1.8790                 2.3177                 2.3054
 Frc consts  --      0.0388                 0.0481                 0.0660
 IR Inten    --      0.3125                 0.1355                 2.3516

                     13                     14                     15
                      A                      A                      A
 Frequencies --    232.3438               238.9832               253.1468
 Red. masses --      1.8307                 1.3884                 1.8944
 Frc consts  --      0.0582                 0.0467                 0.0715
 IR Inten    --      1.4750                 0.2030                 0.5160

                     16                     17                     18
                      A                      A                      A
 Frequencies --    293.2027               297.0891               316.4237
 Red. masses --      2.0506                 2.8693                 2.0577
 Frc consts  --      0.1039                 0.1492                 0.1214
 IR Inten    --      0.1064                 5.6208                 1.2984

                     19                     20                     21
                      A                      A                      A
 Frequencies --    327.4454               354.9452               395.1048
 Red. masses --      2.5790                 3.6612                 3.7787
 Frc consts  --      0.1629                 0.2718                 0.3475
 IR Inten    --      3.0908                 1.2078                 0.2416

                     22                     23                     24
                      A                      A                      A
 Frequencies --    411.4250               425.6842               453.4063
 Red. masses --      2.8018                 2.9353                 3.7440
 Frc consts  --      0.2794                 0.3134                 0.4535
 IR Inten    --      1.6125                 4.9089                 0.2281

                     25                     26                     27
                      A                      A                      A
 Frequencies --    497.2225               554.9806               574.4523
 Red. masses --      3.4090                 3.3518                 3.9109
 Frc consts  --      0.4966                 0.6082                 0.7604
 IR Inten    --      1.5487                 7.2939                 8.4857

                     28                     29                     30
                      A                      A                      A
 Frequencies --    652.0476               677.2341               692.1220
 Red. masses --      3.1135                 2.0115                 2.7902
 Frc consts  --      0.7799                 0.5436                 0.7875
 IR Inten    --     21.3798                35.7587                22.8656

                     31                     32                     33
                      A                      A                      A
 Frequencies --    737.3999               755.1641               767.9675
 Red. masses --      2.1111                 2.4670                 2.9724
 Frc consts  --      0.6764                 0.8289                 1.0329
 IR Inten    --      7.2874                51.5597                37.2034

                     34                     35                     36
                      A                      A                      A
 Frequencies --    772.4371               804.1192               833.5258
 Red. masses --      4.2943                 1.3933                 1.5354
 Frc consts  --      1.5096                 0.5308                 0.6285
 IR Inten    --      8.1875                11.2586                 5.9957

                     37                     38                     39
                      A                      A                      A
 Frequencies --    851.4046               884.6312               915.1507
 Red. masses --      1.5734                 2.0759                 1.9413
 Frc consts  --      0.6720                 0.9572                 0.9579
 IR Inten    --      3.9988                 0.9572                 6.1953

                     40                     41                     42
                      A                      A                      A
 Frequencies --    926.3344               944.1929               966.1818
 Red. masses --      1.7795                 1.8506                 2.0826
 Frc consts  --      0.8997                 0.9720                 1.1454
 IR Inten    --      3.8399                 2.5819                 1.2323

                     43                     44                     45
                      A                      A                      A
 Frequencies --   1009.6637              1028.7767              1039.7900
 Red. masses --      2.2751                 2.1451                 1.3320
 Frc consts  --      1.3665                 1.3377                 0.8485
 IR Inten    --      7.2298                 1.6996                 1.5830

                     46                     47                     48
                      A                      A                      A
 Frequencies --   1041.6843              1067.7519              1086.5725
 Red. masses --      2.4765                 2.1912                 1.7938
 Frc consts  --      1.5833                 1.4719                 1.2478
 IR Inten    --      6.7689                 0.2554                45.3693

                     49                     50                     51
                      A                      A                      A
 Frequencies --   1095.5605              1126.7729              1133.4233
 Red. masses --      1.7390                 1.4747                 2.2401
 Frc consts  --      1.2298                 1.1031                 1.6955
 IR Inten    --     30.5922                19.3680                72.9410

                     52                     53                     54
                      A                      A                      A
 Frequencies --   1149.9538              1159.9457              1186.5777
 Red. masses --      2.1410                 2.4292                 1.9914
 Frc consts  --      1.6681                 1.9257                 1.6520
 IR Inten    --      6.4088                43.6457                 3.5680

                     55                     56                     57
                      A                      A                      A
 Frequencies --   1188.5987              1202.9717              1222.0903
 Red. masses --      1.3333                 2.3230                 1.4836
 Frc consts  --      1.1098                 1.9807                 1.3055
 IR Inten    --      9.0567                 7.2744                38.7335

                     58                     59                     60
                      A                      A                      A
 Frequencies --   1234.0161              1278.9029              1296.5380
 Red. masses --      1.4685                 1.3521                 1.4725
 Frc consts  --      1.3175                 1.3030                 1.4584
 IR Inten    --      5.4702                19.5585                43.0131

                     61                     62                     63
                      A                      A                      A
 Frequencies --   1302.6803              1308.1021              1323.2922
 Red. masses --      1.3882                 1.4138                 1.2977
 Frc consts  --      1.3879                 1.4253                 1.3388
 IR Inten    --     11.4508                 4.5286                 4.5863

                     64                     65                     66
                      A                      A                      A
 Frequencies --   1335.1446              1341.5700              1351.6846
 Red. masses --      1.5082                 1.2797                 1.2992
 Frc consts  --      1.5841                 1.3570                 1.3985
 IR Inten    --      6.9318                 2.7953                29.3436

                     67                     68                     69
                      A                      A                      A
 Frequencies --   1365.6403              1387.7997              1397.2351
 Red. masses --      1.2794                 1.5441                 1.5336
 Frc consts  --      1.4058                 1.7522                 1.7640
 IR Inten    --      3.9799                42.8829                19.1213

                     70                     71                     72
                      A                      A                      A
 Frequencies --   1416.0353              1425.0155              1439.7493
 Red. masses --      1.3984                 1.5059                 1.2525
 Frc consts  --      1.6520                 1.8018                 1.5296
 IR Inten    --      3.7035                64.7734                 7.5407

                     73                     74                     75
                      A                      A                      A
 Frequencies --   1443.0034              1499.5303              1506.7347
 Red. masses --      1.2627                 1.1624                 1.1841
 Frc consts  --      1.5491                 1.5400                 1.5839
 IR Inten    --      6.8228                10.1088                10.6509

                     76                     77                     78
                      A                      A                      A
 Frequencies --   1510.6215              1517.6907              1521.0313
 Red. masses --      1.1023                 1.1107                 1.0716
 Frc consts  --      1.4820                 1.5074                 1.4608
 IR Inten    --     14.9747                 8.2088                 3.4615

                     79                     80                     81
                      A                      A                      A
 Frequencies --   1523.3090              1528.9742              1531.4196
 Red. masses --      1.1647                 1.1984                 1.0570
 Frc consts  --      1.5924                 1.6507                 1.4605
 IR Inten    --     28.4156                 3.6439                 4.9200

                     82                     83                     84
                      A                      A                      A
 Frequencies --   1533.7336              1538.3346              1539.9463
 Red. masses --      1.0553                 1.0540                 1.0525
 Frc consts  --      1.4626                 1.4696                 1.4705
 IR Inten    --      2.3258                 0.0823                16.0548

                     85                     86                     87
                      A                      A                      A
 Frequencies --   1543.9839              1546.1350              1551.4512
 Red. masses --      1.0672                 1.0891                 1.0856
 Frc consts  --      1.4989                 1.5339                 1.5395
 IR Inten    --     12.5238                 3.6088                 4.0276

                     88                     89                     90
                      A                      A                      A
 Frequencies --   1751.7061              3021.4101              3048.1140
 Red. masses --      6.5297                 1.0351                 1.0417
 Frc consts  --     11.8050                 5.5672                 5.7022
 IR Inten    --    251.8756                46.8331                11.8301

                     91                     92                     93
                      A                      A                      A
 Frequencies --   3052.2209              3053.5148              3063.9016
 Red. masses --      1.0474                 1.0477                 1.0647
 Frc consts  --      5.7491                 5.7556                 5.8890
 IR Inten    --     23.1392                32.1729                 9.9803

                     94                     95                     96
                      A                      A                      A
 Frequencies --   3066.9246              3074.4400              3075.2581
 Red. masses --      1.0657                 1.0944                 1.0812
 Frc consts  --      5.9060                 6.0950                 6.0242
 IR Inten    --      0.8892                37.2710                11.1039

                     97                     98                     99
                      A                      A                      A
 Frequencies --   3076.4778              3084.6802              3099.4191
 Red. masses --      1.0741                 1.1022                 1.0587
 Frc consts  --      5.9894                 6.1792                 5.9923
 IR Inten    --     59.6947                14.9334                42.3042

                    100                    101                    102
                      A                      A                      A
 Frequencies --   3101.2440              3104.4605              3107.1391
 Red. masses --      1.0600                 1.1004                 1.1014
 Frc consts  --      6.0066                 6.2485                 6.2651
 IR Inten    --     19.6790                 7.4545                23.7845

                    103                    104                    105
                      A                      A                      A
 Frequencies --   3112.9022              3117.1300              3127.2156
 Red. masses --      1.1012                 1.1014                 1.1029
 Frc consts  --      6.2870                 6.3054                 6.3546
 IR Inten    --     43.3102                48.5456                35.0660

                    106                    107                    108
                      A                      A                      A
 Frequencies --   3134.3262              3134.5128              3149.0165
 Red. masses --      1.1015                 1.0992                 1.1069
 Frc consts  --      6.3758                 6.3631                 6.4672
 IR Inten    --     36.0665                31.2481                 5.3659

                    109                    110                    111
                      A                      A                      A
 Frequencies --   3152.1085              3195.4947              3575.0825
 Red. masses --      1.1086                 1.0907                 1.0742
 Frc consts  --      6.4896                 6.5617                 8.0890
 IR Inten    --      8.1843                10.2030                 6.7824

 - Thermochemistry -
 -------------------
 Temperature   298.150 Kelvin.  Pressure   1.00000 Atm.
 Atom     1 has atomic number  6 and mass  12.00000

 Molecular mass:   245.14495 amu.
 Principal axes and moments of inertia in atomic units:
                           1         2         3
     Eigenvalues --  2763.169385646.916915991.44879
           X            0.99980  -0.00894  -0.01762
           Y            0.00957   0.99931   0.03600
           Z            0.01729  -0.03616   0.99920
 This molecule is an asymmetric top.
 Rotational symmetry number  1.
 Warning -- assumption of classical behavior for rotation
           may cause significant error
 Rotational temperatures (Kelvin)      0.03135     0.01534     0.01446
 Rotational constants (GHZ):           0.65314     0.31960     0.30122
 Zero-point vibrational energy     911885.4 (Joules/Mol)
                                  217.94583 (Kcal/Mol)
 Warning -- explicit consideration of  27 degrees of freedom as
           vibrations may cause significant error
 Vibrational temperatures:     49.65    64.59    80.41   101.88   115.73
          (Kelvin)            146.24   165.31   180.89   240.42   269.47
                              270.16   317.20   334.29   343.84   364.22
                              421.85   427.44   455.26   471.12   510.69
                              568.47   591.95   612.46   652.35   715.39
                              798.49   826.51   938.15   974.39   995.81
                             1060.95  1086.51  1104.93  1111.36  1156.95
                             1199.26  1224.98  1272.79  1316.70  1332.79
                             1358.48  1390.12  1452.68  1480.18  1496.03
                             1498.75  1536.26  1563.34  1576.27  1621.17
                             1630.74  1654.53  1668.90  1707.22  1710.13
                             1730.81  1758.32  1775.47  1840.06  1865.43
                             1874.27  1882.07  1903.92  1920.98  1930.22
                             1944.77  1964.85  1996.73  2010.31  2037.36
                             2050.28  2071.48  2076.16  2157.49  2167.86
                             2173.45  2183.62  2188.42  2191.70  2199.85
                             2203.37  2206.70  2213.32  2215.64  2221.45
                             2224.54  2232.19  2520.31  4347.14  4385.56
                             4391.47  4393.33  4408.27  4412.62  4423.43
                             4424.61  4426.37  4438.17  4459.37  4462.00
                             4466.63  4470.48  4478.77  4484.85  4499.37
                             4509.60  4509.86  4530.73  4535.18  4597.60
                             5143.75

 Zero-point correction=                           0.347319 (Hartree/Particle)
 Thermal correction to Energy=                    0.365686
 Thermal correction to Enthalpy=                  0.366630
 Thermal correction to Gibbs Free Energy=         0.300635
 Sum of electronic and zero-point Energies=          -1074.235396
 Sum of electronic and thermal Energies=             -1074.217029
 Sum of electronic and thermal Enthalpies=           -1074.216085
 Sum of electronic and thermal Free Energies=        -1074.282080

                     E (Thermal)             CV                S
                      KCal/Mol        Cal/Mol-Kelvin    Cal/Mol-Kelvin
 Total                  229.472             68.480            138.899
 Electronic               0.000              0.000              0.000
 Translational            0.889              2.981             42.391
 Rotational               0.889              2.981             32.902
 Vibrational            227.694             62.518             63.605
 Vibration     1          0.594              1.983              5.552
 Vibration     2          0.595              1.979              5.031
 Vibration     3          0.596              1.975              4.597
 Vibration     4          0.598              1.968              4.131
 Vibration     5          0.600              1.962              3.880
 Vibration     6          0.604              1.948              3.423
 Vibration     7          0.608              1.937              3.184
 Vibration     8          0.611              1.927              3.010
 Vibration     9          0.624              1.883              2.468
 Vibration    10          0.632              1.857              2.254
 Vibration    11          0.632              1.857              2.250
 Vibration    12          0.647              1.810              1.955
 Vibration    13          0.653              1.791              1.861
 Vibration    14          0.657              1.781              1.810
 Vibration    15          0.664              1.757              1.709
 Vibration    16          0.688              1.686              1.455
 Vibration    17          0.691              1.679              1.433
 Vibration    18          0.703              1.642              1.329
 Vibration    19          0.711              1.621              1.273
 Vibration    20          0.731              1.565              1.144
 Vibration    21          0.762              1.481              0.981
 Vibration    22          0.775              1.445              0.922
 Vibration    23          0.788              1.414              0.873
 Vibration    24          0.812              1.353              0.786
 Vibration    25          0.853              1.256              0.665
 Vibration    26          0.910              1.129              0.534
 Vibration    27          0.931              1.087              0.496

                           ! Non-Optimized Parameters !
 Normal termination of Gaussian 16 at Thu Dec 10 21:50:46 2020.

 ----------------------------------------------------------------------
 # B3LYP/6-311++G(d,p) empiricaldispersion=gd3bj scf=xqc pop=npa geom=c
 heck
 ----------------------------------------------------------------------

 --------------------------------------
 CID_90584234_JID_6066_Energie_neutraal
 --------------------------------------
 Structure from the checkpoint file:  "JID_6066.chk"
 Charge =  0 Multiplicity = 1

 SCF Done:  E(RB3LYP) =  -1074.80656644     A.U. after   15 cycles
 Normal termination of Gaussian 16 at Thu Dec 10 21:58:58 2020.

 ----------------------------------------------------------------------
 # B3LYP/6-311++G(d,p) empiricaldispersion=gd3bj scf=xqc pop=npa geom=c
 heck
 ----------------------------------------------------------------------

 ------------------------------------
 CID_90584234_JID_6066_Energie_kation
 ------------------------------------
 Structure from the checkpoint file:  "JID_6066.chk"
 Charge =  1 Multiplicity = 2

 SCF Done:  E(UB3LYP) =  -1074.51003182     A.U. after   24 cycles
 Normal termination of Gaussian 16 at Thu Dec 10 22:18:29 2020.
 Gaussian 16:  ES64L-G16RevA.03 25-Dec-2016

 ----------------------------------------------------------------------
 # B3LYP/6-311++G(d,p) empiricaldispersion=gd3bj scf=xqc pop=npa geom=c
 heck
 ----------------------------------------------------------------------

 -----------------------------------
 CID_90584234_JID_6066_Energie_anion
 -----------------------------------
 Structure from the checkpoint file:  "JID_6066.chk"
 Charge = -1 Multiplicity = 2

                         Standard orientation:
 ---------------------------------------------------------------------
 Center     Atomic      Atomic             Coordinates (Angstroms)
 Number     Number       Type             X           Y           Z
 ---------------------------------------------------------------------
      1          6           0       -3.031964    0.081389    2.476635
      2          6           0       -1.920645    0.079309    1.421493
      3          6           0       -2.424762   -0.379845    0.040534
      4          6           0       -3.458883    0.578859   -0.607064
      5          6           0       -2.980419    2.007912   -0.874696
      6          6           0       -1.394387   -0.795426   -1.017848
      7          8           0       -1.576331   -1.833497   -1.650490
      8          7           0       -0.366225    0.030751   -1.422833
      9          6           0        0.411714    1.055949   -0.759136
     10          6           0        1.775492    0.606425   -0.158446
     11          6           0        2.479475   -0.460463   -1.028035
     12          6           0        1.912192   -1.850667   -0.710823
     13         16           0        1.328828   -1.805686    1.048813
     14          6           0        1.656446   -0.011398    1.250066
     15          8           0        2.483072    1.852893   -0.153305
     16          6           0        3.717770    1.942657    0.531678
     17          1           0       -3.811268    0.816781    2.249624
     18          1           0       -2.627406    0.324683    3.465171
     19          1           0       -3.510227   -0.902913    2.543806
     20          1           0       -1.482054    1.081359    1.378680
     21          1           0       -1.127548   -0.604954    1.738137
     22          1           0       -2.951743   -1.325230    0.207887
     23          1           0       -3.792002    0.122705   -1.546875
     24          1           0       -4.340882    0.609209    0.043741
     25          1           0       -2.140305    2.023002   -1.575512
     26          1           0       -3.789148    2.603870   -1.311796
     27          1           0       -2.665596    2.513036    0.045729
     28          1           0        0.078102   -0.370471   -2.240362
     29          1           0        0.663255    1.822741   -1.499494
     30          1           0       -0.182834    1.543935    0.009304
     31          1           0        3.547621   -0.444460   -0.790644
     32          1           0        2.388760   -0.218613   -2.093539
     33          1           0        1.058195   -2.118401   -1.335202
     34          1           0        2.672810   -2.628323   -0.810183
     35          1           0        2.588099    0.116994    1.804456
     36          1           0        0.851855    0.448144    1.827368
     37          1           0        3.587026    2.017267    1.619718
     38          1           0        4.389473    1.100838    0.316711
     39          1           0        4.192022    2.861146    0.176296
 ---------------------------------------------------------------------

 SCF Done:  E(UB3LYP) =  -1074.79649887     A.U. after   33 cycles
 SCF Done:  E(UB3LYP) =  -1074.79649887     a.u. after    1 cycles

 The electronic state is 2-A.
 Alpha  occ. eigenvalues --  -88.74455 -19.03789 -18.99605 -14.24523 -10.18278
 Alpha  occ. eigenvalues --  -10.15342 -10.12016 -10.11584 -10.10728 -10.10417
 Alpha  occ. eigenvalues --  -10.09383 -10.08864 -10.08589 -10.08075 -10.07445
 Alpha  occ. eigenvalues --  -10.07239  -7.83074  -5.79474  -5.79120  -5.78420
 Alpha  occ. eigenvalues --   -0.95066  -0.94760  -0.83216  -0.74956  -0.72859
 Alpha  occ. eigenvalues --   -0.66842  -0.66550  -0.64480  -0.61396  -0.59281
 Alpha  occ. eigenvalues --   -0.58611  -0.54007  -0.51314  -0.49870  -0.47553
 Alpha  occ. eigenvalues --   -0.46627  -0.42528  -0.41724  -0.39882  -0.38513
 Alpha  occ. eigenvalues --   -0.37876  -0.36070  -0.35801  -0.35451  -0.34876
 Alpha  occ. eigenvalues --   -0.32945  -0.32637  -0.32200  -0.31692  -0.31183
 Alpha  occ. eigenvalues --   -0.30585  -0.29732  -0.28769  -0.28051  -0.27836
 Alpha  occ. eigenvalues --   -0.27067  -0.26677  -0.26043  -0.25225  -0.24149
 Alpha  occ. eigenvalues --   -0.23527  -0.23050  -0.21329  -0.17505  -0.16759
 Alpha  occ. eigenvalues --   -0.16096  -0.12989   0.03958
 Alpha virt. eigenvalues --    0.05661   0.06587   0.07181   0.07593   0.08149
 Alpha virt. eigenvalues --    0.08457   0.09396   0.09587   0.09952   0.10228
 Alpha virt. eigenvalues --    0.10360   0.10818   0.11017   0.11271   0.12219

  Beta  occ. eigenvalues --  -88.74453 -19.03777 -18.99603 -14.24514 -10.18278
  Beta  occ. eigenvalues --  -10.15343 -10.12007 -10.11526 -10.10722 -10.10389
  Beta  occ. eigenvalues --  -10.09381 -10.08833 -10.08580 -10.08062 -10.07421
  Beta  occ. eigenvalues --  -10.07215  -7.83072  -5.79471  -5.79117  -5.78419
  Beta  occ. eigenvalues --   -0.95046  -0.94749  -0.83202  -0.74930  -0.72842
  Beta  occ. eigenvalues --   -0.66816  -0.66522  -0.64435  -0.61366  -0.59249
  Beta  occ. eigenvalues --   -0.58534  -0.53960  -0.51277  -0.49842  -0.47501
  Beta  occ. eigenvalues --   -0.46587  -0.42477  -0.41698  -0.39865  -0.38491
  Beta  occ. eigenvalues --   -0.37853  -0.36045  -0.35769  -0.35419  -0.34840
  Beta  occ. eigenvalues --   -0.32924  -0.32611  -0.32176  -0.31658  -0.31162
  Beta  occ. eigenvalues --   -0.30546  -0.29708  -0.28735  -0.28025  -0.27809
  Beta  occ. eigenvalues --   -0.27042  -0.26646  -0.26017  -0.25205  -0.24113
  Beta  occ. eigenvalues --   -0.23503  -0.23032  -0.21292  -0.17479  -0.16748
  Beta  occ. eigenvalues --   -0.16088  -0.12977
  Beta virt. eigenvalues --    0.05944   0.06613   0.07181   0.07516   0.08125
  Beta virt. eigenvalues --    0.08461   0.08827   0.09677   0.09956   0.10059
  Beta virt. eigenvalues --    0.10484   0.10805   0.11167   0.11203   0.11531

 Mulliken charges and spin densities:
               1          2
     1  C    0.055167  -0.793173
     2  C   -0.598010   0.262970
     3  C    0.787127  -0.003045
     4  C   -0.304443  -0.106984
     5  C   -0.098377  -0.466808
     6  C   -0.466974  -0.078577
     7  O   -0.270292   0.008960
     8  N   -0.236134   0.074281
     9  C    0.650863  -0.910089
    10  C   -2.132752   1.547884
    11  C    0.778996  -1.213886
    12  C   -0.777491   0.323190
    13  S    0.186355  -0.106898
    14  C    0.884147  -0.940191
    15  O   -0.061444   0.049346
    16  C    1.322435  -1.527141
    17  H   -0.050387   0.189560
    18  H   -0.180559   0.331307
    19  H    0.004707   0.134059
    20  H    0.000660   0.094102
    21  H    0.386253  -0.253836
    22  H    0.178777   0.056001
    23  H    0.133572   0.023920
    24  H    0.099954   0.059540
    25  H    0.077802   0.098636
    26  H   -0.221973   0.379056
    27  H   -0.062664   0.211880
    28  H    0.228869   0.125912
    29  H    0.024772   0.203479
    30  H    0.242791  -0.035431
    31  H   -0.001873   0.111838
    32  H   -0.204890   0.386382
    33  H    0.244071  -0.043517
    34  H   -0.043936   0.303259
    35  H   -0.007832   0.296653
    36  H   -0.274113   0.471023
    37  H   -0.427666   0.570302
    38  H   -0.488990   0.636701
    39  H   -0.376518   0.529333
 Sum of Mulliken charges =  -1.00000   1.00000

 Dipole moment (field-independent basis, Debye):
    X=             -4.2857    Y=             -2.4355    Z=             -1.6686  Tot=              5.2041
 Quadrupole moment (field-independent basis, Debye-Ang):
   XX=           -190.7953   YY=           -157.2164   ZZ=           -153.5516
   XY=             -7.4489   XZ=             -4.7727   YZ=             -5.7553

 Summary of Natural Population Analysis:

                                       Natural Population
                Natural  -----------------------------------------------
    Atom  No    Charge         Core      Valence    Rydberg      Total
 -----------------------------------------------------------------------
      C    1   -0.28400      0.99966     2.27912    0.00522     3.28400
      C    2   -0.19816      0.99961     2.18996    0.00859     3.19816
      C    3   -0.14577      0.99953     2.13501    0.01122     3.14577
      C    4   -0.18726      0.99962     2.17863    0.00901     3.18726
      C    5   -0.29132      0.99966     2.28680    0.00486     3.29132
      C    6    0.35655      0.99962     1.62038    0.02345     2.64345
      O    7   -0.32938      0.99988     3.32404    0.00546     4.32938
      N    8   -0.32428      0.99966     2.81419    0.01043     3.82428
      C    9   -0.09325      0.99953     2.07968    0.01403     3.09325
      C   10    0.13516      0.99948     1.84716    0.01820     2.86484
      C   11   -0.21364      0.99957     2.20250    0.01157     3.21364
      C   12   -0.24419      0.99960     2.23569    0.00891     3.24419
      S   13    0.07985      4.99965     2.90449    0.01601     7.92015
      C   14   -0.25983      0.99953     2.24939    0.01091     3.25983
      O   15   -0.30558      0.99987     3.29437    0.01134     4.30558
      C   16   -0.09967      0.99959     2.09061    0.00946     3.09967
      H   17    0.09652      0.00000     0.40253    0.00096     0.40348
      H   18    0.10224      0.00000     0.39698    0.00078     0.39776
      H   19    0.09512      0.00000     0.40404    0.00085     0.40488
      H   20    0.09389      0.00000     0.40441    0.00170     0.40611
      H   21    0.10557      0.00000     0.39191    0.00252     0.39443
      H   22    0.10979      0.00000     0.38856    0.00166     0.39021
      H   23    0.10023      0.00000     0.39879    0.00098     0.39977
      H   24    0.09750      0.00000     0.40156    0.00094     0.40250
      H   25    0.10085      0.00000     0.39799    0.00116     0.39915
      H   26    0.09974      0.00000     0.39948    0.00078     0.40026
      H   27    0.09748      0.00000     0.40144    0.00108     0.40252
      H   28    0.19140      0.00000     0.30625    0.00235     0.30860
      H   29    0.10606      0.00000     0.39233    0.00161     0.39394
      H   30    0.10468      0.00000     0.39273    0.00259     0.39532
      H   31    0.11069      0.00000     0.38742    0.00189     0.38931
      H   32    0.10494      0.00000     0.39361    0.00145     0.39506
      H   33    0.10694      0.00000     0.39132    0.00174     0.39306
      H   34    0.10349      0.00000     0.39527    0.00124     0.39651
      H   35    0.10864      0.00000     0.38885    0.00251     0.39136
      H   36    0.10951      0.00000     0.38889    0.00159     0.39049
      H   37    0.08270      0.00000     0.41518    0.00212     0.41730
      H   38    0.08251      0.00000     0.41499    0.00250     0.41749
      H   39    0.09425      0.00000     0.40436    0.00139     0.40575
 =======================================================================
   * Total *   -0.00000     19.99405    46.79091    0.21504    67.00000

 Normal termination of Gaussian 16 at Thu Dec 10 22:42:24 2020.
