 Gaussian 16, Revision A.03,

 -----------------------------------------------------------
 # opt freq B3LYP/6-31G(d) empiricaldispersion=gd3bj scf=xqc
 -----------------------------------------------------------

 -------------------------------
 CID_144404699_JID_1243_neutraal
 -------------------------------
 Symbolic Z-matrix:
 Charge =  0 Multiplicity = 1

 SCF Done:  E(RB3LYP) =  -879.134462353     A.U. after   14 cycles
 SCF Done:  E(RB3LYP) =  -879.136947810     A.U. after   13 cycles
 SCF Done:  E(RB3LYP) =  -879.134566402     A.U. after   13 cycles
 SCF Done:  E(RB3LYP) =  -879.138425053     A.U. after   12 cycles
 SCF Done:  E(RB3LYP) =  -879.138852842     A.U. after   11 cycles
 SCF Done:  E(RB3LYP) =  -879.139467301     A.U. after   13 cycles
 SCF Done:  E(RB3LYP) =  -879.139789271     A.U. after   11 cycles
 SCF Done:  E(RB3LYP) =  -879.139830517     A.U. after   12 cycles
 SCF Done:  E(RB3LYP) =  -879.139912956     A.U. after   13 cycles
 SCF Done:  E(RB3LYP) =  -879.139828638     A.U. after   13 cycles
 SCF Done:  E(RB3LYP) =  -879.143023296     A.U. after    9 cycles
 SCF Done:  E(RB3LYP) =  -879.143027141     A.U. after   12 cycles
 SCF Done:  E(RB3LYP) =  -879.143027808     A.U. after    9 cycles
 SCF Done:  E(RB3LYP) =  -879.143027933     A.U. after    8 cycles
 SCF Done:  E(RB3LYP) =  -879.143027952     A.U. after    7 cycles
 Optimization completed.
    -- Stationary point found.
 Normal termination of Gaussian 16 at Tue Dec  8 20:03:24 2020.

 --------------------------------------------------------------------
 #N Geom=AllCheck Guess=TCheck SCRF=Check GenChk RB3LYP/6-31G(d) Freq
 --------------------------------------------------------------------

 Structure from the checkpoint file:  "JID_1243.chk"
 -------------------------------
 CID_144404699_JID_1243_neutraal
 -------------------------------
 Charge =  0 Multiplicity = 1

 SCF Done:  E(RB3LYP) =  -879.143027952     A.U. after    1 cycles

  Exact polarizability: 115.169   0.433  93.506  -3.913   1.762  95.214
 Approx polarizability: 151.073   3.348 131.730  -1.068   2.784 142.401

                      1                      2                      3
                      A                      A                      A
 Frequencies --     13.7216                36.4525                54.0976
 Red. masses --      3.9274                 4.5848                 4.3694
 Frc consts  --      0.0004                 0.0036                 0.0075
 IR Inten    --      0.0577                 1.2058                 0.7948

                      4                      5                      6
                      A                      A                      A
 Frequencies --     61.8740                71.3126                97.3539
 Red. masses --      5.4358                 5.6777                 4.0679
 Frc consts  --      0.0123                 0.0170                 0.0227
 IR Inten    --      0.4862                 4.9256                 1.0868

                      7                      8                      9
                      A                      A                      A
 Frequencies --    115.0404               140.8707               215.4255
 Red. masses --      2.9574                 3.3548                 1.1284
 Frc consts  --      0.0231                 0.0392                 0.0309
 IR Inten    --      4.7416                14.4192                 5.6754

                     10                     11                     12
                      A                      A                      A
 Frequencies --    249.6667               286.9657               291.8121
 Red. masses --      1.7931                 1.1877                 2.0651
 Frc consts  --      0.0659                 0.0576                 0.1036
 IR Inten    --      0.5708                18.2634                 1.9964

                     13                     14                     15
                      A                      A                      A
 Frequencies --    316.2394               359.9169               375.8789
 Red. masses --      2.6724                 3.8651                 3.7598
 Frc consts  --      0.1575                 0.2950                 0.3130
 IR Inten    --      1.6333                 0.3108                 1.3967

                     16                     17                     18
                      A                      A                      A
 Frequencies --    428.4702               466.8105               535.2690
 Red. masses --      1.9973                 3.0094                 3.0930
 Frc consts  --      0.2160                 0.3864                 0.5221
 IR Inten    --      7.7310                 2.2704                31.9408

                     19                     20                     21
                      A                      A                      A
 Frequencies --    582.3442               696.6269               799.6462
 Red. masses --      1.8234                 9.0925                 1.8906
 Frc consts  --      0.3643                 2.5998                 0.7123
 IR Inten    --     18.4112                26.9065                71.1777

                     22                     23                     24
                      A                      A                      A
 Frequencies --    831.8043               864.1812               891.2249
 Red. masses --      1.4954                 2.0820                 2.2763
 Frc consts  --      0.6096                 0.9161                 1.0653
 IR Inten    --      0.6811                24.0088                 0.5642

                     25                     26                     27
                      A                      A                      A
 Frequencies --    909.5364               968.7225               998.6415
 Red. masses --      2.4467                 1.4292                 1.6465
 Frc consts  --      1.1925                 0.7902                 0.9675
 IR Inten    --      1.8736                39.8409                10.3274

                     28                     29                     30
                      A                      A                      A
 Frequencies --   1001.6776              1015.5182              1060.7357
 Red. masses --      1.8867                 1.7473                 2.8910
 Frc consts  --      1.1153                 1.0617                 1.9165
 IR Inten    --     14.7837                 2.9859                45.4614

                     31                     32                     33
                      A                      A                      A
 Frequencies --   1068.1280              1105.0752              1114.2841
 Red. masses --      1.6858                 2.7262                 2.4809
 Frc consts  --      1.1332                 1.9615                 1.8149
 IR Inten    --      2.7694                20.9349                 2.7463

                     34                     35                     36
                      A                      A                      A
 Frequencies --   1174.1070              1179.9316              1186.9438
 Red. masses --      3.3589                 2.5532                 1.1829
 Frc consts  --      2.7281                 2.0944                 0.9819
 IR Inten    --     21.4917                13.4675                 2.1812

                     37                     38                     39
                      A                      A                      A
 Frequencies --   1188.4429              1209.6115              1241.2286
 Red. masses --      1.2406                 1.3676                 1.1677
 Frc consts  --      1.0324                 1.1789                 1.0600
 IR Inten    --      1.9738                 4.6163                 0.4537

                     40                     41                     42
                      A                      A                      A
 Frequencies --   1271.9849              1319.1064              1337.1267
 Red. masses --      1.3545                 1.2227                 1.2171
 Frc consts  --      1.2912                 1.2535                 1.2821
 IR Inten    --      7.9054                 4.0611                 0.4843

                     43                     44                     45
                      A                      A                      A
 Frequencies --   1339.3780              1369.1373              1387.2463
 Red. masses --      1.2670                 1.3329                 1.3067
 Frc consts  --      1.3392                 1.4721                 1.4816
 IR Inten    --      5.7812                22.1656                 4.5376

                     46                     47                     48
                      A                      A                      A
 Frequencies --   1409.5826              1440.7313              1450.2444
 Red. masses --      1.4932                 1.2547                 1.4235
 Frc consts  --      1.7480                 1.5344                 1.7640
 IR Inten    --      1.6136                 0.8499                12.1773

                     49                     50                     51
                      A                      A                      A
 Frequencies --   1486.7685              1496.4801              1506.4040
 Red. masses --      1.1366                 1.1884                 1.1633
 Frc consts  --      1.4803                 1.5680                 1.5553
 IR Inten    --      7.4159                 2.6651                 0.4461

                     52                     53                     54
                      A                      A                      A
 Frequencies --   1509.4311              1515.3154              1527.0875
 Red. masses --      1.0480                 1.0917                 1.1180
 Frc consts  --      1.4068                 1.4770                 1.5361
 IR Inten    --      4.3672                 8.8730                 0.8977

                     55                     56                     57
                      A                      A                      A
 Frequencies --   1531.7933              1538.0650              1819.1317
 Red. masses --      1.0522                 1.1058                 9.8936
 Frc consts  --      1.4546                 1.5413                19.2900
 IR Inten    --     10.5568                 2.5342               222.4830

                     58                     59                     60
                      A                      A                      A
 Frequencies --   2590.0679              2886.0720              2918.9391
 Red. masses --      1.0398                 1.0826                 1.0740
 Frc consts  --      4.1100                 5.3131                 5.3913
 IR Inten    --     65.9512                98.5666                47.3005

                     61                     62                     63
                      A                      A                      A
 Frequencies --   2927.8770              3039.7154              3046.3162
 Red. masses --      1.0728                 1.0331                 1.0603
 Frc consts  --      5.4184                 5.6244                 5.7974
 IR Inten    --    110.9110                54.1085                15.4494

                     64                     65                     66
                      A                      A                      A
 Frequencies --   3051.9849              3081.0755              3082.6924
 Red. masses --      1.0667                 1.0880                 1.0875
 Frc consts  --      5.8539                 6.0853                 6.0892
 IR Inten    --     22.4032                10.0399                60.4142

                     67                     68                     69
                      A                      A                      A
 Frequencies --   3085.6951              3097.5887              3120.2772
 Red. masses --      1.0887                 1.0999                 1.1015
 Frc consts  --      6.1074                 6.2178                 6.3185
 IR Inten    --     34.4001                48.9321                32.6963

                     70                     71                     72
                      A                      A                      A
 Frequencies --   3130.4802              3152.6817              3503.2887
 Red. masses --      1.0971                 1.1069                 1.0746
 Frc consts  --      6.3345                 6.4820                 7.7706
 IR Inten    --     14.7754                 8.1509                 1.8632

 - Thermochemistry -
 -------------------
 Temperature   298.150 Kelvin.  Pressure   1.00000 Atm.
 Atom     1 has atomic number  6 and mass  12.00000

 Molecular mass:   177.08235 amu.
 Principal axes and moments of inertia in atomic units:
                           1         2         3
     Eigenvalues --  1198.538543788.396424185.19172
           X            0.99997  -0.00243   0.00797
           Y            0.00237   0.99997   0.00737
           Z           -0.00799  -0.00735   0.99994
 This molecule is an asymmetric top.
 Rotational symmetry number  1.
 Warning -- assumption of classical behavior for rotation
           may cause significant error
 Rotational temperatures (Kelvin)      0.07227     0.02286     0.02070
 Rotational constants (GHZ):           1.50578     0.47639     0.43122
 Zero-point vibrational energy     581237.7 (Joules/Mol)
                                  138.91915 (Kcal/Mol)
 Warning -- explicit consideration of  19 degrees of freedom as
           vibrations may cause significant error
 Vibrational temperatures:     19.74    52.45    77.83    89.02   102.60
          (Kelvin)            140.07   165.52   202.68   309.95   359.21
                              412.88   419.85   455.00   517.84   540.81
                              616.47   671.64   770.13   837.86  1002.29
                             1150.51  1196.78  1243.36  1282.27  1308.62
                             1393.78  1436.82  1441.19  1461.10  1526.16
                             1536.80  1589.96  1603.21  1689.28  1697.66
                             1707.75  1709.90  1740.36  1785.85  1830.10
                             1897.90  1923.83  1927.07  1969.88  1995.94
                             2028.07  2072.89  2086.58  2139.13  2153.10
                             2167.38  2171.73  2180.20  2197.14  2203.91
                             2212.93  2617.32  3726.53  4152.41  4199.70
                             4212.56  4373.47  4382.97  4391.13  4432.98
                             4435.31  4439.63  4456.74  4489.38  4504.06
                             4536.01  5040.45

 Zero-point correction=                           0.221382 (Hartree/Particle)
 Thermal correction to Energy=                    0.235307
 Thermal correction to Enthalpy=                  0.236251
 Thermal correction to Gibbs Free Energy=         0.177619
 Sum of electronic and zero-point Energies=           -878.921646
 Sum of electronic and thermal Energies=              -878.907721
 Sum of electronic and thermal Enthalpies=            -878.906777
 Sum of electronic and thermal Free Energies=         -878.965409

                     E (Thermal)             CV                S
                      KCal/Mol        Cal/Mol-Kelvin    Cal/Mol-Kelvin
 Total                  147.657             47.556            123.401
 Electronic               0.000              0.000              0.000
 Translational            0.889              2.981             41.421
 Rotational               0.889              2.981             31.319
 Vibrational            145.880             41.594             50.660
 Vibration     1          0.593              1.986              7.382
 Vibration     2          0.594              1.982              5.443
 Vibration     3          0.596              1.976              4.662
 Vibration     4          0.597              1.973              4.397
 Vibration     5          0.598              1.968              4.117
 Vibration     6          0.603              1.951              3.507
 Vibration     7          0.608              1.937              3.182
 Vibration     8          0.615              1.912              2.792
 Vibration     9          0.645              1.818              1.997
 Vibration    10          0.662              1.763              1.733
 Vibration    11          0.684              1.698              1.492
 Vibration    12          0.687              1.689              1.463
 Vibration    13          0.703              1.643              1.329
 Vibration    14          0.734              1.555              1.122
 Vibration    15          0.747              1.522              1.056
 Vibration    16          0.790              1.408              0.864
 Vibration    17          0.824              1.324              0.747
 Vibration    18          0.890              1.172              0.576
 Vibration    19          0.939              1.070              0.481

 Optimization completed.
    -- Stationary point found.
 Normal termination of Gaussian 16 at Tue Dec  8 20:09:08 2020.

 ----------------------------------------------------------------------
 # B3LYP/6-311++G(d,p) empiricaldispersion=gd3bj scf=xqc pop=npa geom=c
 heck
 ----------------------------------------------------------------------

 ---------------------------------------
 CID_144404699_JID_1243_Energie_neutraal
 ---------------------------------------
 Structure from the checkpoint file:  "JID_1243.chk"
 Charge =  0 Multiplicity = 1

 SCF Done:  E(RB3LYP) =  -879.321203501     A.U. after   14 cycles
 Normal termination of Gaussian 16 at Tue Dec  8 20:11:50 2020.

 ----------------------------------------------------------------------
 # B3LYP/6-311++G(d,p) empiricaldispersion=gd3bj scf=xqc pop=npa geom=c
 heck
 ----------------------------------------------------------------------

 -------------------------------------
 CID_144404699_JID_1243_Energie_kation
 -------------------------------------
 Structure from the checkpoint file:  "JID_1243.chk"
 Charge =  1 Multiplicity = 2

 SCF Done:  E(UB3LYP) =  -879.015273987     A.U. after   31 cycles
 Normal termination of Gaussian 16 at Tue Dec  8 20:20:32 2020.
 Gaussian 16:  ES64L-G16RevA.03 25-Dec-2016

 ----------------------------------------------------------------------
 # B3LYP/6-311++G(d,p) empiricaldispersion=gd3bj scf=xqc pop=npa geom=c
 heck
 ----------------------------------------------------------------------

 ------------------------------------
 CID_144404699_JID_1243_Energie_anion
 ------------------------------------
 Structure from the checkpoint file:  "JID_1243.chk"
 Charge = -1 Multiplicity = 2

                         Standard orientation:
 ---------------------------------------------------------------------
 Center     Atomic      Atomic             Coordinates (Angstroms)
 Number     Number       Type             X           Y           Z
 ---------------------------------------------------------------------
      1          6           0        2.437416   -0.094103    1.775831
      2          8           0        2.066701   -0.836751    0.605287
      3         16           0        3.018408   -0.486296   -0.747104
      4          6           0       -2.236981    1.230148    0.135185
      5          6           0       -3.222811    0.213906    0.716181
      6          7           0       -3.278636   -0.962913   -0.148511
      7          6           0       -1.985565   -1.644970   -0.213578
      8          6           0       -0.940773   -0.715571   -0.832437
      9          6           0       -0.837752    0.594293   -0.025434
     10          6           0        0.081523    1.572320   -0.710371
     11          8           0        1.045213    2.110772   -0.205450
     12          1           0        1.735627   -0.416608    2.551306
     13          1           0        2.330739    0.979552    1.600984
     14          1           0        3.461908   -0.332381    2.087685
     15          1           0        3.914235   -1.499875   -0.609452
     16          1           0       -2.178486    2.111743    0.784304
     17          1           0       -2.607565    1.558428   -0.844431
     18          1           0       -2.910362   -0.031286    1.751318
     19          1           0       -4.223792    0.655960    0.772668
     20          1           0       -3.989006   -1.605592    0.194003
     21          1           0       -2.095807   -2.544257   -0.829433
     22          1           0       -1.625471   -1.969216    0.783077
     23          1           0       -1.237693   -0.488719   -1.864627
     24          1           0        0.034758   -1.208668   -0.854599
     25          1           0       -0.419257    0.380168    0.963894
     26          1           0       -0.199563    1.803576   -1.764409
 ---------------------------------------------------------------------

 SCF Done:  E(UB3LYP) =  -879.308338099     A.U. after   33 cycles
 SCF Done:  E(UB3LYP) =  -879.308338099     a.u. after    1 cycles

 The electronic state is 2-A.
 Alpha  occ. eigenvalues --  -88.76172 -19.03317 -19.00539 -14.19161 -10.13704
 Alpha  occ. eigenvalues --  -10.10535 -10.08707 -10.08574 -10.07020 -10.06844
 Alpha  occ. eigenvalues --  -10.05967  -7.84479  -5.81092  -5.80473  -5.79696
 Alpha  occ. eigenvalues --   -0.93387  -0.92524  -0.80777  -0.69763  -0.64991
 Alpha  occ. eigenvalues --   -0.62771  -0.56173  -0.54109  -0.51982  -0.46716
 Alpha  occ. eigenvalues --   -0.45615  -0.40939  -0.37934  -0.35873  -0.35246
 Alpha  occ. eigenvalues --   -0.34944  -0.34701  -0.33695  -0.31982  -0.31470
 Alpha  occ. eigenvalues --   -0.30313  -0.28597  -0.27721  -0.26299  -0.24770
 Alpha  occ. eigenvalues --   -0.24157  -0.23456  -0.22401  -0.21030  -0.17010
 Alpha  occ. eigenvalues --   -0.14190  -0.12987  -0.12576   0.04782
 Alpha virt. eigenvalues --    0.06167   0.07035   0.07533   0.08173   0.08526
 Alpha virt. eigenvalues --    0.09391   0.09965   0.10848   0.11397   0.11964
 Alpha virt. eigenvalues --    0.12552   0.12866   0.13834   0.14167   0.14918

  Beta  occ. eigenvalues --  -88.76114 -19.03106 -19.00452 -14.19136 -10.13557
  Beta  occ. eigenvalues --  -10.10523 -10.08697 -10.08538 -10.07030 -10.06837
  Beta  occ. eigenvalues --  -10.05955  -7.84413  -5.80985  -5.80412  -5.79648
  Beta  occ. eigenvalues --   -0.93186  -0.92058  -0.80737  -0.69699  -0.64951
  Beta  occ. eigenvalues --   -0.62488  -0.56024  -0.53915  -0.51937  -0.46477
  Beta  occ. eigenvalues --   -0.45571  -0.40867  -0.37660  -0.35804  -0.35162
  Beta  occ. eigenvalues --   -0.34845  -0.34599  -0.33570  -0.31922  -0.31258
  Beta  occ. eigenvalues --   -0.30245  -0.28505  -0.27586  -0.25928  -0.24704
  Beta  occ. eigenvalues --   -0.24099  -0.23129  -0.22363  -0.20933  -0.16829
  Beta  occ. eigenvalues --   -0.14118  -0.12747  -0.12537
  Beta virt. eigenvalues --    0.07174   0.07726   0.08068   0.08275   0.08554
  Beta virt. eigenvalues --    0.08963   0.09626   0.10326   0.11100   0.11629
  Beta virt. eigenvalues --    0.12121   0.12709   0.13122   0.13879   0.14314

 Mulliken charges and spin densities:
               1          2
     1  C   -0.101157  -0.146033
     2  O   -0.213152   0.016943
     3  S   -0.013253  -0.011316
     4  C   -1.198339   0.827853
     5  C    1.394137  -1.787915
     6  N   -0.275859   0.160753
     7  C   -0.008700  -0.480312
     8  C   -0.506145   0.100084
     9  C    0.898092  -0.411476
    10  C   -0.269758   0.113565
    11  O   -0.264632   0.028190
    12  H   -0.091930   0.224849
    13  H    0.132836   0.022759
    14  H    0.042163   0.063746
    15  H   -0.209244   0.260126
    16  H    0.020169   0.129716
    17  H    0.203255  -0.057884
    18  H   -0.298180   0.412178
    19  H   -0.787769   0.971736
    20  H   -0.209076   0.462293
    21  H    0.034822   0.116638
    22  H   -0.023311   0.142745
    23  H    0.102287   0.050315
    24  H    0.172599   0.015891
    25  H    0.436830  -0.261632
    26  H    0.033318   0.036189
 Sum of Mulliken charges =  -1.00000   1.00000

 Dipole moment (field-independent basis, Debye):
    X=              2.9048    Y=              0.3922    Z=             -0.8883  Tot=              3.0628
 Quadrupole moment (field-independent basis, Debye-Ang):
   XX=           -160.4382   YY=           -102.3094   ZZ=           -102.9766
   XY=             -6.3535   XZ=             15.2943   YZ=             -0.9141

 Summary of Natural Population Analysis:

                                       Natural Population
                Natural  -----------------------------------------------
    Atom  No    Charge         Core      Valence    Rydberg      Total
 -----------------------------------------------------------------------
      C    1   -0.10013      0.99963     2.09153    0.00898     3.10013
      O    2   -0.33647      0.99993     3.32616    0.01039     4.33647
      S    3    0.14332      4.99966     2.83508    0.02193     7.85668
      C    4   -0.18856      0.99961     2.17967    0.00928     3.18856
      C    5   -0.08699      0.99962     2.07393    0.01344     3.08699
      N    6   -0.34283      0.99974     2.83004    0.01306     3.84283
      C    7   -0.08567      0.99962     2.07431    0.01173     3.08567
      C    8   -0.19277      0.99960     2.18530    0.00786     3.19277
      C    9   -0.16331      0.99957     2.15209    0.01165     3.16331
      C   10    0.25723      0.99969     1.72242    0.02066     2.74277
      O   11   -0.27467      0.99988     3.26747    0.00732     4.27467
      H   12    0.08749      0.00000     0.41093    0.00158     0.41251
      H   13    0.09619      0.00000     0.40223    0.00158     0.40381
      H   14    0.07553      0.00000     0.42310    0.00137     0.42447
      H   15    0.03707      0.00000     0.45941    0.00352     0.46293
      H   16    0.09978      0.00000     0.39928    0.00093     0.40022
      H   17    0.09627      0.00000     0.40223    0.00150     0.40373
      H   18    0.07808      0.00000     0.41960    0.00233     0.42192
      H   19    0.09852      0.00000     0.39916    0.00232     0.40148
      H   20    0.17789      0.00000     0.31748    0.00463     0.32211
      H   21    0.09315      0.00000     0.40593    0.00092     0.40685
      H   22    0.07810      0.00000     0.42006    0.00183     0.42190
      H   23    0.09468      0.00000     0.40397    0.00135     0.40532
      H   24    0.11351      0.00000     0.38499    0.00150     0.38649
      H   25    0.10486      0.00000     0.39206    0.00308     0.39514
      H   26    0.03972      0.00000     0.45813    0.00215     0.46028
 =======================================================================
   * Total *    0.00000     14.99655    32.83654    0.16692    48.00000

 Normal termination of Gaussian 16 at Tue Dec  8 20:30:01 2020.
