 Gaussian 16, Revision A.03,

 -----------------------------------------------------------
 # opt freq B3LYP/6-31G(d) empiricaldispersion=gd3bj scf=xqc
 -----------------------------------------------------------

 -------------------------------
 CID_114756273_JID_2389_neutraal
 -------------------------------
 Symbolic Z-matrix:
 Charge =  0 Multiplicity = 1

 SCF Done:  E(RB3LYP) =  -521.184468210     A.U. after   14 cycles
 SCF Done:  E(RB3LYP) =  -521.202473321     A.U. after   12 cycles
 SCF Done:  E(RB3LYP) =  -521.193405179     A.U. after   13 cycles
 SCF Done:  E(RB3LYP) =  -521.202563924     A.U. after   13 cycles
 SCF Done:  E(RB3LYP) =  -521.204960826     A.U. after   11 cycles
 SCF Done:  E(RB3LYP) =  -521.205501313     A.U. after   11 cycles
 SCF Done:  E(RB3LYP) =  -521.206364480     A.U. after   11 cycles
 SCF Done:  E(RB3LYP) =  -521.205454744     A.U. after   12 cycles
 SCF Done:  E(RB3LYP) =  -521.206684929     A.U. after   11 cycles
 SCF Done:  E(RB3LYP) =  -521.206955794     A.U. after   11 cycles
 SCF Done:  E(RB3LYP) =  -521.207186596     A.U. after   10 cycles
 SCF Done:  E(RB3LYP) =  -521.207191158     A.U. after    9 cycles
 SCF Done:  E(RB3LYP) =  -521.207197604     A.U. after    8 cycles
 SCF Done:  E(RB3LYP) =  -521.207197930     A.U. after    8 cycles
 SCF Done:  E(RB3LYP) =  -521.207198225     A.U. after    7 cycles
 Optimization completed.
    -- Stationary point found.
 Normal termination of Gaussian 16 at Wed Dec  9 17:19:25 2020.

 --------------------------------------------------------------------
 #N Geom=AllCheck Guess=TCheck SCRF=Check GenChk RB3LYP/6-31G(d) Freq
 --------------------------------------------------------------------

 Structure from the checkpoint file:  "JID_2389.chk"
 -------------------------------
 CID_114756273_JID_2389_neutraal
 -------------------------------
 Charge =  0 Multiplicity = 1

 SCF Done:  E(RB3LYP) =  -521.207198225     A.U. after    1 cycles

  Exact polarizability: 115.009  -1.648 105.771   1.737  -8.846 104.955
 Approx polarizability: 140.831  -4.268 155.089   4.148 -24.184 161.585

                      1                      2                      3
                      A                      A                      A
 Frequencies --     32.1344                44.7168                77.5562
 Red. masses --      4.4010                 3.6967                 3.6669
 Frc consts  --      0.0027                 0.0044                 0.0130
 IR Inten    --      0.9154                 0.4970                 1.9813

                      4                      5                      6
                      A                      A                      A
 Frequencies --     88.6035               129.9224               151.6025
 Red. masses --      3.7853                 3.0962                 2.6767
 Frc consts  --      0.0175                 0.0308                 0.0362
 IR Inten    --      0.2705                 2.3982                 0.6846

                      7                      8                      9
                      A                      A                      A
 Frequencies --    211.6424               229.1427               258.5507
 Red. masses --      2.6162                 2.4897                 3.7343
 Frc consts  --      0.0690                 0.0770                 0.1471
 IR Inten    --      1.8830                 1.1572                 0.5951

                     10                     11                     12
                      A                      A                      A
 Frequencies --    288.4426               313.0904               344.7138
 Red. masses --      3.0144                 2.8182                 2.6531
 Frc consts  --      0.1478                 0.1628                 0.1857
 IR Inten    --      2.0177                 4.4999                 2.0932

                     13                     14                     15
                      A                      A                      A
 Frequencies --    356.7269               392.7410               417.4159
 Red. masses --      2.9391                 2.5221                 2.1417
 Frc consts  --      0.2204                 0.2292                 0.2199
 IR Inten    --      3.1987                 0.5368                 0.8481

                     16                     17                     18
                      A                      A                      A
 Frequencies --    468.0700               539.2524               587.6726
 Red. masses --      2.8300                 3.1061                 3.0333
 Frc consts  --      0.3653                 0.5322                 0.6172
 IR Inten    --      0.2934                 5.0589                 1.4398

                     19                     20                     21
                      A                      A                      A
 Frequencies --    607.1787               630.1708               718.8577
 Red. masses --      1.2144                 1.1989                 2.8076
 Frc consts  --      0.2638                 0.2805                 0.8548
 IR Inten    --     43.7571                46.6916                 6.4157

                     22                     23                     24
                      A                      A                      A
 Frequencies --    784.8763               797.3160               850.2240
 Red. masses --      1.1150                 1.0601                 1.9533
 Frc consts  --      0.4047                 0.3971                 0.8319
 IR Inten    --     11.7690                 0.3177                 1.3116

                     25                     26                     27
                      A                      A                      A
 Frequencies --    867.5452               871.0691               897.3726
 Red. masses --      2.2577                 2.1579                 2.0607
 Frc consts  --      1.0012                 0.9647                 0.9777
 IR Inten    --     26.1216                 6.6686                10.6609

                     28                     29                     30
                      A                      A                      A
 Frequencies --    929.4404               950.4044               953.1112
 Red. masses --      1.3694                 1.4486                 1.6449
 Frc consts  --      0.6970                 0.7710                 0.8804
 IR Inten    --     50.8204                48.9305                 7.1288

                     31                     32                     33
                      A                      A                      A
 Frequencies --    963.4832              1008.7747              1023.1171
 Red. masses --      2.0973                 2.0402                 2.0497
 Frc consts  --      1.1471                 1.2233                 1.2641
 IR Inten    --      0.9362                14.4712                 2.8150

                     34                     35                     36
                      A                      A                      A
 Frequencies --   1044.9244              1061.9971              1085.2694
 Red. masses --      2.2039                 1.4259                 1.4414
 Frc consts  --      1.4178                 0.9475                 1.0002
 IR Inten    --     11.6612                 3.1278                 1.7589

                     37                     38                     39
                      A                      A                      A
 Frequencies --   1092.8723              1097.4212              1114.7154
 Red. masses --      1.9640                 2.0793                 3.8030
 Frc consts  --      1.3821                 1.4754                 2.7842
 IR Inten    --      5.4793                10.2429                60.0793

                     40                     41                     42
                      A                      A                      A
 Frequencies --   1136.6277              1155.6902              1200.0540
 Red. masses --      2.4341                 3.6616                 1.2960
 Frc consts  --      1.8528                 2.8814                 1.0996
 IR Inten    --     14.7628                48.7436                 2.3489

                     43                     44                     45
                      A                      A                      A
 Frequencies --   1221.2068              1232.7087              1261.3390
 Red. masses --      1.1625                 1.3829                 1.2357
 Frc consts  --      1.0215                 1.2381                 1.1583
 IR Inten    --      7.4058                 3.6731                 5.4968

                     46                     47                     48
                      A                      A                      A
 Frequencies --   1272.9978              1305.8943              1353.5383
 Red. masses --      1.1924                 1.5615                 1.4486
 Frc consts  --      1.1385                 1.5689                 1.5637
 IR Inten    --      8.7127                 1.9045                 7.5999

                     49                     50                     51
                      A                      A                      A
 Frequencies --   1364.8355              1375.5736              1385.5670
 Red. masses --      1.3751                 1.3524                 1.5529
 Frc consts  --      1.5092                 1.5077                 1.7566
 IR Inten    --      5.2592                10.4941                 8.3279

                     52                     53                     54
                      A                      A                      A
 Frequencies --   1406.4394              1425.5727              1443.5414
 Red. masses --      1.6243                 1.3382                 1.4631
 Frc consts  --      1.8930                 1.6023                 1.7963
 IR Inten    --      1.5882                19.4669                12.3427

                     55                     56                     57
                      A                      A                      A
 Frequencies --   1493.5664              1495.9723              1499.5941
 Red. masses --      1.1136                 1.0968                 1.0937
 Frc consts  --      1.4636                 1.4461                 1.4491
 IR Inten    --      0.9054                 3.1833                 2.7526

                     58                     59                     60
                      A                      A                      A
 Frequencies --   1510.5477              1527.0223              1532.0275
 Red. masses --      1.2100                 1.1538                 1.0985
 Frc consts  --      1.6266                 1.5851                 1.5191
 IR Inten    --     80.1955                 9.9363                 4.3281

                     61                     62                     63
                      A                      A                      A
 Frequencies --   1536.8225              1539.7128              1554.5598
 Red. masses --      1.1408                 1.2032                 1.1173
 Frc consts  --      1.5875                 1.6806                 1.5909
 IR Inten    --     10.4110                 6.2069                39.1488

                     64                     65                     66
                      A                      A                      A
 Frequencies --   2239.5021              2960.1121              2967.6585
 Red. masses --      5.9726                 1.0719                 1.0717
 Frc consts  --     17.6490                 5.5340                 5.5608
 IR Inten    --      0.7621                75.8294                41.0236

                     67                     68                     69
                      A                      A                      A
 Frequencies --   2977.2121              3025.0014              3049.1826
 Red. masses --      1.0719                 1.0610                 1.0594
 Frc consts  --      5.5977                 5.7205                 5.8035
 IR Inten    --    100.5043                25.0009                10.5479

                     70                     71                     72
                      A                      A                      A
 Frequencies --   3065.6625              3069.7416              3074.7199
 Red. masses --      1.0955                 1.0966                 1.0911
 Frc consts  --      6.0663                 6.0886                 6.0775
 IR Inten    --      4.3202                54.1957                97.3995

                     73                     74                     75
                      A                      A                      A
 Frequencies --   3083.3831              3088.2933              3138.5023
 Red. masses --      1.0902                 1.1035                 1.0530
 Frc consts  --      6.1068                 6.2011                 6.1112
 IR Inten    --     38.0696                14.2835                15.5677

                     76                     77                     78
                      A                      A                      A
 Frequencies --   3145.8917              3213.4846              3227.7813
 Red. masses --      1.0569                 1.1183                 1.1162
 Frc consts  --      6.1628                 6.8041                 6.8514
 IR Inten    --     16.2816                 0.8823                21.6473

                     79                     80                     81
                      A                      A                      A
 Frequencies --   3388.1560              3479.0830              3495.1370
 Red. masses --      1.0670                 1.0734                 1.1600
 Frc consts  --      7.2167                 7.6551                 8.3487
 IR Inten    --    652.6519                 2.3072                55.3136

 - Thermochemistry -
 -------------------
 Temperature   298.150 Kelvin.  Pressure   1.00000 Atm.
 Atom     1 has atomic number  6 and mass  12.00000

 Molecular mass:   167.13101 amu.
 Principal axes and moments of inertia in atomic units:
                           1         2         3
     Eigenvalues --  1443.228483339.222743846.33865
           X            0.99989   0.00900  -0.01188
           Y           -0.00901   0.99996  -0.00024
           Z            0.01188   0.00034   0.99993
 This molecule is an asymmetric top.
 Rotational symmetry number  1.
 Warning -- assumption of classical behavior for rotation
           may cause significant error
 Rotational temperatures (Kelvin)      0.06001     0.02594     0.02252
 Rotational constants (GHZ):           1.25049     0.54047     0.46921
 Zero-point vibrational energy     677098.7 (Joules/Mol)
                                  161.83046 (Kcal/Mol)
 Warning -- explicit consideration of  19 degrees of freedom as
           vibrations may cause significant error
 Vibrational temperatures:     46.23    64.34   111.59   127.48   186.93
          (Kelvin)            218.12   304.51   329.69   372.00   415.00
                              450.47   495.97   513.25   565.07   600.57
                              673.45   775.86   845.53   873.59   906.68
                             1034.28  1129.26  1147.16  1223.28  1248.20
                             1253.27  1291.12  1337.26  1367.42  1371.31
                             1386.24  1451.40  1472.04  1503.41  1527.98
                             1561.46  1572.40  1578.94  1603.83  1635.35
                             1662.78  1726.61  1757.04  1773.59  1814.79
                             1831.56  1878.89  1947.44  1963.69  1979.14
                             1993.52  2023.55  2051.08  2076.93  2148.91
                             2152.37  2157.58  2173.34  2197.04  2204.25
                             2211.14  2215.30  2236.66  3222.14  4258.94
                             4269.80  4283.54  4352.30  4387.09  4410.80
                             4416.67  4423.84  4436.30  4443.37  4515.60
                             4526.24  4623.49  4644.06  4874.80  5005.62
                             5028.72

 Zero-point correction=                           0.257893 (Hartree/Particle)
 Thermal correction to Energy=                    0.271052
 Thermal correction to Enthalpy=                  0.271996
 Thermal correction to Gibbs Free Energy=         0.217506
 Sum of electronic and zero-point Energies=           -520.949305
 Sum of electronic and thermal Energies=              -520.936146
 Sum of electronic and thermal Enthalpies=            -520.935202
 Sum of electronic and thermal Free Energies=         -520.989692

                     E (Thermal)             CV                S
                      KCal/Mol        Cal/Mol-Kelvin    Cal/Mol-Kelvin
 Total                  170.088             49.438            114.683
 Electronic               0.000              0.000              0.000
 Translational            0.889              2.981             41.249
 Rotational               0.889              2.981             31.295
 Vibrational            168.310             43.477             42.140
 Vibration     1          0.594              1.983              5.693
 Vibration     2          0.595              1.980              5.038
 Vibration     3          0.599              1.964              3.952
 Vibration     4          0.601              1.957              3.691
 Vibration     5          0.612              1.923              2.947
 Vibration     6          0.619              1.901              2.652
 Vibration     7          0.643              1.823              2.029
 Vibration     8          0.652              1.797              1.886
 Vibration     9          0.667              1.748              1.672
 Vibration    10          0.685              1.695              1.483
 Vibration    11          0.701              1.649              1.346
 Vibration    12          0.723              1.586              1.190
 Vibration    13          0.732              1.561              1.136
 Vibration    14          0.760              1.486              0.990
 Vibration    15          0.780              1.432              0.901
 Vibration    16          0.825              1.321              0.743
 Vibration    17          0.894              1.163              0.567
 Vibration    18          0.945              1.058              0.471
 Vibration    19          0.966              1.017              0.437

                           ! Non-Optimized Parameters !
 Normal termination of Gaussian 16 at Wed Dec  9 17:26:08 2020.

 ----------------------------------------------------------------------
 # B3LYP/6-311++G(d,p) empiricaldispersion=gd3bj scf=xqc pop=npa geom=c
 heck
 ----------------------------------------------------------------------

 ---------------------------------------
 CID_114756273_JID_2389_Energie_neutraal
 ---------------------------------------
 Structure from the checkpoint file:  "JID_2389.chk"
 Charge =  0 Multiplicity = 1

 SCF Done:  E(RB3LYP) =  -521.369684718     A.U. after   14 cycles
 Normal termination of Gaussian 16 at Wed Dec  9 17:29:13 2020.

 ----------------------------------------------------------------------
 # B3LYP/6-311++G(d,p) empiricaldispersion=gd3bj scf=xqc pop=npa geom=c
 heck
 ----------------------------------------------------------------------

 -------------------------------------
 CID_114756273_JID_2389_Energie_kation
 -------------------------------------
 Structure from the checkpoint file:  "JID_2389.chk"
 Charge =  1 Multiplicity = 2

 SCF Done:  E(UB3LYP) =  -521.051327496     A.U. after   26 cycles
 Normal termination of Gaussian 16 at Wed Dec  9 17:35:42 2020.
 Gaussian 16:  ES64L-G16RevA.03 25-Dec-2016

 ----------------------------------------------------------------------
 # B3LYP/6-311++G(d,p) empiricaldispersion=gd3bj scf=xqc pop=npa geom=c
 heck
 ----------------------------------------------------------------------

 ------------------------------------
 CID_114756273_JID_2389_Energie_anion
 ------------------------------------
 Structure from the checkpoint file:  "JID_2389.chk"
 Charge = -1 Multiplicity = 2

                         Standard orientation:
 ---------------------------------------------------------------------
 Center     Atomic      Atomic             Coordinates (Angstroms)
 Number     Number       Type             X           Y           Z
 ---------------------------------------------------------------------
      1          6           0        3.524624   -1.062074    1.529568
      2          6           0        3.332509   -0.308214    0.605617
      3          6           0        3.032263    0.574390   -0.522187
      4          6           0        1.817837    0.080702   -1.326132
      5          7           0        0.629745    0.047494   -0.480183
      6          6           0       -0.555617   -0.503243   -1.146800
      7          6           0       -1.746705   -0.588717   -0.206470
      8          6           0       -2.599370   -1.831787   -0.322837
      9          6           0       -1.680154   -1.662594    0.861519
     10          6           0       -2.472226    0.709449    0.137572
     11          6           0       -1.676139    1.745556    0.944522
     12          8           0       -0.666997    2.393624    0.200844
     13          1           0        3.723758   -1.713814    2.349568
     14          1           0        2.827244    1.587453   -0.153567
     15          1           0        3.902293    0.642294   -1.187153
     16          1           0        1.632665    0.774068   -2.154598
     17          1           0        2.045659   -0.906088   -1.765422
     18          1           0        0.831163   -0.509721    0.350528
     19          1           0       -0.797083    0.151793   -1.993420
     20          1           0       -0.343135   -1.503158   -1.563862
     21          1           0       -3.668609   -1.726304   -0.161847
     22          1           0       -2.335294   -2.573760   -1.071737
     23          1           0       -0.796599   -2.295047    0.912154
     24          1           0       -2.120204   -1.443533    1.830417
     25          1           0       -2.813230    1.189578   -0.789921
     26          1           0       -3.374120    0.450899    0.709960
     27          1           0       -2.366330    2.526878    1.284055
     28          1           0       -1.269177    1.260324    1.850331
     29          1           0       -0.013365    1.685882   -0.017199
 ---------------------------------------------------------------------

 SCF Done:  E(UB3LYP) =  -521.354452046     A.U. after   33 cycles
 SCF Done:  E(UB3LYP) =  -521.354452046     a.u. after    1 cycles

 The electronic state is 2-A.
 Alpha  occ. eigenvalues --  -18.99501 -14.21625 -10.10986 -10.10872 -10.10365
 Alpha  occ. eigenvalues --  -10.10292 -10.09337 -10.08242 -10.07695 -10.07652
 Alpha  occ. eigenvalues --  -10.07252 -10.06932  -0.90304  -0.82863  -0.77323
 Alpha  occ. eigenvalues --   -0.70271  -0.64964  -0.63757  -0.59068  -0.53758
 Alpha  occ. eigenvalues --   -0.52876  -0.50830  -0.45325  -0.43806  -0.41476
 Alpha  occ. eigenvalues --   -0.39860  -0.39156  -0.38368  -0.37833  -0.36195
 Alpha  occ. eigenvalues --   -0.33135  -0.32495  -0.31915  -0.29674  -0.29556
 Alpha  occ. eigenvalues --   -0.28633  -0.27926  -0.27032  -0.24752  -0.22720
 Alpha  occ. eigenvalues --   -0.19981  -0.19116  -0.18385  -0.18091  -0.15757
 Alpha  occ. eigenvalues --   -0.15072   0.04467
 Alpha virt. eigenvalues --    0.06407   0.06750   0.07472   0.08660   0.08783
 Alpha virt. eigenvalues --    0.09411   0.09682   0.10497   0.11086   0.11340
 Alpha virt. eigenvalues --    0.11941   0.12266   0.12649   0.13349   0.13718

  Beta  occ. eigenvalues --  -18.99497 -14.21616 -10.10980 -10.10842 -10.10339
  Beta  occ. eigenvalues --  -10.10271 -10.09337 -10.08247 -10.07673 -10.07627
  Beta  occ. eigenvalues --  -10.07240 -10.06895  -0.90297  -0.82843  -0.77305
  Beta  occ. eigenvalues --   -0.70237  -0.64944  -0.63721  -0.59021  -0.53689
  Beta  occ. eigenvalues --   -0.52840  -0.50759  -0.45282  -0.43734  -0.41448
  Beta  occ. eigenvalues --   -0.39833  -0.39122  -0.38328  -0.37798  -0.36155
  Beta  occ. eigenvalues --   -0.33112  -0.32460  -0.31878  -0.29646  -0.29515
  Beta  occ. eigenvalues --   -0.28599  -0.27897  -0.27003  -0.24730  -0.22706
  Beta  occ. eigenvalues --   -0.19955  -0.19091  -0.18341  -0.18062  -0.15739
  Beta  occ. eigenvalues --   -0.15038
  Beta virt. eigenvalues --    0.06675   0.07275   0.07654   0.08116   0.09103
  Beta virt. eigenvalues --    0.09253   0.09761   0.10061   0.10796   0.11456
  Beta virt. eigenvalues --    0.11624   0.12195   0.12417   0.12770   0.13489

 Mulliken charges and spin densities:
               1          2
     1  C   -3.906005   2.652863
     2  C    4.761413  -3.366284
     3  C    0.596112  -1.384589
     4  C    0.373789  -0.549414
     5  N   -0.355463   0.188393
     6  C    1.505364  -2.400494
     7  C   -1.791549   2.706813
     8  C    0.393252  -0.821369
     9  C    0.191298  -0.628750
    10  C   -0.062328  -0.096738
    11  C   -0.333772  -0.226602
    12  O   -0.333865   0.012685
    13  H   -1.293548   1.443723
    14  H    0.146061   0.025246
    15  H   -0.428821   0.614028
    16  H   -0.210802   0.368287
    17  H   -0.332621   0.465599
    18  H    0.389937  -0.258587
    19  H    0.104964   0.061537
    20  H   -0.184214   0.374328
    21  H   -0.035404   0.185145
    22  H   -0.407900   0.553512
    23  H   -0.138646   0.312473
    24  H   -0.221473   0.375541
    25  H    0.027628   0.147683
    26  H   -0.065311   0.172201
    27  H    0.030413   0.114919
    28  H    0.115214   0.020151
    29  H    0.466279  -0.062300
 Sum of Mulliken charges =  -1.00000   1.00000

 Dipole moment (field-independent basis, Debye):
    X=             -4.1143    Y=              3.4897    Z=             -0.5006  Tot=              5.4182
 Quadrupole moment (field-independent basis, Debye-Ang):
   XX=           -143.4853   YY=           -125.9894   ZZ=           -115.9576
   XY=              4.7181   XZ=             -1.9759   YZ=              3.0535

 Summary of Natural Population Analysis:

                                       Natural Population
                Natural  -----------------------------------------------
    Atom  No    Charge         Core      Valence    Rydberg      Total
 -----------------------------------------------------------------------
      C    1   -0.11640      0.99926     2.11312    0.00403     3.11640
      C    2   -0.00748      0.99938     1.99953    0.00858     3.00748
      C    3   -0.23462      0.99956     2.22450    0.01056     3.23462
      C    4   -0.07372      0.99963     2.06310    0.01100     3.07372
      N    5   -0.35777      0.99973     2.84550    0.01253     3.85777
      C    6   -0.07999      0.99957     2.06892    0.01150     3.07999
      C    7   -0.05198      0.99954     2.03904    0.01339     3.05198
      C    8   -0.19013      0.99958     2.18129    0.00925     3.19013
      C    9   -0.19873      0.99958     2.18919    0.00996     3.19873
      C   10   -0.19735      0.99958     2.18801    0.00977     3.19735
      C   11   -0.00944      0.99960     1.99782    0.01202     3.00944
      O   12   -0.39051      0.99989     3.38328    0.00734     4.39051
      H   13    0.11369      0.00000     0.38380    0.00251     0.38631
      H   14    0.11396      0.00000     0.38450    0.00154     0.38604
      H   15    0.11727      0.00000     0.38089    0.00184     0.38273
      H   16    0.09564      0.00000     0.40275    0.00161     0.40436
      H   17    0.08811      0.00000     0.40947    0.00242     0.41189
      H   18    0.18476      0.00000     0.31106    0.00418     0.31524
      H   19    0.09669      0.00000     0.40195    0.00135     0.40331
      H   20    0.08982      0.00000     0.40823    0.00195     0.41018
      H   21    0.10115      0.00000     0.39780    0.00105     0.39885
      H   22    0.10413      0.00000     0.39459    0.00127     0.39587
      H   23    0.10562      0.00000     0.39278    0.00160     0.39438
      H   24    0.10374      0.00000     0.39504    0.00122     0.39626
      H   25    0.09899      0.00000     0.39987    0.00114     0.40101
      H   26    0.09887      0.00000     0.39979    0.00133     0.40113
      H   27    0.08082      0.00000     0.41798    0.00120     0.41918
      H   28    0.07329      0.00000     0.42533    0.00138     0.42671
      H   29    0.24159      0.00000     0.25449    0.00392     0.25841
 =======================================================================
   * Total *   -0.00000     11.99491    33.85362    0.15147    46.00000

 Normal termination of Gaussian 16 at Wed Dec  9 17:45:47 2020.
