 Gaussian 16, Revision A.03,

 -----------------------------------------------------------
 # opt freq B3LYP/6-31G(d) empiricaldispersion=gd3bj scf=xqc
 -----------------------------------------------------------

 -------------------------------
 CID_117402786_JID_9874_neutraal
 -------------------------------
 Symbolic Z-matrix:
 Charge =  0 Multiplicity = 1

 SCF Done:  E(RB3LYP) =  -792.881960304     A.U. after   14 cycles
 SCF Done:  E(RB3LYP) =  -792.889755855     A.U. after   12 cycles
 SCF Done:  E(RB3LYP) =  -792.889815936     A.U. after   11 cycles
 SCF Done:  E(RB3LYP) =  -792.890595404     A.U. after   11 cycles
 SCF Done:  E(RB3LYP) =  -792.890836227     A.U. after   10 cycles
 SCF Done:  E(RB3LYP) =  -792.890824001     A.U. after   10 cycles
 SCF Done:  E(RB3LYP) =  -792.890708908     A.U. after   11 cycles
 SCF Done:  E(RB3LYP) =  -792.890853145     A.U. after   11 cycles
 SCF Done:  E(RB3LYP) =  -792.890861688     A.U. after    8 cycles
 SCF Done:  E(RB3LYP) =  -792.890862756     A.U. after    8 cycles
 SCF Done:  E(RB3LYP) =  -792.890863384     A.U. after    7 cycles
 SCF Done:  E(RB3LYP) =  -792.890863705     A.U. after    7 cycles
 SCF Done:  E(RB3LYP) =  -792.890863798     A.U. after    7 cycles
 Optimization completed.
    -- Stationary point found.
 Normal termination of Gaussian 16 at Mon Dec 14 17:27:17 2020.

 --------------------------------------------------------------------
 #N Geom=AllCheck Guess=TCheck SCRF=Check GenChk RB3LYP/6-31G(d) Freq
 --------------------------------------------------------------------

 Structure from the checkpoint file:  "JID_9874.chk"
 -------------------------------
 CID_117402786_JID_9874_neutraal
 -------------------------------
 Charge =  0 Multiplicity = 1

 SCF Done:  E(RB3LYP) =  -792.890863798     A.U. after    1 cycles

  Exact polarizability: 238.927  -2.172 180.830   1.203  -1.632 135.455
 Approx polarizability: 307.897  -1.287 288.948   6.192  -5.581 198.826

                      1                      2                      3
                      A                      A                      A
 Frequencies --     19.0485                31.3269                56.6333
 Red. masses --      3.6018                 3.1260                 3.2400
 Frc consts  --      0.0008                 0.0018                 0.0061
 IR Inten    --      0.0177                 0.0422                 0.8993

                      4                      5                      6
                      A                      A                      A
 Frequencies --     89.8134                91.0260               109.7907
 Red. masses --      3.6162                 3.4796                 3.1212
 Frc consts  --      0.0172                 0.0170                 0.0222
 IR Inten    --      2.4922                 0.0422                 0.3255

                      7                      8                      9
                      A                      A                      A
 Frequencies --    118.7907               150.2237               163.8348
 Red. masses --      3.2462                 3.6367                 2.4646
 Frc consts  --      0.0270                 0.0484                 0.0390
 IR Inten    --      0.1131                 0.7267                 0.9398

                     10                     11                     12
                      A                      A                      A
 Frequencies --    216.1158               227.0409               246.1753
 Red. masses --      2.7187                 2.6734                 2.1701
 Frc consts  --      0.0748                 0.0812                 0.0775
 IR Inten    --      0.0647                 0.8143                 1.6924

                     13                     14                     15
                      A                      A                      A
 Frequencies --    254.7202               282.3600               287.4178
 Red. masses --      2.4118                 1.2556                 1.9018
 Frc consts  --      0.0922                 0.0590                 0.0926
 IR Inten    --      3.5947                 0.0418                16.5286

                     16                     17                     18
                      A                      A                      A
 Frequencies --    307.9537               337.1688               352.7273
 Red. masses --      2.0111                 2.7953                 1.8272
 Frc consts  --      0.1124                 0.1872                 0.1339
 IR Inten    --      8.5831                 1.6441                 0.7007

                     19                     20                     21
                      A                      A                      A
 Frequencies --    368.0421               410.9400               436.7610
 Red. masses --      2.1640                 3.5144                 3.0544
 Frc consts  --      0.1727                 0.3497                 0.3433
 IR Inten    --     10.2002                 6.2477                 0.1566

                     22                     23                     24
                      A                      A                      A
 Frequencies --    447.2440               464.8830               477.6254
 Red. masses --      3.1621                 2.4474                 2.7277
 Frc consts  --      0.3727                 0.3116                 0.3666
 IR Inten    --      2.4325                 1.2521                 1.1579

                     25                     26                     27
                      A                      A                      A
 Frequencies --    511.7251               515.3077               560.1543
 Red. masses --      3.5641                 3.1469                 2.6317
 Frc consts  --      0.5499                 0.4923                 0.4865
 IR Inten    --      6.2187                 2.8176                 1.3095

                     28                     29                     30
                      A                      A                      A
 Frequencies --    640.4030               658.3997               691.1053
 Red. masses --      4.3862                 3.4385                 2.3447
 Frc consts  --      1.0598                 0.8782                 0.6598
 IR Inten    --      6.8864                 7.5787                 2.1629

                     31                     32                     33
                      A                      A                      A
 Frequencies --    711.6581               728.4126               755.3962
 Red. masses --      2.2969                 3.4109                 4.0733
 Frc consts  --      0.6854                 1.0663                 1.3694
 IR Inten    --     14.5422                 1.4803                 3.1649

                     34                     35                     36
                      A                      A                      A
 Frequencies --    783.8193               810.3204               815.0363
 Red. masses --      1.5186                 1.3250                 3.6258
 Frc consts  --      0.5497                 0.5126                 1.4191
 IR Inten    --      0.2347                 0.5267                 4.8319

                     37                     38                     39
                      A                      A                      A
 Frequencies --    826.1569               839.7833               877.0667
 Red. masses --      1.5261                 2.7209                 2.1885
 Frc consts  --      0.6137                 1.1306                 0.9919
 IR Inten    --     20.7077                 1.6618                27.9613

                     40                     41                     42
                      A                      A                      A
 Frequencies --    878.0355               884.9950               899.1029
 Red. masses --      2.2331                 1.6209                 2.7399
 Frc consts  --      1.0143                 0.7480                 1.3050
 IR Inten    --     11.2325                11.8800                25.1998

                     43                     44                     45
                      A                      A                      A
 Frequencies --    905.1098               918.2173               933.2172
 Red. masses --      1.9794                 1.4543                 1.3035
 Frc consts  --      0.9554                 0.7224                 0.6688
 IR Inten    --     89.8675                 2.5275                 0.8446

                     46                     47                     48
                      A                      A                      A
 Frequencies --    952.6787               956.2491               966.4756
 Red. masses --      2.4382                 1.3775                 2.2861
 Frc consts  --      1.3038                 0.7421                 1.2581
 IR Inten    --      1.8779                 2.9089                20.3421

                     49                     50                     51
                      A                      A                      A
 Frequencies --    987.0943              1000.1647              1037.3289
 Red. masses --      2.2915                 2.4008                 2.4964
 Frc consts  --      1.3155                 1.4150                 1.5827
 IR Inten    --     60.2158                 1.2716                10.8128

                     52                     53                     54
                      A                      A                      A
 Frequencies --   1059.1676              1062.5768              1068.1562
 Red. masses --      1.8160                 1.7038                 1.1543
 Frc consts  --      1.2003                 1.1334                 0.7759
 IR Inten    --      4.3467                 0.0019                 1.9476

                     55                     56                     57
                      A                      A                      A
 Frequencies --   1073.2144              1120.0150              1123.1011
 Red. masses --      5.0626                 2.4151                 2.5696
 Frc consts  --      3.4355                 1.7850                 1.9096
 IR Inten    --     40.8964                56.9318                 0.0734

                     58                     59                     60
                      A                      A                      A
 Frequencies --   1124.6741              1154.9945              1173.2607
 Red. masses --      2.2092                 1.0206                 1.3605
 Frc consts  --      1.6464                 0.8022                 1.1034
 IR Inten    --     18.8628                 0.4066                 0.8853

                     61                     62                     63
                      A                      A                      A
 Frequencies --   1181.6710              1185.8308              1195.7126
 Red. masses --      1.6314                 1.2708                 2.4163
 Frc consts  --      1.3421                 1.0528                 2.0354
 IR Inten    --     28.0017                 0.9993                 5.8001

                     64                     65                     66
                      A                      A                      A
 Frequencies --   1207.4333              1214.7757              1224.3329
 Red. masses --      1.8536                 1.3412                 1.3871
 Frc consts  --      1.5922                 1.1661                 1.2251
 IR Inten    --     18.9936                 1.5248                 3.4187

                     67                     68                     69
                      A                      A                      A
 Frequencies --   1267.5315              1271.2527              1285.3309
 Red. masses --      1.7615                 1.3294                 1.6017
 Frc consts  --      1.6674                 1.2658                 1.5590
 IR Inten    --      9.0463                 2.0570                16.2060

                     70                     71                     72
                      A                      A                      A
 Frequencies --   1289.1293              1295.2062              1296.8576
 Red. masses --      1.3006                 1.6124                 2.9629
 Frc consts  --      1.2735                 1.5937                 2.9360
 IR Inten    --      8.3483                24.4091               144.7374

                     73                     74                     75
                      A                      A                      A
 Frequencies --   1306.9281              1314.9210              1321.9413
 Red. masses --      1.3041                 1.4137                 1.8741
 Frc consts  --      1.3124                 1.4402                 1.9296
 IR Inten    --      0.7385                 5.5857                54.8401

                     76                     77                     78
                      A                      A                      A
 Frequencies --   1333.2640              1340.1261              1351.6886
 Red. masses --      1.5957                 2.2697                 1.3120
 Frc consts  --      1.6712                 2.4016                 1.4123
 IR Inten    --     26.1897                42.2763                 1.0901

                     79                     80                     81
                      A                      A                      A
 Frequencies --   1360.5201              1373.9662              1404.7459
 Red. masses --      2.8137                 1.3074                 1.4419
 Frc consts  --      3.0685                 1.4542                 1.6765
 IR Inten    --      5.2244                 0.0480                 9.4279

                     82                     83                     84
                      A                      A                      A
 Frequencies --   1406.2355              1407.5264              1409.2044
 Red. masses --      1.3930                 1.4224                 1.3957
 Frc consts  --      1.6230                 1.6603                 1.6330
 IR Inten    --      0.0113                 8.6260                 2.0258

                     85                     86                     87
                      A                      A                      A
 Frequencies --   1424.6610              1467.5321              1498.4864
 Red. masses --      1.7611                 2.1148                 1.0917
 Frc consts  --      2.1060                 2.6834                 1.4444
 IR Inten    --      8.6221                 1.6796                 0.3341

                     88                     89                     90
                      A                      A                      A
 Frequencies --   1500.6970              1504.0813              1507.1512
 Red. masses --      1.1949                 1.0857                 1.0822
 Frc consts  --      1.5855                 1.4471                 1.4483
 IR Inten    --      4.2592                 1.1603                 0.5927

                     91                     92                     93
                      A                      A                      A
 Frequencies --   1512.0673              1517.4794              1519.9629
 Red. masses --      1.0956                 1.0952                 1.0991
 Frc consts  --      1.4759                 1.4858                 1.4961
 IR Inten    --      3.6749                 4.2517                 9.5940

                     94                     95                     96
                      A                      A                      A
 Frequencies --   1520.3968              1529.9769              1535.2195
 Red. masses --      1.0490                 1.1365                 1.0859
 Frc consts  --      1.4287                 1.5675                 1.5080
 IR Inten    --      5.6029                 2.0824                14.4496

                     97                     98                     99
                      A                      A                      A
 Frequencies --   1538.0469              1561.7973              1636.0147
 Red. masses --      1.1012                 2.2138                 6.8167
 Frc consts  --      1.5348                 3.1816                10.7498
 IR Inten    --     52.8612                76.4207                 0.7628

                    100                    101                    102
                      A                      A                      A
 Frequencies --   1664.2779              1694.9943              3010.9751
 Red. masses --      5.4975                 1.0971                 1.0672
 Frc consts  --      8.9715                 1.8571                 5.7005
 IR Inten    --     15.1901                14.2629                15.8364

                    103                    104                    105
                      A                      A                      A
 Frequencies --   3014.7535              3017.2815              3026.6758
 Red. masses --      1.0712                 1.0676                 1.0343
 Frc consts  --      5.7363                 5.7265                 5.5823
 IR Inten    --     43.1253                 9.1264                61.5340

                    106                    107                    108
                      A                      A                      A
 Frequencies --   3041.9087              3045.2802              3048.6112
 Red. masses --      1.0781                 1.0715                 1.0772
 Frc consts  --      5.8775                 5.8546                 5.8984
 IR Inten    --     47.7014                84.0771                58.9150

                    109                    110                    111
                      A                      A                      A
 Frequencies --   3063.4602              3069.2661              3073.1126
 Red. masses --      1.0938                 1.0566                 1.0581
 Frc consts  --      6.0482                 5.8647                 5.8876
 IR Inten    --     72.0630                51.4898                 9.3203

                    112                    113                    114
                      A                      A                      A
 Frequencies --   3074.4240              3076.4812              3086.3524
 Red. masses --      1.0955                 1.0957                 1.1067
 Frc consts  --      6.1009                 6.1101                 6.2113
 IR Inten    --     41.1718                24.3850                38.6933

                    115                    116                    117
                      A                      A                      A
 Frequencies --   3090.0820              3119.5408              3124.7893
 Red. masses --      1.0613                 1.1096                 1.1095
 Frc consts  --      5.9709                 6.3619                 6.3827
 IR Inten    --     54.7618                21.8427                 8.2931

                    118                    119                    120
                      A                      A                      A
 Frequencies --   3129.5688              3133.9448              3151.3346
 Red. masses --      1.0915                 1.0913                 1.1069
 Frc consts  --      6.2987                 6.3149                 6.4764
 IR Inten    --      1.7491                51.4610                46.9523

                    121                    122                    123
                      A                      A                      A
 Frequencies --   3155.3216              3164.7420              3182.9121
 Red. masses --      1.1000                 1.0883                 1.0887
 Frc consts  --      6.4528                 6.4222                 6.4987
 IR Inten    --     22.9089                14.1967                13.0024

                    124                    125                    126
                      A                      A                      A
 Frequencies --   3228.0790              3435.8577              3520.0969
 Red. masses --      1.0907                 1.0496                 1.0914
 Frc consts  --      6.6967                 7.3003                 7.9681
 IR Inten    --     14.1831                 4.1597                 0.5137

 - Thermochemistry -
 -------------------
 Temperature   298.150 Kelvin.  Pressure   1.00000 Atm.
 Atom     1 has atomic number  6 and mass  12.00000

 Molecular mass:   259.19361 amu.
 Principal axes and moments of inertia in atomic units:
                           1         2         3
     Eigenvalues --  2339.115559040.73915**********
           X            1.00000   0.00026  -0.00192
           Y           -0.00026   1.00000   0.00049
           Z            0.00192  -0.00049   1.00000
 This molecule is an asymmetric top.
 Rotational symmetry number  1.
 Warning -- assumption of classical behavior for rotation
           may cause significant error
 Rotational temperatures (Kelvin)      0.03703     0.00958     0.00857
 Rotational constants (GHZ):           0.77155     0.19962     0.17853
 Zero-point vibrational energy    1037246.4 (Joules/Mol)
                                  247.90785 (Kcal/Mol)
 Warning -- explicit consideration of  27 degrees of freedom as
           vibrations may cause significant error
 Vibrational temperatures:     27.41    45.07    81.48   129.22   130.97
          (Kelvin)            157.96   170.91   216.14   235.72   310.94
                              326.66   354.19   366.49   406.25   413.53
                              443.08   485.11   507.50   529.53   591.25
                              628.40   643.48   668.86   687.20   736.26
                              741.41   805.94   921.40   947.29   994.35
                             1023.92  1048.02  1086.85  1127.74  1165.87
                             1172.66  1188.66  1208.26  1261.90  1263.30
                             1273.31  1293.61  1302.25  1321.11  1342.69
                             1370.69  1375.83  1390.54  1420.21  1439.01
                             1492.48  1523.91  1528.81  1536.84  1544.12
                             1611.45  1615.89  1618.16  1661.78  1688.06
                             1700.16  1706.15  1720.36  1737.23  1747.79
                             1761.54  1823.70  1829.05  1849.30  1854.77
                             1863.51  1865.89  1880.38  1891.88  1901.98
                             1918.27  1928.14  1944.78  1957.49  1976.83
                             2021.12  2023.26  2025.12  2027.53  2049.77
                             2111.45  2155.99  2159.17  2164.04  2168.45
                             2175.53  2183.31  2186.89  2187.51  2201.30
                             2208.84  2212.91  2247.08  2353.86  2394.52
                             2438.72  4332.12  4337.56  4341.20  4354.71
                             4376.63  4381.48  4386.27  4407.64  4415.99
                             4421.52  4423.41  4426.37  4440.57  4445.94
                             4488.32  4495.87  4502.75  4509.05  4534.07
                             4539.80  4553.36  4579.50  4644.49  4943.43
                             5064.63

 Zero-point correction=                           0.395066 (Hartree/Particle)
 Thermal correction to Energy=                    0.413267
 Thermal correction to Enthalpy=                  0.414211
 Thermal correction to Gibbs Free Energy=         0.348143
 Sum of electronic and zero-point Energies=           -792.495797
 Sum of electronic and thermal Energies=              -792.477597
 Sum of electronic and thermal Enthalpies=            -792.476653
 Sum of electronic and thermal Free Energies=         -792.542721

                     E (Thermal)             CV                S
                      KCal/Mol        Cal/Mol-Kelvin    Cal/Mol-Kelvin
 Total                  259.329             72.075            139.052
 Electronic               0.000              0.000              0.000
 Translational            0.889              2.981             42.557
 Rotational               0.889              2.981             33.724
 Vibrational            257.551             66.114             62.771
 Vibration     1          0.593              1.986              6.731
 Vibration     2          0.594              1.983              5.744
 Vibration     3          0.596              1.975              4.571
 Vibration     4          0.602              1.956              3.664
 Vibration     5          0.602              1.956              3.638
 Vibration     6          0.606              1.941              3.273
 Vibration     7          0.609              1.934              3.120
 Vibration     8          0.618              1.902              2.669
 Vibration     9          0.623              1.887              2.505
 Vibration    10          0.645              1.816              1.991
 Vibration    11          0.651              1.800              1.902
 Vibration    12          0.661              1.769              1.758
 Vibration    13          0.665              1.755              1.698
 Vibration    14          0.681              1.706              1.519
 Vibration    15          0.685              1.697              1.489
 Vibration    16          0.698              1.659              1.373
 Vibration    17          0.718              1.601              1.226
 Vibration    18          0.729              1.570              1.154
 Vibration    19          0.741              1.538              1.088
 Vibration    20          0.775              1.446              0.923
 Vibration    21          0.797              1.390              0.837
 Vibration    22          0.806              1.367              0.804
 Vibration    23          0.822              1.328              0.752
 Vibration    24          0.834              1.300              0.716
 Vibration    25          0.867              1.224              0.629
 Vibration    26          0.870              1.216              0.621
 Vibration    27          0.916              1.118              0.524

                           ! Non-Optimized Parameters !
 Normal termination of Gaussian 16 at Mon Dec 14 17:50:49 2020.

 ----------------------------------------------------------------------
 # B3LYP/6-311++G(d,p) empiricaldispersion=gd3bj scf=xqc pop=npa geom=c
 heck
 ----------------------------------------------------------------------

 ---------------------------------------
 CID_117402786_JID_9874_Energie_neutraal
 ---------------------------------------
 Structure from the checkpoint file:  "JID_9874.chk"
 Charge =  0 Multiplicity = 1

 SCF Done:  E(RB3LYP) =  -793.105466516     A.U. after   17 cycles
 Normal termination of Gaussian 16 at Mon Dec 14 18:03:32 2020.

 ----------------------------------------------------------------------
 # B3LYP/6-311++G(d,p) empiricaldispersion=gd3bj scf=xqc pop=npa geom=c
 heck
 ----------------------------------------------------------------------

 -------------------------------------
 CID_117402786_JID_9874_Energie_kation
 -------------------------------------
 Structure from the checkpoint file:  "JID_9874.chk"
 Charge =  1 Multiplicity = 2

 SCF Done:  E(UB3LYP) =  -792.829799950     A.U. after   26 cycles
 Normal termination of Gaussian 16 at Mon Dec 14 18:30:26 2020.
 Gaussian 16:  ES64L-G16RevA.03 25-Dec-2016

 ----------------------------------------------------------------------
 # B3LYP/6-311++G(d,p) empiricaldispersion=gd3bj scf=xqc pop=npa geom=c
 heck
 ----------------------------------------------------------------------

 ------------------------------------
 CID_117402786_JID_9874_Energie_anion
 ------------------------------------
 Structure from the checkpoint file:  "JID_9874.chk"
 Charge = -1 Multiplicity = 2

                         Standard orientation:
 ---------------------------------------------------------------------
 Center     Atomic      Atomic             Coordinates (Angstroms)
 Number     Number       Type             X           Y           Z
 ---------------------------------------------------------------------
      1          6           0       -2.360962    2.948300   -0.161563
      2          8           0       -2.062908    1.566553   -0.086034
      3          6           0       -0.752841    1.174183   -0.022623
      4          6           0       -0.501353   -0.213985    0.052251
      5          6           0        0.840332   -0.603110    0.113809
      6          6           0        1.916614    0.292694    0.104303
      7          6           0        1.624787    1.652076    0.026780
      8          6           0        0.302302    2.091345   -0.035346
      9          6           0        3.336925   -0.207348    0.249885
     10          6           0        3.746271   -1.491147   -0.530436
     11          6           0        5.103464   -0.818111   -0.854825
     12          6           0        4.465783    0.550597   -0.507755
     13          7           0        3.749274   -0.369663    1.658906
     14          6           0       -1.550684   -1.326018    0.065283
     15          6           0       -2.474804   -1.372424    1.313590
     16          6           0       -3.792350   -0.593360    1.203763
     17          6           0       -4.546911   -0.951897   -0.083002
     18          6           0       -3.681047   -0.715846   -1.327230
     19          6           0       -2.364717   -1.500440   -1.246574
     20          1           0       -3.449836    3.014963   -0.197858
     21          1           0       -1.938190    3.403607   -1.066548
     22          1           0       -1.992345    3.489288    0.719652
     23          1           0        1.057162   -1.668340    0.166171
     24          1           0        2.429391    2.383010    0.009734
     25          1           0        0.102333    3.154077   -0.099945
     26          1           0        3.764524   -2.423455    0.042786
     27          1           0        3.129071   -1.626451   -1.423743
     28          1           0        5.493858   -0.944258   -1.868635
     29          1           0        5.872604   -1.097205   -0.132104
     30          1           0        4.077389    1.059021   -1.395403
     31          1           0        5.060387    1.254309    0.083259
     32          1           0        3.095207   -1.008402    2.113956
     33          1           0        3.625868    0.525405    2.134771
     34          1           0       -0.939358   -2.233070    0.136909
     35          1           0       -2.727724   -2.429950    1.478317
     36          1           0       -1.909475   -1.050144    2.196178
     37          1           0       -3.592912    0.480513    1.221968
     38          1           0       -4.413971   -0.823098    2.079222
     39          1           0       -5.476477   -0.372457   -0.151640
     40          1           0       -4.841748   -2.011965   -0.044926
     41          1           0       -3.472949    0.351819   -1.429517
     42          1           0       -4.225717   -1.028302   -2.227925
     43          1           0       -1.723606   -1.267150   -2.104878
     44          1           0       -2.609996   -2.569589   -1.325734
 ---------------------------------------------------------------------

 SCF Done:  E(UB3LYP) =  -793.093157299     A.U. after   33 cycles
 SCF Done:  E(UB3LYP) =  -793.093157300     a.u. after    1 cycles

 The electronic state is 2-A.
 Alpha  occ. eigenvalues --  -19.05773 -14.20745 -10.13944 -10.12550 -10.12059
 Alpha  occ. eigenvalues --  -10.08625 -10.08471 -10.08089 -10.07923 -10.07913
 Alpha  occ. eigenvalues --  -10.07880 -10.07785 -10.07735 -10.07729 -10.06997
 Alpha  occ. eigenvalues --  -10.06931 -10.06597 -10.06125 -10.06062  -0.97558
 Alpha  occ. eigenvalues --   -0.81893  -0.76362  -0.73196  -0.72600  -0.67928
 Alpha  occ. eigenvalues --   -0.66134  -0.64383  -0.63244  -0.60763  -0.57891
 Alpha  occ. eigenvalues --   -0.55074  -0.52945  -0.51266  -0.50888  -0.49058
 Alpha  occ. eigenvalues --   -0.45582  -0.44654  -0.42834  -0.40649  -0.40208
 Alpha  occ. eigenvalues --   -0.39105  -0.38813  -0.37859  -0.37367  -0.36085
 Alpha  occ. eigenvalues --   -0.34602  -0.34024  -0.33817  -0.33207  -0.32673
 Alpha  occ. eigenvalues --   -0.30423  -0.29841  -0.29771  -0.28003  -0.27879
 Alpha  occ. eigenvalues --   -0.27573  -0.27202  -0.26431  -0.25658  -0.25224
 Alpha  occ. eigenvalues --   -0.24677  -0.24400  -0.23034  -0.21699  -0.21589
 Alpha  occ. eigenvalues --   -0.21121  -0.20706  -0.20371  -0.16503  -0.15563
 Alpha  occ. eigenvalues --   -0.12252   0.04017
 Alpha virt. eigenvalues --    0.05884   0.06081   0.07053   0.07570   0.07602
 Alpha virt. eigenvalues --    0.07827   0.08081   0.08583   0.08922   0.09214
 Alpha virt. eigenvalues --    0.09408   0.09521   0.09930   0.10550   0.11104

  Beta  occ. eigenvalues --  -19.05766 -14.20726 -10.13943 -10.12499 -10.12059
  Beta  occ. eigenvalues --  -10.08625 -10.08467 -10.08084 -10.07912 -10.07902
  Beta  occ. eigenvalues --  -10.07868 -10.07783 -10.07724 -10.07719 -10.06988
  Beta  occ. eigenvalues --  -10.06921 -10.06586 -10.06118 -10.06054  -0.97541
  Beta  occ. eigenvalues --   -0.81874  -0.76350  -0.73178  -0.72578  -0.67912
  Beta  occ. eigenvalues --   -0.66112  -0.64364  -0.63215  -0.60717  -0.57864
  Beta  occ. eigenvalues --   -0.55047  -0.52923  -0.51239  -0.50852  -0.49033
  Beta  occ. eigenvalues --   -0.45551  -0.44619  -0.42804  -0.40625  -0.40191
  Beta  occ. eigenvalues --   -0.39081  -0.38787  -0.37830  -0.37333  -0.36056
  Beta  occ. eigenvalues --   -0.34584  -0.34006  -0.33798  -0.33184  -0.32640
  Beta  occ. eigenvalues --   -0.30398  -0.29824  -0.29756  -0.27983  -0.27862
  Beta  occ. eigenvalues --   -0.27552  -0.27182  -0.26406  -0.25641  -0.25205
  Beta  occ. eigenvalues --   -0.24659  -0.24386  -0.23011  -0.21680  -0.21571
  Beta  occ. eigenvalues --   -0.21103  -0.20688  -0.20351  -0.16486  -0.15552
  Beta  occ. eigenvalues --   -0.12242
  Beta virt. eigenvalues --    0.05812   0.06435   0.06858   0.07283   0.07814
  Beta virt. eigenvalues --    0.07847   0.07979   0.08283   0.08735   0.08966
  Beta virt. eigenvalues --    0.09460   0.09765   0.09907   0.10078   0.10730

 Mulliken charges and spin densities:
               1          2
     1  C    1.009434  -1.361065
     2  O   -0.119335   0.043662
     3  C   -1.376052   1.066786
     4  C   -0.084600   0.125466
     5  C   -0.493429  -0.390876
     6  C    2.973379  -2.483809
     7  C    1.000940  -1.348306
     8  C   -1.677068   1.179484
     9  C    0.190902   0.568634
    10  C    0.189262  -0.779870
    11  C   -0.368636   0.195282
    12  C    0.321582  -0.879765
    13  N   -0.229829   0.027185
    14  C   -0.660655   1.550285
    15  C    0.075293  -0.714807
    16  C   -0.230074   0.060882
    17  C   -0.049834  -0.575851
    18  C   -0.250124   0.089173
    19  C   -0.057420  -0.597225
    20  H   -0.627430   0.795193
    21  H   -0.303776   0.461665
    22  H   -0.331744   0.493533
    23  H    0.189071  -0.044161
    24  H   -0.515444   0.688162
    25  H   -0.171478   0.360093
    26  H   -0.017724   0.163979
    27  H    0.060925   0.081709
    28  H    0.056213   0.094671
    29  H    0.117555   0.017551
    30  H    0.058572   0.080466
    31  H   -0.012648   0.165531
    32  H    0.056212   0.187634
    33  H    0.124907   0.111185
    34  H   -0.123378   0.346951
    35  H   -0.070579   0.208983
    36  H    0.017032   0.144231
    37  H    0.244185  -0.093642
    38  H   -0.104715   0.271192
    39  H   -0.184303   0.351096
    40  H    0.159392  -0.055308
    41  H    0.264519  -0.115756
    42  H   -0.086217   0.250826
    43  H    0.033285   0.127173
    44  H    0.003836   0.131779
 Sum of Mulliken charges =  -1.00000   1.00000

 Dipole moment (field-independent basis, Debye):
    X=              2.7746    Y=             -4.3052    Z=             -0.7292  Tot=              5.1735
 Quadrupole moment (field-independent basis, Debye-Ang):
   XX=           -206.2965   YY=           -177.5991   ZZ=           -153.0957
   XY=              8.5003   XZ=             -4.0701   YZ=              1.7965

 Summary of Natural Population Analysis:

                                       Natural Population
                Natural  -----------------------------------------------
    Atom  No    Charge         Core      Valence    Rydberg      Total
 -----------------------------------------------------------------------
      C    1   -0.10161      0.99959     2.09242    0.00961     3.10161
      O    2   -0.27973      0.99986     3.26854    0.01133     4.27973
      C    3    0.16201      0.99933     1.82517    0.01348     2.83799
      C    4   -0.02524      0.99946     2.01366    0.01212     3.02524
      C    5   -0.08986      0.99948     2.08263    0.00774     3.08986
      C    6   -0.03915      0.99946     2.02765    0.01204     3.03915
      C    7   -0.09235      0.99952     2.08318    0.00966     3.09235
      C    8   -0.13434      0.99953     2.12563    0.00918     3.13434
      C    9    0.05335      0.99954     1.93201    0.01511     2.94665
      C   10   -0.18586      0.99961     2.17849    0.00776     3.18586
      C   11   -0.19041      0.99965     2.18309    0.00767     3.19041
      C   12   -0.18564      0.99961     2.17821    0.00782     3.18564
      N   13   -0.42172      0.99976     2.91169    0.01027     3.92172
      C   14   -0.11164      0.99956     2.10016    0.01192     3.11164
      C   15   -0.18410      0.99961     2.17583    0.00866     3.18410
      C   16   -0.19324      0.99962     2.18571    0.00791     3.19324
      C   17   -0.18879      0.99963     2.18068    0.00849     3.18879
      C   18   -0.19253      0.99962     2.18550    0.00741     3.19253
      C   19   -0.18297      0.99961     2.17569    0.00768     3.18297
      H   20    0.09573      0.00000     0.40277    0.00150     0.40427
      H   21    0.08659      0.00000     0.41159    0.00182     0.41341
      H   22    0.08728      0.00000     0.41076    0.00195     0.41272
      H   23    0.09767      0.00000     0.40022    0.00211     0.40233
      H   24    0.10110      0.00000     0.39709    0.00181     0.39890
      H   25    0.10795      0.00000     0.39035    0.00170     0.39205
      H   26    0.09844      0.00000     0.40046    0.00110     0.40156
      H   27    0.10068      0.00000     0.39805    0.00127     0.39932
      H   28    0.09240      0.00000     0.40642    0.00118     0.40760
      H   29    0.09992      0.00000     0.39861    0.00148     0.40008
      H   30    0.10079      0.00000     0.39790    0.00131     0.39921
      H   31    0.09865      0.00000     0.40024    0.00112     0.40135
      H   32    0.17493      0.00000     0.32337    0.00170     0.32507
      H   33    0.17522      0.00000     0.32311    0.00167     0.32478
      H   34    0.09889      0.00000     0.39913    0.00198     0.40111
      H   35    0.09262      0.00000     0.40625    0.00114     0.40738
      H   36    0.10152      0.00000     0.39745    0.00103     0.39848
      H   37    0.10420      0.00000     0.39396    0.00184     0.39580
      H   38    0.09328      0.00000     0.40574    0.00098     0.40672
      H   39    0.09767      0.00000     0.40138    0.00095     0.40233
      H   40    0.08769      0.00000     0.41108    0.00124     0.41231
      H   41    0.10409      0.00000     0.39407    0.00184     0.39591
      H   42    0.09299      0.00000     0.40597    0.00103     0.40701
      H   43    0.10104      0.00000     0.39791    0.00105     0.39896
      H   44    0.09249      0.00000     0.40632    0.00119     0.40751
 =======================================================================
   * Total *    0.00000     18.99201    51.78615    0.22184    71.00000

 Normal termination of Gaussian 16 at Mon Dec 14 19:08:37 2020.
