 Gaussian 16, Revision A.03,

 -----------------------------------------------------------
 # opt freq B3LYP/6-31G(d) empiricaldispersion=gd3bj scf=xqc
 -----------------------------------------------------------

 -----------------------------
 CID_61215756_JID_688_neutraal
 -----------------------------
 Symbolic Z-matrix:
 Charge =  0 Multiplicity = 1

 SCF Done:  E(RB3LYP) =  -525.502598351     A.U. after   15 cycles
 SCF Done:  E(RB3LYP) =  -525.506662715     A.U. after   12 cycles
 SCF Done:  E(RB3LYP) =  -525.507101537     A.U. after   11 cycles
 SCF Done:  E(RB3LYP) =  -525.507147461     A.U. after    9 cycles
 SCF Done:  E(RB3LYP) =  -525.507152929     A.U. after    9 cycles
 SCF Done:  E(RB3LYP) =  -525.507153538     A.U. after    8 cycles
 SCF Done:  E(RB3LYP) =  -525.507153809     A.U. after    8 cycles
 Optimization completed.
    -- Stationary point found.
 Normal termination of Gaussian 16 at Mon Dec 14 18:36:31 2020.

 --------------------------------------------------------------------
 #N Geom=AllCheck Guess=TCheck SCRF=Check GenChk RB3LYP/6-31G(d) Freq
 --------------------------------------------------------------------

 Structure from the checkpoint file:  "JID_688.chk"
 -----------------------------
 CID_61215756_JID_688_neutraal
 -----------------------------
 Charge =  0 Multiplicity = 1

 SCF Done:  E(RB3LYP) =  -525.507153809     A.U. after    1 cycles

  Exact polarizability:  99.950   4.063  74.771  -0.019   0.021  35.324
 Approx polarizability: 139.857   8.484 122.917  -0.048   0.050  52.153

 ******    1 imaginary frequencies (negative Signs) ******

                      1                      2                      3
                      A                      A                      A
 Frequencies --    -23.4817                65.7346               128.2939
 Red. masses --      5.4070                 5.4620                 1.2459
 Frc consts  --      0.0018                 0.0139                 0.0121
 IR Inten    --      3.9466                 0.0175                 0.4170

                      4                      5                      6
                      A                      A                      A
 Frequencies --    128.8058               167.5845               277.4207
 Red. masses --      4.1240                 3.3127                 4.9309
 Frc consts  --      0.0403                 0.0548                 0.2236
 IR Inten    --      1.9559                 5.2506                 8.3557

                      7                      8                      9
                      A                      A                      A
 Frequencies --    309.3657               357.5540               407.5672
 Red. masses --      8.7284                 4.8611                 1.2430
 Frc consts  --      0.4922                 0.3662                 0.1216
 IR Inten    --      2.0447                11.2753                38.7007

                     10                     11                     12
                      A                      A                      A
 Frequencies --    429.1160               498.1103               679.6159
 Red. masses --     11.8604                 1.2041                 3.3097
 Frc consts  --      1.2868                 0.1760                 0.9007
 IR Inten    --      8.1369               124.7127                55.0661

                     13                     14                     15
                      A                      A                      A
 Frequencies --    725.6287               726.9842               756.5931
 Red. masses --      5.7654                 5.7697                10.6266
 Frc consts  --      1.7886                 1.7966                 3.5840
 IR Inten    --      3.3132                 2.8222                33.1145

                     16                     17                     18
                      A                      A                      A
 Frequencies --    813.2109               895.3339               939.1267
 Red. masses --      6.6439                 1.3533                 5.0732
 Frc consts  --      2.5887                 0.6392                 2.6362
 IR Inten    --      7.8917                 9.2370                 8.3781

                     19                     20                     21
                      A                      A                      A
 Frequencies --    978.8626              1059.0258              1113.9627
 Red. masses --      7.4141                 3.8163                 5.9332
 Frc consts  --      4.1856                 2.5218                 4.3379
 IR Inten    --     25.7678                63.5469                26.6100

                     22                     23                     24
                      A                      A                      A
 Frequencies --   1118.4470              1189.2270              1226.0820
 Red. masses --      4.4743                 1.2647                 1.5669
 Frc consts  --      3.2977                 1.0538                 1.3878
 IR Inten    --     22.7715                 0.9388                15.9382

                     25                     26                     27
                      A                      A                      A
 Frequencies --   1236.7254              1253.4827              1311.2466
 Red. masses --      2.3858                 1.9617                 2.8076
 Frc consts  --      2.1499                 1.8160                 2.8441
 IR Inten    --     21.7540                24.2080                30.4136

                     28                     29                     30
                      A                      A                      A
 Frequencies --   1379.7785              1436.4342              1473.4023
 Red. masses --      3.7534                 2.0626                 2.6338
 Frc consts  --      4.2101                 2.5075                 3.3687
 IR Inten    --    641.4557                34.8411                21.9627

                     31                     32                     33
                      A                      A                      A
 Frequencies --   1499.1491              1514.4539              1525.1856
 Red. masses --      1.3095                 1.0480                 1.0566
 Frc consts  --      1.7340                 1.4161                 1.4481
 IR Inten    --     57.6489                 6.3731                 7.1694

                     34                     35                     36
                      A                      A                      A
 Frequencies --   1587.4932              1632.8047              1833.6330
 Red. masses --      3.0595                 6.1317                 8.0851
 Frc consts  --      4.5428                 9.6316                16.0163
 IR Inten    --    156.8982               276.0019               503.2064

                     37                     38                     39
                      A                      A                      A
 Frequencies --   3080.4714              3156.6160              3192.9129
 Red. masses --      1.0298                 1.1080                 1.1069
 Frc consts  --      5.7575                 6.5051                 6.6486
 IR Inten    --     32.3771                20.3930                11.8922

                     40                     41                     42
                      A                      A                      A
 Frequencies --   3280.9573              3635.5585              3654.8990
 Red. masses --      1.0971                 1.0767                 1.0815
 Frc consts  --      6.9583                 8.3849                 8.5119
 IR Inten    --      7.2260                40.7269                67.9359

 - Thermochemistry -
 -------------------
 Temperature   298.150 Kelvin.  Pressure   1.00000 Atm.
 Atom     1 has atomic number  6 and mass  12.00000

 Molecular mass:   142.04908 amu.
 Principal axes and moments of inertia in atomic units:
                           1         2         3
     Eigenvalues --   497.825812283.214772769.61407
           X            0.99976  -0.02209   0.00002
           Y            0.02209   0.99976   0.00002
           Z           -0.00002  -0.00002   1.00000
 This molecule is an asymmetric top.
 Rotational symmetry number  1.
 Warning -- assumption of classical behavior for rotation
           may cause significant error
 Rotational temperatures (Kelvin)      0.17398     0.03794     0.03127
 Rotational constants (GHZ):           3.62525     0.79044     0.65162
    1 imaginary frequencies ignored.
 Zero-point vibrational energy     315077.6 (Joules/Mol)
                                   75.30535 (Kcal/Mol)
 Warning -- explicit consideration of  10 degrees of freedom as
           vibrations may cause significant error
 Vibrational temperatures:     94.58   184.59   185.32   241.12   399.15
          (Kelvin)            445.11   514.44   586.40   617.40   716.67
                              977.82  1044.02  1045.97  1088.57  1170.03
                             1288.19  1351.19  1408.36  1523.70  1602.74
                             1609.20  1711.03  1764.06  1779.37  1803.48
                             1886.59  1985.19  2066.71  2119.90  2156.94
                             2178.96  2194.40  2284.05  2349.24  2638.19
                             4432.11  4541.67  4593.89  4720.57  5230.76
                             5258.58

 Zero-point correction=                           0.120007 (Hartree/Particle)
 Thermal correction to Energy=                    0.128461
 Thermal correction to Enthalpy=                  0.129405
 Thermal correction to Gibbs Free Energy=         0.085867
 Sum of electronic and zero-point Energies=           -525.387147
 Sum of electronic and thermal Energies=              -525.378693
 Sum of electronic and thermal Enthalpies=            -525.377749
 Sum of electronic and thermal Free Energies=         -525.421287

                     E (Thermal)             CV                S
                      KCal/Mol        Cal/Mol-Kelvin    Cal/Mol-Kelvin
 Total                   80.611             30.224             91.634
 Electronic               0.000              0.000              0.000
 Translational            0.889              2.981             40.764
 Rotational               0.889              2.981             29.533
 Vibrational             78.833             24.262             21.337
 Vibration     1          0.597              1.971              4.277
 Vibration     2          0.611              1.925              2.971
 Vibration     3          0.611              1.924              2.964
 Vibration     4          0.624              1.882              2.462
 Vibration     5          0.678              1.715              1.550
 Vibration     6          0.699              1.656              1.366
 Vibration     7          0.733              1.560              1.133
 Vibration     8          0.772              1.454              0.935
 Vibration     9          0.790              1.407              0.862
 Vibration    10          0.854              1.254              0.663

                           ! Non-Optimized Parameters !
 Normal termination of Gaussian 16 at Mon Dec 14 18:38:38 2020.

 ----------------------------------------------------------------------
 # B3LYP/6-311++G(d,p) empiricaldispersion=gd3bj scf=xqc pop=npa geom=c
 heck
 ----------------------------------------------------------------------

 -------------------------------------
 CID_61215756_JID_688_Energie_neutraal
 -------------------------------------
 Structure from the checkpoint file:  "JID_688.chk"
 Charge =  0 Multiplicity = 1

 SCF Done:  E(RB3LYP) =  -525.665433667     A.U. after   13 cycles
 Normal termination of Gaussian 16 at Mon Dec 14 18:39:12 2020.

 ----------------------------------------------------------------------
 # B3LYP/6-311++G(d,p) empiricaldispersion=gd3bj scf=xqc pop=npa geom=c
 heck
 ----------------------------------------------------------------------

 -----------------------------------
 CID_61215756_JID_688_Energie_kation
 -----------------------------------
 Structure from the checkpoint file:  "JID_688.chk"
 Charge =  1 Multiplicity = 2

 SCF Done:  E(UB3LYP) =  -525.333098275     A.U. after   22 cycles
 Normal termination of Gaussian 16 at Mon Dec 14 18:40:31 2020.
 Gaussian 16:  ES64L-G16RevA.03 25-Dec-2016

 ----------------------------------------------------------------------
 # B3LYP/6-311++G(d,p) empiricaldispersion=gd3bj scf=xqc pop=npa geom=c
 heck
 ----------------------------------------------------------------------

 ----------------------------------
 CID_61215756_JID_688_Energie_anion
 ----------------------------------
 Structure from the checkpoint file:  "JID_688.chk"
 Charge = -1 Multiplicity = 2

                         Standard orientation:
 ---------------------------------------------------------------------
 Center     Atomic      Atomic             Coordinates (Angstroms)
 Number     Number       Type             X           Y           Z
 ---------------------------------------------------------------------
      1          6           0       -2.995233    1.243884   -0.001397
      2          8           0       -1.645245    0.752125   -0.000836
      3          6           0       -1.539356   -0.577564    0.000658
      4          8           0       -2.459275   -1.371397    0.001241
      5          7           0       -0.217127   -1.009629    0.000411
      6          6           0        0.964053   -0.287422    0.000312
      7          7           0        1.143767    1.020639    0.002091
      8          6           0        2.507446    1.131264    0.001006
      9          7           0        3.182237   -0.003419   -0.001147
     10          7           0        2.166474   -0.922067   -0.001616
     11          1           0       -2.900378    2.329200   -0.006027
     12          1           0       -3.525967    0.904883    0.891596
     13          1           0       -3.528181    0.897262   -0.890090
     14          1           0       -0.153870   -2.017899    0.001214
     15          1           0        3.010023    2.088483    0.001970
     16          1           0        2.385628   -1.907400   -0.003560
 ---------------------------------------------------------------------

 SCF Done:  E(UB3LYP) =  -525.657010633     A.U. after   24 cycles

 The electronic state is 2-A.
 Alpha  occ. eigenvalues --  -19.07116 -19.00309 -14.27906 -14.25934 -14.23267
 Alpha  occ. eigenvalues --  -14.19688 -10.23045 -10.18081 -10.12881 -10.11509
 Alpha  occ. eigenvalues --   -1.02190  -0.97242  -0.92639  -0.85168  -0.78910
 Alpha  occ. eigenvalues --   -0.71732  -0.63756  -0.55492  -0.52964  -0.49039
 Alpha  occ. eigenvalues --   -0.48353  -0.43108  -0.39814  -0.38802  -0.36712
 Alpha  occ. eigenvalues --   -0.36470  -0.33646  -0.33025  -0.31689  -0.27192
 Alpha  occ. eigenvalues --   -0.23382  -0.23072  -0.21175  -0.19300  -0.19164
 Alpha  occ. eigenvalues --   -0.17624  -0.13450   0.04791
 Alpha virt. eigenvalues --    0.06471   0.08790   0.10053   0.10317   0.10445
 Alpha virt. eigenvalues --    0.11134   0.12550   0.12670   0.14870   0.15062
 Alpha virt. eigenvalues --    0.15530   0.17191   0.17456   0.17740   0.18701

  Beta  occ. eigenvalues --  -19.07103 -19.00300 -14.27807 -14.25866 -14.23261
  Beta  occ. eigenvalues --  -14.19677 -10.23045 -10.18085 -10.12847 -10.11508
  Beta  occ. eigenvalues --   -1.02168  -0.97189  -0.92620  -0.85089  -0.78832
  Beta  occ. eigenvalues --   -0.71659  -0.63688  -0.55401  -0.52892  -0.48925
  Beta  occ. eigenvalues --   -0.48254  -0.43032  -0.39783  -0.38720  -0.36646
  Beta  occ. eigenvalues --   -0.36431  -0.33608  -0.32989  -0.31655  -0.27163
  Beta  occ. eigenvalues --   -0.23348  -0.23038  -0.21159  -0.19283  -0.19120
  Beta  occ. eigenvalues --   -0.17613  -0.13412
  Beta virt. eigenvalues --    0.07061   0.08594   0.09555   0.10130   0.10877
  Beta virt. eigenvalues --    0.10901   0.11911   0.12490   0.13570   0.14878
  Beta virt. eigenvalues --    0.15176   0.15527   0.17124   0.17304   0.17614

 Mulliken charges and spin densities:
               1          2
     1  C    0.929202  -1.187587
     2  O   -0.133339   0.036633
     3  C    0.269580  -0.033479
     4  O   -0.342551   0.039780
     5  N   -0.347754  -0.044691
     6  C    0.873157  -0.827973
     7  N   -0.170224  -0.114325
     8  C   -0.021030   0.029642
     9  N   -0.162387  -0.037381
    10  N    0.087143  -0.190041
    11  H   -0.116299   0.260623
    12  H   -0.252031   0.425959
    13  H   -0.250100   0.423864
    14  H   -0.676394   1.031430
    15  H    0.039581   0.106804
    16  H   -0.726555   1.080742
 Sum of Mulliken charges =  -1.00000   1.00000

 Dipole moment (field-independent basis, Debye):
    X=             -1.1915    Y=              6.3857    Z=              0.0008  Tot=              6.4959
 Quadrupole moment (field-independent basis, Debye-Ang):
   XX=           -109.5991   YY=           -103.1136   ZZ=            -74.8211
   XY=             10.7227   XZ=              0.0354   YZ=             -0.0208

 Summary of Natural Population Analysis:

                                       Natural Population
                Natural  -----------------------------------------------
    Atom  No    Charge         Core      Valence    Rydberg      Total
 -----------------------------------------------------------------------
      C    1   -0.09945      0.99960     2.09182    0.00803     3.09945
      O    2   -0.26628      0.99986     3.25792    0.00850     4.26628
      C    3    0.46764      0.99971     1.50853    0.02412     2.53236
      O    4   -0.32191      0.99987     3.31588    0.00616     4.32191
      N    5   -0.31840      0.99964     2.80869    0.01008     3.81840
      C    6    0.27821      0.99960     1.70473    0.01745     2.72179
      N    7   -0.27262      0.99969     2.76368    0.00926     3.77262
      C    8    0.08777      0.99969     1.89415    0.01839     2.91223
      N    9   -0.16487      0.99974     2.65177    0.01336     3.66487
      N   10   -0.18820      0.99967     2.67416    0.01438     3.68820
      H   11    0.09165      0.00000     0.40694    0.00141     0.40835
      H   12    0.09086      0.00000     0.40740    0.00174     0.40914
      H   13    0.09093      0.00000     0.40733    0.00174     0.40907
      H   14    0.21800      0.00000     0.25991    0.02209     0.28200
      H   15    0.08884      0.00000     0.41035    0.00081     0.41116
      H   16    0.21782      0.00000     0.24384    0.03834     0.28218
 =======================================================================
   * Total *   -0.00000      9.99706    26.80710    0.19585    37.00000

 Normal termination of Gaussian 16 at Mon Dec 14 18:41:57 2020.
