 Gaussian 16, Revision A.03,

 -----------------------------------------------------------
 # opt freq B3LYP/6-31G(d) empiricaldispersion=gd3bj scf=xqc
 -----------------------------------------------------------

 -------------------------------
 CID_130015172_JID_4013_neutraal
 -------------------------------
 Symbolic Z-matrix:
 Charge =  0 Multiplicity = 1

 SCF Done:  E(RB3LYP) =  -646.779141345     A.U. after   14 cycles
 SCF Done:  E(RB3LYP) =  -646.789107450     A.U. after   12 cycles
 SCF Done:  E(RB3LYP) =  -646.790654258     A.U. after   12 cycles
 SCF Done:  E(RB3LYP) =  -646.791594832     A.U. after   11 cycles
 SCF Done:  E(RB3LYP) =  -646.793311302     A.U. after   13 cycles
 SCF Done:  E(RB3LYP) =  -646.795223675     A.U. after   12 cycles
 SCF Done:  E(RB3LYP) =  -646.798366483     A.U. after   12 cycles
 SCF Done:  E(RB3LYP) =  -646.799806841     A.U. after   12 cycles
 SCF Done:  E(RB3LYP) =  -646.801691907     A.U. after   11 cycles
 SCF Done:  E(RB3LYP) =  -646.802543000     A.U. after   12 cycles
 SCF Done:  E(RB3LYP) =  -646.805400758     A.U. after    9 cycles
 SCF Done:  E(RB3LYP) =  -646.805401223     A.U. after    8 cycles
 SCF Done:  E(RB3LYP) =  -646.805401309     A.U. after    7 cycles
 SCF Done:  E(RB3LYP) =  -646.805401308     A.U. after    7 cycles
 SCF Done:  E(RB3LYP) =  -646.805401337     A.U. after    7 cycles
 Optimization completed.
    -- Stationary point found.
 Normal termination of Gaussian 16 at Thu Dec 10 09:28:47 2020.

 --------------------------------------------------------------------
 #N Geom=AllCheck Guess=TCheck SCRF=Check GenChk RB3LYP/6-31G(d) Freq
 --------------------------------------------------------------------

 Structure from the checkpoint file:  "JID_4013.chk"
 -------------------------------
 CID_130015172_JID_4013_neutraal
 -------------------------------
 Charge =  0 Multiplicity = 1

 SCF Done:  E(RB3LYP) =  -646.805401337     A.U. after    1 cycles

  Exact polarizability: 129.429   0.890 111.177  -8.273   1.580 103.373
 Approx polarizability: 166.716   5.122 168.442 -14.658  -2.975 160.388

                      1                      2                      3
                      A                      A                      A
 Frequencies --     29.8353                35.1602                75.1574
 Red. masses --      6.6202                 3.1293                 2.3998
 Frc consts  --      0.0035                 0.0023                 0.0080
 IR Inten    --      1.7909                 0.5501                 0.1311

                      4                      5                      6
                      A                      A                      A
 Frequencies --     97.1884               122.5591               177.7394
 Red. masses --      4.2566                 3.5541                 3.7263
 Frc consts  --      0.0237                 0.0315                 0.0694
 IR Inten    --      0.4339                 1.7065                 1.1348

                      7                      8                      9
                      A                      A                      A
 Frequencies --    204.0617               242.4349               303.7626
 Red. masses --      3.3900                 3.2887                 3.4813
 Frc consts  --      0.0832                 0.1139                 0.1893
 IR Inten    --      1.8211                 5.2820                 0.6125

                     10                     11                     12
                      A                      A                      A
 Frequencies --    339.0678               390.1441               401.8169
 Red. masses --      3.0363                 1.9201                 3.0332
 Frc consts  --      0.2057                 0.1722                 0.2885
 IR Inten    --      0.8130                 1.2273                27.1200

                     13                     14                     15
                      A                      A                      A
 Frequencies --    437.9582               459.0185               513.0958
 Red. masses --      4.7113                 5.5067                 2.1878
 Frc consts  --      0.5324                 0.6836                 0.3393
 IR Inten    --      4.9927                 6.5979                16.2439

                     16                     17                     18
                      A                      A                      A
 Frequencies --    566.7968               601.2668               682.9067
 Red. masses --      1.7255                 3.3635                 2.8967
 Frc consts  --      0.3266                 0.7164                 0.7959
 IR Inten    --     54.8214                 8.4918                70.0491

                     19                     20                     21
                      A                      A                      A
 Frequencies --    701.5264               724.7405               756.0105
 Red. masses --      2.2656                 3.0217                 2.8559
 Frc consts  --      0.6569                 0.9351                 0.9617
 IR Inten    --     75.2727                14.4581                 1.7125

                     22                     23                     24
                      A                      A                      A
 Frequencies --    791.7184               810.6220               830.1327
 Red. masses --      1.3505                 1.6168                 3.3285
 Frc consts  --      0.4988                 0.6260                 1.3514
 IR Inten    --      3.2837                 9.7877                84.1485

                     25                     26                     27
                      A                      A                      A
 Frequencies --    840.5257               862.9234               884.6422
 Red. masses --      1.4175                 3.2375                 3.4033
 Frc consts  --      0.5900                 1.4204                 1.5692
 IR Inten    --      9.8038                42.8244                30.1131

                     28                     29                     30
                      A                      A                      A
 Frequencies --    898.0537               910.8557               927.4221
 Red. masses --      2.0847                 1.9522                 2.5379
 Frc consts  --      0.9906                 0.9543                 1.2861
 IR Inten    --     18.8033                18.5277                38.3886

                     31                     32                     33
                      A                      A                      A
 Frequencies --    950.7741               964.6306               977.3031
 Red. masses --      2.5395                 2.4727                 2.4958
 Frc consts  --      1.3526                 1.3556                 1.4045
 IR Inten    --     18.7882                 4.5722                 3.9744

                     34                     35                     36
                      A                      A                      A
 Frequencies --    987.7303              1025.5996              1043.9179
 Red. masses --      2.5288                 2.3046                 1.8548
 Frc consts  --      1.4536                 1.4283                 1.1909
 IR Inten    --      0.1729                 2.7088                18.7434

                     37                     38                     39
                      A                      A                      A
 Frequencies --   1064.2169              1073.5142              1084.9633
 Red. masses --      1.3406                 2.5538                 1.4298
 Frc consts  --      0.8946                 1.7340                 0.9916
 IR Inten    --      6.0761                 8.7868                 0.2670

                     40                     41                     42
                      A                      A                      A
 Frequencies --   1088.9270              1103.2160              1135.2948
 Red. masses --      1.9780                 2.7280                 1.5386
 Frc consts  --      1.3819                 1.9562                 1.1684
 IR Inten    --     17.2388                14.7647                26.6278

                     43                     44                     45
                      A                      A                      A
 Frequencies --   1156.2745              1175.8499              1211.9045
 Red. masses --      1.2198                 1.7660                 1.4967
 Frc consts  --      0.9609                 1.4386                 1.2952
 IR Inten    --      8.6955                 7.4222                 6.6251

                     46                     47                     48
                      A                      A                      A
 Frequencies --   1216.8546              1238.5911              1245.9669
 Red. masses --      1.8650                 1.7675                 1.4831
 Frc consts  --      1.6270                 1.5976                 1.3565
 IR Inten    --     32.4617                 7.0485                 3.6554

                     49                     50                     51
                      A                      A                      A
 Frequencies --   1272.6937              1286.4262              1311.4712
 Red. masses --      1.3487                 1.2790                 1.6628
 Frc consts  --      1.2871                 1.2470                 1.6850
 IR Inten    --     42.2471                 2.0184                18.3101

                     52                     53                     54
                      A                      A                      A
 Frequencies --   1325.9314              1336.7291              1341.6728
 Red. masses --      1.3377                 1.4232                 1.3506
 Frc consts  --      1.3856                 1.4983                 1.4325
 IR Inten    --      2.0045                35.9667                12.1953

                     55                     56                     57
                      A                      A                      A
 Frequencies --   1371.9834              1388.9920              1408.8800
 Red. masses --      1.4861                 1.3528                 1.7579
 Frc consts  --      1.6482                 1.5377                 2.0558
 IR Inten    --     29.2101                63.2237                46.2993

                     58                     59                     60
                      A                      A                      A
 Frequencies --   1413.4793              1446.1624              1457.0078
 Red. masses --      1.4187                 1.3611                 1.4788
 Frc consts  --      1.6700                 1.6772                 1.8496
 IR Inten    --     15.4293                 8.8706                11.3097

                     61                     62                     63
                      A                      A                      A
 Frequencies --   1490.3905              1493.3400              1499.4628
 Red. masses --      1.6315                 1.1495                 1.2951
 Frc consts  --      2.1351                 1.5104                 1.7157
 IR Inten    --     27.5824                10.9297                49.3490

                     64                     65                     66
                      A                      A                      A
 Frequencies --   1519.4152              1537.1900              1537.9689
 Red. masses --      1.4175                 1.3317                 1.1172
 Frc consts  --      1.9281                 1.8540                 1.5569
 IR Inten    --     42.7012                 1.0060                 3.9642

                     67                     68                     69
                      A                      A                      A
 Frequencies --   1556.9399              1787.6528              3003.2158
 Red. masses --      1.0961                 8.5571                 1.0763
 Frc consts  --      1.5654                16.1118                 5.7194
 IR Inten    --      2.0852               394.3121                13.3030

                     70                     71                     72
                      A                      A                      A
 Frequencies --   3020.0115              3051.1676              3060.4564
 Red. masses --      1.0717                 1.1004                 1.0841
 Frc consts  --      5.7591                 6.0357                 5.9824
 IR Inten    --     91.4549                29.0973                27.7106

                     73                     74                     75
                      A                      A                      A
 Frequencies --   3071.1492              3087.1021              3135.2463
 Red. masses --      1.0706                 1.0798                 1.1027
 Frc consts  --      5.9495                 6.0632                 6.3866
 IR Inten    --     34.5314                30.7542                14.0667

                     76                     77                     78
                      A                      A                      A
 Frequencies --   3138.7705              3145.8956              3160.8954
 Red. masses --      1.0522                 1.0572                 1.0890
 Frc consts  --      6.1077                 6.1647                 6.4103
 IR Inten    --     19.6699                15.1495                 7.6774

                     79                     80                     81
                      A                      A                      A
 Frequencies --   3214.0111              3229.9092              3474.4735
 Red. masses --      1.1189                 1.1159                 1.0746
 Frc consts  --      6.8100                 6.8588                 7.6430
 IR Inten    --      1.2219                21.3955                 1.5675

                     82                     83                     84
                      A                      A                      A
 Frequencies --   3504.0338              3537.9129              3601.5990
 Red. masses --      1.0749                 1.0745                 1.0762
 Frc consts  --      7.7760                 7.9243                 8.2247
 IR Inten    --      0.4925                 2.1513                23.1984

 - Thermochemistry -
 -------------------
 Temperature   298.150 Kelvin.  Pressure   1.00000 Atm.
 Atom     1 has atomic number  6 and mass  12.00000

 Molecular mass:   196.13241 amu.
 Principal axes and moments of inertia in atomic units:
                           1         2         3
     Eigenvalues --  1675.218943441.298114160.00688
           X            1.00000  -0.00042  -0.00075
           Y            0.00045   0.99934   0.03619
           Z            0.00073  -0.03619   0.99934
 This molecule is an asymmetric top.
 Rotational symmetry number  1.
 Warning -- assumption of classical behavior for rotation
           may cause significant error
 Rotational temperatures (Kelvin)      0.05170     0.02517     0.02082
 Rotational constants (GHZ):           1.07732     0.52444     0.43383
 Zero-point vibrational energy     691347.7 (Joules/Mol)
                                  165.23607 (Kcal/Mol)
 Warning -- explicit consideration of  17 degrees of freedom as
           vibrations may cause significant error
 Vibrational temperatures:     42.93    50.59   108.13   139.83   176.34
          (Kelvin)            255.73   293.60   348.81   437.05   487.84
                              561.33   578.12   630.12   660.43   738.23
                              815.49   865.09   982.55  1009.34  1042.74
                             1087.73  1139.11  1166.30  1194.38  1209.33
                             1241.55  1272.80  1292.10  1310.52  1334.35
                             1367.95  1387.89  1406.12  1421.12  1475.61
                             1501.96  1531.17  1544.55  1561.02  1566.72
                             1587.28  1633.44  1663.62  1691.79  1743.66
                             1750.78  1782.06  1792.67  1831.12  1850.88
                             1886.91  1907.72  1923.25  1930.37  1973.98
                             1998.45  2027.06  2033.68  2080.71  2096.31
                             2144.34  2148.58  2157.39  2186.10  2211.67
                             2212.79  2240.09  2572.03  4320.96  4345.12
                             4389.95  4403.31  4418.70  4441.65  4510.92
                             4515.99  4526.24  4547.82  4624.25  4647.12
                             4998.99  5041.52  5090.27  5181.90

 Zero-point correction=                           0.263320 (Hartree/Particle)
 Thermal correction to Energy=                    0.275878
 Thermal correction to Enthalpy=                  0.276823
 Thermal correction to Gibbs Free Energy=         0.222944
 Sum of electronic and zero-point Energies=           -646.542081
 Sum of electronic and thermal Energies=              -646.529523
 Sum of electronic and thermal Enthalpies=            -646.528579
 Sum of electronic and thermal Free Energies=         -646.582457

                     E (Thermal)             CV                S
                      KCal/Mol        Cal/Mol-Kelvin    Cal/Mol-Kelvin
 Total                  173.116             49.008            113.396
 Electronic               0.000              0.000              0.000
 Translational            0.889              2.981             41.726
 Rotational               0.889              2.981             31.551
 Vibrational            171.339             43.046             40.120
 Vibration     1          0.594              1.984              5.840
 Vibration     2          0.594              1.982              5.515
 Vibration     3          0.599              1.966              4.014
 Vibration     4          0.603              1.951              3.510
 Vibration     5          0.610              1.930              3.060
 Vibration     6          0.628              1.870              2.352
 Vibration     7          0.640              1.834              2.096
 Vibration     8          0.659              1.775              1.785
 Vibration     9          0.695              1.667              1.396
 Vibration    10          0.719              1.597              1.217
 Vibration    11          0.758              1.491              1.000
 Vibration    12          0.767              1.466              0.956
 Vibration    13          0.798              1.387              0.833
 Vibration    14          0.817              1.341              0.769
 Vibration    15          0.868              1.221              0.626
 Vibration    16          0.923              1.103              0.510
 Vibration    17          0.959              1.029              0.447

 Optimization completed.
    -- Stationary point found.
 Normal termination of Gaussian 16 at Thu Dec 10 09:38:08 2020.

 ----------------------------------------------------------------------
 # B3LYP/6-311++G(d,p) empiricaldispersion=gd3bj scf=xqc pop=npa geom=c
 heck
 ----------------------------------------------------------------------

 ---------------------------------------
 CID_130015172_JID_4013_Energie_neutraal
 ---------------------------------------
 Structure from the checkpoint file:  "JID_4013.chk"
 Charge =  0 Multiplicity = 1

 SCF Done:  E(RB3LYP) =  -646.999478575     A.U. after   14 cycles
 Normal termination of Gaussian 16 at Thu Dec 10 09:41:33 2020.

 ----------------------------------------------------------------------
 # B3LYP/6-311++G(d,p) empiricaldispersion=gd3bj scf=xqc pop=npa geom=c
 heck
 ----------------------------------------------------------------------

 -------------------------------------
 CID_130015172_JID_4013_Energie_kation
 -------------------------------------
 Structure from the checkpoint file:  "JID_4013.chk"
 Charge =  1 Multiplicity = 2

 SCF Done:  E(UB3LYP) =  -646.686397699     A.U. after   33 cycles
 SCF Done:  E(UB3LYP) =  -646.686397699     a.u. after    1 cycles
 Normal termination of Gaussian 16 at Thu Dec 10 09:52:24 2020.
 Gaussian 16:  ES64L-G16RevA.03 25-Dec-2016

 ----------------------------------------------------------------------
 # B3LYP/6-311++G(d,p) empiricaldispersion=gd3bj scf=xqc pop=npa geom=c
 heck
 ----------------------------------------------------------------------

 ------------------------------------
 CID_130015172_JID_4013_Energie_anion
 ------------------------------------
 Structure from the checkpoint file:  "JID_4013.chk"
 Charge = -1 Multiplicity = 2

                         Standard orientation:
 ---------------------------------------------------------------------
 Center     Atomic      Atomic             Coordinates (Angstroms)
 Number     Number       Type             X           Y           Z
 ---------------------------------------------------------------------
      1          6           0       -2.719401   -1.287699   -0.851100
      2          6           0       -3.855732   -0.300627   -0.757758
      3          6           0       -2.452742    0.133122   -0.412588
      4          6           0       -2.112697    0.454338    1.026440
      5          6           0       -0.608050    0.599905    1.359611
      6          7           0        0.222950   -0.585438    1.232230
      7          6           0        0.620701   -1.007396   -0.105058
      8          6           0        1.356139    0.159644   -0.796185
      9          6           0        2.858686   -0.174279   -0.524846
     10          7           0        2.879370   -1.390125    0.313445
     11          7           0        1.625336   -2.063108    0.088570
     12          6           0        0.983648    1.564505   -0.355022
     13          8           0        1.523623    2.550908   -0.842206
     14          7           0       -0.003066    1.675171    0.582761
     15          1           0       -2.387606   -1.598567   -1.838000
     16          1           0       -2.661864   -2.070627   -0.098444
     17          1           0       -4.298712    0.065756   -1.679303
     18          1           0       -4.563697   -0.417850    0.059125
     19          1           0       -1.962277    0.776698   -1.139994
     20          1           0       -2.598269    1.399968    1.311549
     21          1           0       -2.535308   -0.313179    1.690650
     22          1           0       -0.556072    0.893964    2.418044
     23          1           0       -0.189247   -1.370622    1.728109
     24          1           0       -0.199223   -1.406896   -0.714230
     25          1           0        1.165123    0.131433   -1.873934
     26          1           0        3.370535   -0.381825   -1.470012
     27          1           0        3.388766    0.645480   -0.034073
     28          1           0        2.832711   -1.105246    1.289893
     29          1           0        1.729636   -2.588376   -0.779501
     30          1           0       -0.218927    2.628051    0.847766
 ---------------------------------------------------------------------

 SCF Done:  E(UB3LYP) =  -646.990956396     A.U. after   32 cycles

 The electronic state is 2-A.
 Alpha  occ. eigenvalues --  -18.98442 -14.23684 -14.23059 -14.22827 -14.20751
 Alpha  occ. eigenvalues --  -10.17285 -10.14428 -10.13020 -10.10114 -10.08638
 Alpha  occ. eigenvalues --  -10.08278 -10.07649 -10.07505 -10.07221  -0.93870
 Alpha  occ. eigenvalues --   -0.89798  -0.85124  -0.78295  -0.76599  -0.69745
 Alpha  occ. eigenvalues --   -0.68756  -0.63898  -0.56127  -0.54236  -0.52217
 Alpha  occ. eigenvalues --   -0.50805  -0.47935  -0.45962  -0.42872  -0.42058
 Alpha  occ. eigenvalues --   -0.41055  -0.40062  -0.36828  -0.36544  -0.35395
 Alpha  occ. eigenvalues --   -0.34861  -0.34125  -0.32334  -0.31564  -0.30589
 Alpha  occ. eigenvalues --   -0.29155  -0.27411  -0.27064  -0.25863  -0.25369
 Alpha  occ. eigenvalues --   -0.24942  -0.20207  -0.19543  -0.17263  -0.16145
 Alpha  occ. eigenvalues --   -0.15479  -0.14778  -0.13639   0.04123
 Alpha virt. eigenvalues --    0.06196   0.07352   0.07609   0.08963   0.09046
 Alpha virt. eigenvalues --    0.09604   0.10306   0.10492   0.11361   0.11580
 Alpha virt. eigenvalues --    0.11833   0.12721   0.13214   0.13574   0.14601

  Beta  occ. eigenvalues --  -18.98427 -14.23666 -14.23042 -14.22823 -14.20732
  Beta  occ. eigenvalues --  -10.17271 -10.14407 -10.13012 -10.10103 -10.08629
  Beta  occ. eigenvalues --  -10.08274 -10.07634 -10.07475 -10.07182  -0.93839
  Beta  occ. eigenvalues --   -0.89779  -0.85086  -0.78260  -0.76579  -0.69715
  Beta  occ. eigenvalues --   -0.68717  -0.63843  -0.56081  -0.54194  -0.52169
  Beta  occ. eigenvalues --   -0.50735  -0.47868  -0.45903  -0.42837  -0.42030
  Beta  occ. eigenvalues --   -0.41005  -0.40022  -0.36781  -0.36494  -0.35360
  Beta  occ. eigenvalues --   -0.34811  -0.34070  -0.32289  -0.31520  -0.30551
  Beta  occ. eigenvalues --   -0.29118  -0.27371  -0.27031  -0.25825  -0.25330
  Beta  occ. eigenvalues --   -0.24893  -0.20180  -0.19511  -0.17241  -0.16105
  Beta  occ. eigenvalues --   -0.15464  -0.14755  -0.13601
  Beta virt. eigenvalues --    0.06573   0.07441   0.07700   0.08371   0.09187
  Beta virt. eigenvalues --    0.09424   0.10158   0.10597   0.11100   0.11609
  Beta virt. eigenvalues --    0.11857   0.12241   0.12857   0.13561   0.14066

 Mulliken charges and spin densities:
               1          2
     1  C    0.951808  -1.423537
     2  C    0.237444  -0.687306
     3  C   -2.138236   2.751792
     4  C    1.866096  -2.878487
     5  C    0.461815  -0.403947
     6  N   -0.205950  -0.026969
     7  C    0.909010  -1.644370
     8  C   -0.260867   0.828137
     9  C   -0.027457  -0.604430
    10  N   -0.164674   0.029557
    11  N   -0.207627   0.145118
    12  C   -0.404447  -0.043807
    13  O   -0.349589   0.017363
    14  N   -0.232957  -0.001748
    15  H   -0.171951   0.308370
    16  H   -0.212353   0.391370
    17  H   -0.061869   0.202505
    18  H   -0.093793   0.225420
    19  H   -0.019062   0.261403
    20  H   -0.304789   0.477233
    21  H   -0.273878   0.447769
    22  H   -1.035135   1.281125
    23  H    0.103260   0.181011
    24  H    0.305305   0.033769
    25  H   -0.202529   0.454440
    26  H    0.035364   0.124616
    27  H    0.178555   0.011721
    28  H    0.185242   0.081810
    29  H    0.016515   0.239139
    30  H    0.116750   0.220933
 Sum of Mulliken charges =  -1.00000   1.00000

 Dipole moment (field-independent basis, Debye):
    X=              1.7209    Y=             -0.4294    Z=             -1.8574  Tot=              2.5682
 Quadrupole moment (field-independent basis, Debye-Ang):
   XX=           -136.7779   YY=           -133.2833   ZZ=           -129.2380
   XY=             -0.9128   XZ=              8.5835   YZ=             -1.4768

 Summary of Natural Population Analysis:

                                       Natural Population
                Natural  -----------------------------------------------
    Atom  No    Charge         Core      Valence    Rydberg      Total
 -----------------------------------------------------------------------
      C    1   -0.20174      0.99961     2.19294    0.00919     3.20174
      C    2   -0.19371      0.99962     2.18746    0.00663     3.19371
      C    3   -0.12164      0.99958     2.11231    0.00976     3.12164
      C    4   -0.19812      0.99958     2.18729    0.01125     3.19812
      C    5    0.09373      0.99960     1.88957    0.01709     2.90627
      N    6   -0.35257      0.99971     2.83974    0.01312     3.85257
      C    7    0.07211      0.99959     1.91284    0.01547     2.92789
      C    8   -0.16835      0.99954     2.15650    0.01231     3.16835
      C    9   -0.08914      0.99963     2.07910    0.01041     3.08914
      N   10   -0.24779      0.99976     2.73483    0.01319     3.74779
      N   11   -0.24574      0.99974     2.73114    0.01487     3.74574
      C   12    0.35032      0.99963     1.62760    0.02245     2.64968
      O   13   -0.33121      0.99988     3.32555    0.00578     4.33121
      N   14   -0.31962      0.99965     2.80953    0.01044     3.81962
      H   15    0.10381      0.00000     0.39477    0.00142     0.39619
      H   16    0.10340      0.00000     0.39518    0.00142     0.39660
      H   17    0.10029      0.00000     0.39871    0.00100     0.39971
      H   18    0.10112      0.00000     0.39774    0.00114     0.39888
      H   19    0.10526      0.00000     0.39299    0.00175     0.39474
      H   20    0.10323      0.00000     0.39441    0.00236     0.39677
      H   21    0.10242      0.00000     0.39464    0.00294     0.39758
      H   22    0.09773      0.00000     0.39864    0.00363     0.40227
      H   23    0.18800      0.00000     0.30885    0.00315     0.31200
      H   24    0.09481      0.00000     0.40236    0.00283     0.40519
      H   25    0.11643      0.00000     0.38170    0.00187     0.38357
      H   26    0.09123      0.00000     0.40729    0.00148     0.40877
      H   27    0.10139      0.00000     0.39755    0.00106     0.39861
      H   28    0.17316      0.00000     0.32349    0.00335     0.32684
      H   29    0.17159      0.00000     0.32594    0.00247     0.32841
      H   30    0.19959      0.00000     0.29814    0.00227     0.30041
 =======================================================================
   * Total *   -0.00000     13.99512    38.79881    0.20607    53.00000

 Normal termination of Gaussian 16 at Thu Dec 10 10:03:27 2020.
