 Gaussian 16, Revision A.03,

 -----------------------------------------------------------
 # opt freq B3LYP/6-31G(d) empiricaldispersion=gd3bj scf=xqc
 -----------------------------------------------------------

 ------------------------------
 CID_61841668_JID_7734_neutraal
 ------------------------------
 Symbolic Z-matrix:
 Charge =  0 Multiplicity = 1

 SCF Done:  E(RB3LYP) =  -1088.00556220     A.U. after   16 cycles
 SCF Done:  E(RB3LYP) =  -1088.00750198     A.U. after   14 cycles
 SCF Done:  E(RB3LYP) =  -1088.00683620     A.U. after   14 cycles
 SCF Done:  E(RB3LYP) =  -1088.01149196     A.U. after   13 cycles
 SCF Done:  E(RB3LYP) =  -1088.01189270     A.U. after   13 cycles
 SCF Done:  E(RB3LYP) =  -1088.01384128     A.U. after   13 cycles
 SCF Done:  E(RB3LYP) =  -1088.01324859     A.U. after   15 cycles
 SCF Done:  E(RB3LYP) =  -1088.01494700     A.U. after   13 cycles
 SCF Done:  E(RB3LYP) =  -1088.01486928     A.U. after   13 cycles
 SCF Done:  E(RB3LYP) =  -1088.01530412     A.U. after   13 cycles
 SCF Done:  E(RB3LYP) =  -1088.02173453     A.U. after   11 cycles
 SCF Done:  E(RB3LYP) =  -1088.02174170     A.U. after   10 cycles
 SCF Done:  E(RB3LYP) =  -1088.02174298     A.U. after    8 cycles
 SCF Done:  E(RB3LYP) =  -1088.02174369     A.U. after    8 cycles
 SCF Done:  E(RB3LYP) =  -1088.02174381     A.U. after    8 cycles
 Optimization completed.
    -- Stationary point found.
 Normal termination of Gaussian 16 at Fri Dec 11 14:22:30 2020.

 --------------------------------------------------------------------
 #N Geom=AllCheck Guess=TCheck SCRF=Check GenChk RB3LYP/6-31G(d) Freq
 --------------------------------------------------------------------

 Structure from the checkpoint file:  "JID_7734.chk"
 ------------------------------
 CID_61841668_JID_7734_neutraal
 ------------------------------
 Charge =  0 Multiplicity = 1

 SCF Done:  E(RB3LYP) =  -1088.02174381     A.U. after    1 cycles

  Exact polarizability: 169.518  -2.506 165.316  26.489  -0.939 129.426
 Approx polarizability: 236.453 -12.424 302.827  59.838  -8.068 214.824

                      1                      2                      3
                      A                      A                      A
 Frequencies --     44.5101                58.1963                68.7858
 Red. masses --      5.1695                 7.5352                 4.9689
 Frc consts  --      0.0060                 0.0150                 0.0139
 IR Inten    --      0.8834                 1.2425                 0.9354

                      4                      5                      6
                      A                      A                      A
 Frequencies --     75.3575                93.7178               116.3229
 Red. masses --      4.4784                 4.1095                 2.1936
 Frc consts  --      0.0150                 0.0213                 0.0175
 IR Inten    --      6.1616                 3.4098                 1.7004

                      7                      8                      9
                      A                      A                      A
 Frequencies --    139.5486               151.2529               180.6717
 Red. masses --      3.8218                 4.0220                 3.5601
 Frc consts  --      0.0438                 0.0542                 0.0685
 IR Inten    --      1.0351                 1.6058                 0.3779

                     10                     11                     12
                      A                      A                      A
 Frequencies --    246.0885               275.1323               349.2866
 Red. masses --      4.0337                 3.9909                 4.7275
 Frc consts  --      0.1439                 0.1780                 0.3398
 IR Inten    --      1.9580                 7.2678                 6.6560

                     13                     14                     15
                      A                      A                      A
 Frequencies --    374.7007               390.0242               405.0673
 Red. masses --      2.7837                 4.0697                 3.7695
 Frc consts  --      0.2303                 0.3647                 0.3644
 IR Inten    --      0.5706                 3.4589                 0.2859

                     16                     17                     18
                      A                      A                      A
 Frequencies --    413.9554               429.4193               431.4558
 Red. masses --      2.1848                 1.9984                 2.4204
 Frc consts  --      0.2206                 0.2171                 0.2655
 IR Inten    --     83.2555                77.2132                44.1697

                     19                     20                     21
                      A                      A                      A
 Frequencies --    460.9936               486.3460               514.6178
 Red. masses --      4.1693                 1.6195                 2.4490
 Frc consts  --      0.5220                 0.2257                 0.3821
 IR Inten    --      3.8427                52.6029                18.5300

                     22                     23                     24
                      A                      A                      A
 Frequencies --    567.8469               594.8511               627.6824
 Red. masses --      1.9662                 3.2517                 1.6691
 Frc consts  --      0.3735                 0.6779                 0.3875
 IR Inten    --     15.1740                65.9333                23.3579

                     25                     26                     27
                      A                      A                      A
 Frequencies --    634.2090               651.4592               668.0413
 Red. masses --      6.4232                 3.4127                 3.7794
 Frc consts  --      1.5222                 0.8533                 0.9938
 IR Inten    --      0.0785                10.3405                 8.1823

                     28                     29                     30
                      A                      A                      A
 Frequencies --    681.0503               716.1081               735.4687
 Red. masses --      5.4902                 1.9200                 4.1453
 Frc consts  --      1.5004                 0.5801                 1.3211
 IR Inten    --      5.5571                37.5179                14.6501

                     31                     32                     33
                      A                      A                      A
 Frequencies --    780.8901               804.9025               840.8295
 Red. masses --      1.8489                 1.4311                 1.8197
 Frc consts  --      0.6643                 0.5463                 0.7580
 IR Inten    --     10.2908                 0.8146                 0.9381

                     34                     35                     36
                      A                      A                      A
 Frequencies --    860.7629               875.7431               904.2714
 Red. masses --      1.2468                 3.0848                 2.7525
 Frc consts  --      0.5443                 1.3939                 1.3261
 IR Inten    --      1.8764                 7.7597                 3.3131

                     37                     38                     39
                      A                      A                      A
 Frequencies --    905.9315               941.8376               950.9225
 Red. masses --      2.6349                 1.9616                 1.8498
 Frc consts  --      1.2741                 1.0252                 0.9855
 IR Inten    --      4.9074                13.2428                 8.2831

                     40                     41                     42
                      A                      A                      A
 Frequencies --    970.5522               978.7811               998.6039
 Red. masses --      1.9531                 1.4102                 1.2611
 Frc consts  --      1.0840                 0.7960                 0.7409
 IR Inten    --      4.0407                 1.3327                 0.5477

                     43                     44                     45
                      A                      A                      A
 Frequencies --   1019.2840              1020.5880              1026.4796
 Red. masses --      3.4379                 1.7585                 5.5495
 Frc consts  --      2.1044                 1.0792                 3.4451
 IR Inten    --      1.7374                 5.9217                 1.1161

                     46                     47                     48
                      A                      A                      A
 Frequencies --   1057.4902              1069.5548              1077.1679
 Red. masses --      2.0444                 1.6687                 2.1841
 Frc consts  --      1.3470                 1.1247                 1.4931
 IR Inten    --      2.6681                 0.1819                 0.3298

                     49                     50                     51
                      A                      A                      A
 Frequencies --   1107.5683              1118.4745              1193.3214
 Red. masses --      1.5347                 3.4735                 1.1004
 Frc consts  --      1.1092                 2.5602                 0.9233
 IR Inten    --      4.6419                 8.7902                 0.1030

                     52                     53                     54
                      A                      A                      A
 Frequencies --   1204.7329              1221.1496              1237.4979
 Red. masses --      1.1368                 1.4153                 1.3820
 Frc consts  --      0.9721                 1.2434                 1.2470
 IR Inten    --      4.3584                11.7242                 4.0534

                     55                     56                     57
                      A                      A                      A
 Frequencies --   1245.9180              1262.1535              1277.1884
 Red. masses --      1.6437                 2.9091                 1.2469
 Frc consts  --      1.5033                 2.7305                 1.1984
 IR Inten    --     11.8965                20.9411                12.1436

                     58                     59                     60
                      A                      A                      A
 Frequencies --   1314.0312              1323.3147              1336.7016
 Red. masses --      1.7545                 1.3396                 2.3716
 Frc consts  --      1.7849                 1.3822                 2.4967
 IR Inten    --     46.2249                11.3806                 0.4842

                     61                     62                     63
                      A                      A                      A
 Frequencies --   1349.5080              1356.3143              1359.7232
 Red. masses --      1.9136                 2.1366                 1.4510
 Frc consts  --      2.0533                 2.3158                 1.5806
 IR Inten    --     79.3757               166.2516                 7.9842

                     64                     65                     66
                      A                      A                      A
 Frequencies --   1362.1453              1368.7332              1407.3275
 Red. masses --      2.1928                 1.5702                 3.4020
 Frc consts  --      2.3971                 1.7331                 3.9699
 IR Inten    --     12.6828                23.7993               113.2363

                     67                     68                     69
                      A                      A                      A
 Frequencies --   1457.6715              1499.5061              1520.2119
 Red. masses --      1.7826                 2.1993                 1.0748
 Frc consts  --      2.2317                 2.9136                 1.4635
 IR Inten    --     30.6444                 4.6184                 1.5299

                     70                     71                     72
                      A                      A                      A
 Frequencies --   1524.8323              1537.4000              1549.2154
 Red. masses --      1.0892                 1.0893                 2.3966
 Frc consts  --      1.4922                 1.5169                 3.3889
 IR Inten    --      5.4092                 5.9311                45.2594

                     73                     74                     75
                      A                      A                      A
 Frequencies --   1556.5897              1643.2409              1660.2269
 Red. masses --      1.1216                 5.6961                 5.6057
 Frc consts  --      1.6012                 9.0621                 9.1037
 IR Inten    --      6.1981                 3.2302                13.8781

                     76                     77                     78
                      A                      A                      A
 Frequencies --   1669.2975              1783.4984              3065.4695
 Red. masses --      1.2520                 9.2280                 1.0620
 Frc consts  --      2.0555                17.2943                 5.8799
 IR Inten    --    117.0479               341.0670                18.4584

                     79                     80                     81
                      A                      A                      A
 Frequencies --   3070.7988              3077.5441              3096.9306
 Red. masses --      1.0644                 1.0659                 1.0927
 Frc consts  --      5.9136                 5.9483                 6.1747
 IR Inten    --     36.8513                24.7608                12.1203

                     82                     83                     84
                      A                      A                      A
 Frequencies --   3104.0186              3115.4992              3125.3379
 Red. masses --      1.0771                 1.0973                 1.1019
 Frc consts  --      6.1146                 6.2750                 6.3412
 IR Inten    --      5.3083                 3.5189                73.8143

                     85                     86                     87
                      A                      A                      A
 Frequencies --   3167.5219              3188.0293              3198.9891
 Red. masses --      1.1021                 1.0856                 1.0895
 Frc consts  --      6.5148                 6.5008                 6.5692
 IR Inten    --      5.2030                 0.3709                10.0657

                     88                     89                     90
                      A                      A                      A
 Frequencies --   3209.6500              3217.5082              3234.4412
 Red. masses --      1.0934                 1.0958                 1.0940
 Frc consts  --      6.6368                 6.6835                 6.7430
 IR Inten    --     25.7167                 7.4378                 0.6581

                     91                     92                     93
                      A                      A                      A
 Frequencies --   3573.5382              3573.9566              3691.3530
 Red. masses --      1.0450                 1.0749                 1.1034
 Frc consts  --      7.8627                 8.0894                 8.8581
 IR Inten    --     26.0382                33.3858                30.9962

 - Thermochemistry -
 -------------------
 Temperature   298.150 Kelvin.  Pressure   1.00000 Atm.
 Atom     1 has atomic number  6 and mass  12.00000

 Molecular mass:   248.09834 amu.
 Principal axes and moments of inertia in atomic units:
                           1         2         3
     Eigenvalues --  2690.870455132.735135264.27689
           X            0.99983   0.01786  -0.00521
           Y           -0.01851   0.98311  -0.18207
           Z            0.00187   0.18213   0.98327
 This molecule is an asymmetric top.
 Rotational symmetry number  1.
 Warning -- assumption of classical behavior for rotation
           may cause significant error
 Rotational temperatures (Kelvin)      0.03219     0.01687     0.01645
 Rotational constants (GHZ):           0.67069     0.35161     0.34283
 Zero-point vibrational energy     722693.0 (Joules/Mol)
                                  172.72778 (Kcal/Mol)
 Warning -- explicit consideration of  23 degrees of freedom as
           vibrations may cause significant error
 Vibrational temperatures:     64.04    83.73    98.97   108.42   134.84
          (Kelvin)            167.36   200.78   217.62   259.95   354.07
                              395.85   502.55   539.11   561.16   582.80
                              595.59   617.84   620.77   663.27   699.74
                              740.42   817.01   855.86   903.10   912.49
                              937.30   961.16   979.88  1030.32  1058.18
                             1123.53  1158.08  1209.77  1238.45  1260.00
                             1301.04  1303.43  1355.09  1368.17  1396.41
                             1408.25  1436.77  1466.52  1468.40  1476.88
                             1521.49  1538.85  1549.80  1593.54  1609.24
                             1716.92  1733.34  1756.96  1780.48  1792.60
                             1815.96  1837.59  1890.60  1903.95  1923.22
                             1941.64  1951.43  1956.34  1959.82  1969.30
                             2024.83  2097.26  2157.45  2187.25  2193.89
                             2211.98  2228.98  2239.59  2364.26  2388.70
                             2401.75  2566.06  4410.53  4418.19  4427.90
                             4455.79  4465.99  4482.51  4496.66  4557.36
                             4586.86  4602.63  4617.97  4629.28  4653.64
                             5141.52  5142.13  5311.03

 Zero-point correction=                           0.275259 (Hartree/Particle)
 Thermal correction to Energy=                    0.290844
 Thermal correction to Enthalpy=                  0.291788
 Thermal correction to Gibbs Free Energy=         0.232016
 Sum of electronic and zero-point Energies=          -1087.746485
 Sum of electronic and thermal Energies=             -1087.730900
 Sum of electronic and thermal Enthalpies=           -1087.729956
 Sum of electronic and thermal Free Energies=        -1087.789728

                     E (Thermal)             CV                S
                      KCal/Mol        Cal/Mol-Kelvin    Cal/Mol-Kelvin
 Total                  182.507             61.001            125.801
 Electronic               0.000              0.000              0.000
 Translational            0.889              2.981             42.427
 Rotational               0.889              2.981             32.653
 Vibrational            180.730             55.040             50.721
 Vibration     1          0.595              1.980              5.048
 Vibration     2          0.596              1.974              4.517
 Vibration     3          0.598              1.969              4.188
 Vibration     4          0.599              1.965              4.008
 Vibration     5          0.603              1.954              3.581
 Vibration     6          0.608              1.936              3.161
 Vibration     7          0.615              1.914              2.810
 Vibration     8          0.619              1.901              2.656
 Vibration     9          0.630              1.866              2.321
 Vibration    10          0.661              1.769              1.758
 Vibration    11          0.677              1.719              1.564
 Vibration    12          0.727              1.577              1.169
 Vibration    13          0.746              1.524              1.060
 Vibration    14          0.758              1.491              1.000
 Vibration    15          0.770              1.459              0.944
 Vibration    16          0.778              1.440              0.913
 Vibration    17          0.791              1.406              0.861
 Vibration    18          0.792              1.402              0.854
 Vibration    19          0.819              1.337              0.763
 Vibration    20          0.842              1.280              0.693
 Vibration    21          0.870              1.218              0.623
 Vibration    22          0.924              1.101              0.508
 Vibration    23          0.953              1.043              0.459

 Optimization completed.
    -- Stationary point found.
 Normal termination of Gaussian 16 at Fri Dec 11 14:36:05 2020.

 ----------------------------------------------------------------------
 # B3LYP/6-311++G(d,p) empiricaldispersion=gd3bj scf=xqc pop=npa geom=c
 heck
 ----------------------------------------------------------------------

 --------------------------------------
 CID_61841668_JID_7734_Energie_neutraal
 --------------------------------------
 Structure from the checkpoint file:  "JID_7734.chk"
 Charge =  0 Multiplicity = 1

 SCF Done:  E(RB3LYP) =  -1088.24256954     A.U. after   16 cycles
 Normal termination of Gaussian 16 at Fri Dec 11 14:43:00 2020.

 ----------------------------------------------------------------------
 # B3LYP/6-311++G(d,p) empiricaldispersion=gd3bj scf=xqc pop=npa geom=c
 heck
 ----------------------------------------------------------------------

 ------------------------------------
 CID_61841668_JID_7734_Energie_kation
 ------------------------------------
 Structure from the checkpoint file:  "JID_7734.chk"
 Charge =  1 Multiplicity = 2

 SCF Done:  E(UB3LYP) =  -1087.95001486     A.U. after   28 cycles
 Normal termination of Gaussian 16 at Fri Dec 11 15:00:00 2020.
 Gaussian 16:  ES64L-G16RevA.03 25-Dec-2016

 ----------------------------------------------------------------------
 # B3LYP/6-311++G(d,p) empiricaldispersion=gd3bj scf=xqc pop=npa geom=c
 heck
 ----------------------------------------------------------------------

 -----------------------------------
 CID_61841668_JID_7734_Energie_anion
 -----------------------------------
 Structure from the checkpoint file:  "JID_7734.chk"
 Charge = -1 Multiplicity = 2

                         Standard orientation:
 ---------------------------------------------------------------------
 Center     Atomic      Atomic             Coordinates (Angstroms)
 Number     Number       Type             X           Y           Z
 ---------------------------------------------------------------------
      1          6           0       -2.439425   -1.985934    0.881684
      2          6           0       -3.293982   -0.694387    0.988628
      3          6           0       -2.816003    0.195374   -0.166014
      4          6           0       -1.297716   -0.105525   -0.266363
      5          6           0       -1.316008   -1.656913   -0.135144
      6          6           0       -0.581207    0.645095    0.864524
      7         16           0       -0.614595    2.308581    0.969277
      8          7           0        0.031176   -0.100524    1.801394
      9          6           0       -0.764937    0.324912   -1.654630
     10          8           0       -1.524538    0.614205   -2.565443
     11          7           0        0.594662    0.310949   -1.875707
     12          6           0        1.655173   -0.014183   -0.977508
     13          6           0        1.997544   -1.352113   -0.757940
     14          6           0        3.005396   -1.677334    0.150874
     15          6           0        3.691511   -0.663154    0.821710
     16          6           0        3.379099    0.674797    0.568740
     17          6           0        2.365360    1.000962   -0.330235
     18          1           0       -3.029561   -2.838964    0.533139
     19          1           0       -2.026199   -2.265010    1.856162
     20          1           0       -4.367893   -0.895662    0.933783
     21          1           0       -3.107448   -0.196481    1.946365
     22          1           0       -3.007219    1.258796   -0.021263
     23          1           0       -3.267585   -0.103004   -1.115717
     24          1           0       -0.349635   -2.099529    0.120607
     25          1           0       -1.574415   -2.055764   -1.121804
     26          1           0        0.238134   -1.076558    1.644300
     27          1           0        0.582127    0.384136    2.497583
     28          1           0        0.837274    0.673424   -2.790921
     29          1           0        1.470856   -2.126280   -1.306270
     30          1           0        3.263002   -2.718513    0.323102
     31          1           0        4.476682   -0.913970    1.529243
     32          1           0        3.917686    1.466636    1.080917
     33          1           0        2.084326    2.033234   -0.503886
 ---------------------------------------------------------------------

 SCF Done:  E(UB3LYP) =  -1088.24613070     A.U. after   33 cycles
 SCF Done:  E(UB3LYP) =  -1088.24613070     a.u. after    1 cycles

 The electronic state is 2-A.
 Alpha  occ. eigenvalues --  -88.63289 -18.96367 -14.21128 -14.19158 -10.14755
 Alpha  occ. eigenvalues --  -10.08056 -10.07673 -10.07016 -10.06097 -10.06063
 Alpha  occ. eigenvalues --  -10.05820 -10.05040 -10.05037 -10.04995 -10.04745
 Alpha  occ. eigenvalues --  -10.04541 -10.03447  -7.72067  -5.68413  -5.67941
 Alpha  occ. eigenvalues --   -5.67647  -0.91725  -0.80575  -0.79580  -0.72549
 Alpha  occ. eigenvalues --   -0.72139  -0.62792  -0.62720  -0.61729  -0.59925
 Alpha  occ. eigenvalues --   -0.56795  -0.50668  -0.48906  -0.48622  -0.46300
 Alpha  occ. eigenvalues --   -0.45638  -0.42184  -0.40965  -0.40121  -0.37130
 Alpha  occ. eigenvalues --   -0.36544  -0.35675  -0.34058  -0.33090  -0.32310
 Alpha  occ. eigenvalues --   -0.30783  -0.30437  -0.29610  -0.27633  -0.25696
 Alpha  occ. eigenvalues --   -0.25131  -0.24759  -0.24186  -0.23412  -0.22908
 Alpha  occ. eigenvalues --   -0.22632  -0.22307  -0.20791  -0.19963  -0.19113
 Alpha  occ. eigenvalues --   -0.14899  -0.13904  -0.13558  -0.12551  -0.08232
 Alpha  occ. eigenvalues --   -0.06016   0.04970
 Alpha virt. eigenvalues --    0.07462   0.08210   0.08884   0.09336   0.10089
 Alpha virt. eigenvalues --    0.10328   0.10525   0.10703   0.11453   0.11764
 Alpha virt. eigenvalues --    0.12409   0.13302   0.13362   0.13625   0.14488

  Beta  occ. eigenvalues --  -88.63268 -18.96359 -14.21137 -14.19010 -10.14680
  Beta  occ. eigenvalues --  -10.07468 -10.07429 -10.07061 -10.06089 -10.06060
  Beta  occ. eigenvalues --  -10.05872 -10.05041 -10.04960 -10.04940 -10.04739
  Beta  occ. eigenvalues --  -10.04295 -10.03401  -7.72048  -5.68424  -5.67849
  Beta  occ. eigenvalues --   -5.67636  -0.91683  -0.80308  -0.79124  -0.72383
  Beta  occ. eigenvalues --   -0.72019  -0.62564  -0.62485  -0.61375  -0.59873
  Beta  occ. eigenvalues --   -0.56399  -0.50403  -0.48848  -0.48333  -0.45949
  Beta  occ. eigenvalues --   -0.45530  -0.42075  -0.40748  -0.40004  -0.37009
  Beta  occ. eigenvalues --   -0.36395  -0.35596  -0.33913  -0.32921  -0.32190
  Beta  occ. eigenvalues --   -0.30699  -0.30389  -0.29518  -0.27539  -0.24975
  Beta  occ. eigenvalues --   -0.24924  -0.24479  -0.23866  -0.23319  -0.22771
  Beta  occ. eigenvalues --   -0.22273  -0.22093  -0.20577  -0.19267  -0.18682
  Beta  occ. eigenvalues --   -0.14417  -0.13570  -0.13299  -0.11813  -0.07244
  Beta  occ. eigenvalues --   -0.05946
  Beta virt. eigenvalues --    0.07377   0.08141   0.09227   0.09387   0.09701
  Beta virt. eigenvalues --    0.10269   0.10368   0.10789   0.11430   0.11647
  Beta virt. eigenvalues --    0.12015   0.12959   0.13254   0.13328   0.13828

 Mulliken charges and spin densities:
               1          2
     1  C   -0.565148  -0.020154
     2  C   -0.288851  -0.009577
     3  C   -0.631311  -0.009678
     4  C    1.460538  -0.045578
     5  C   -0.544629   0.002584
     6  C    0.178707   0.296011
     7  S   -0.893918   0.145992
     8  N   -0.345886   0.099408
     9  C   -0.182415  -0.025171
    10  O   -0.313814   0.002239
    11  N   -0.352496   0.001147
    12  C   -0.254051   0.062691
    13  C    0.050680   0.136103
    14  C   -0.485194  -0.020382
    15  C   -0.116455   0.093297
    16  C   -0.527870   0.076053
    17  C    0.342772   0.031538
    18  H    0.106645   0.007806
    19  H    0.108530   0.026720
    20  H    0.143656   0.002299
    21  H    0.119674   0.040597
    22  H    0.142741  -0.004273
    23  H    0.140382   0.027123
    24  H    0.071732   0.021609
    25  H    0.199720   0.002850
    26  H    0.218076  -0.000055
    27  H    0.251430   0.001951
    28  H    0.311981   0.013971
    29  H    0.160539  -0.008070
    30  H    0.122039   0.014132
    31  H    0.112160  -0.005256
    32  H    0.111646   0.020082
    33  H    0.148392   0.021992
 Sum of Mulliken charges =  -1.00000   1.00000

 Dipole moment (field-independent basis, Debye):
    X=              1.3575    Y=             -5.9237    Z=              0.3968  Tot=              6.0902
 Quadrupole moment (field-independent basis, Debye-Ang):
   XX=           -141.5147   YY=           -132.2068   ZZ=           -131.2572
   XY=              7.9610   XZ=             -2.0076   YZ=             -4.6079

 Summary of Natural Population Analysis:

                                       Natural Population
                Natural  -----------------------------------------------
    Atom  No    Charge         Core      Valence    Rydberg      Total
 -----------------------------------------------------------------------
      C    1   -0.19371      0.99965     2.18647    0.00759     3.19371
      C    2   -0.19586      0.99964     2.18877    0.00744     3.19586
      C    3   -0.18032      0.99961     2.17049    0.01022     3.18032
      C    4   -0.10172      0.99945     2.08842    0.01384     3.10172
      C    5   -0.19335      0.99961     2.18414    0.00960     3.19335
      C    6    0.16224      0.99959     1.81375    0.02443     2.83776
      S    7   -0.14443      4.99953     3.13191    0.01299     8.14443
      N    8   -0.36526      0.99965     2.85347    0.01214     3.86526
      C    9    0.37738      0.99959     1.59859    0.02444     2.62262
      O   10   -0.33152      0.99987     3.32552    0.00612     4.33152
      N   11   -0.32248      0.99964     2.81156    0.01129     3.82248
      C   12    0.08908      0.99945     1.89903    0.01245     2.91092
      C   13   -0.09236      0.99951     2.08458    0.00826     3.09236
      C   14   -0.12381      0.99957     2.11553    0.00871     3.12381
      C   15   -0.06445      0.99957     2.05626    0.00862     3.06445
      C   16   -0.10123      0.99957     2.09302    0.00864     3.10123
      C   17   -0.08570      0.99951     2.07710    0.00909     3.08570
      H   18    0.09187      0.00000     0.40734    0.00080     0.40813
      H   19    0.09642      0.00000     0.40274    0.00084     0.40358
      H   20    0.09299      0.00000     0.40629    0.00072     0.40701
      H   21    0.10117      0.00000     0.39754    0.00128     0.39883
      H   22    0.11701      0.00000     0.38210    0.00088     0.38299
      H   23    0.10250      0.00000     0.39628    0.00122     0.39750
      H   24    0.10174      0.00000     0.39730    0.00096     0.39826
      H   25    0.10128      0.00000     0.39787    0.00085     0.39872
      H   26    0.18826      0.00000     0.31017    0.00157     0.31174
      H   27    0.19439      0.00000     0.30398    0.00163     0.30561
      H   28    0.19388      0.00000     0.30459    0.00152     0.30612
      H   29    0.09832      0.00000     0.40055    0.00113     0.40168
      H   30    0.09268      0.00000     0.40584    0.00148     0.40732
      H   31    0.08917      0.00000     0.40936    0.00147     0.41083
      H   32    0.09440      0.00000     0.40410    0.00150     0.40560
      H   33    0.11140      0.00000     0.38750    0.00110     0.38860
 =======================================================================
   * Total *    0.00000     20.99303    44.79214    0.21483    66.00000

 Normal termination of Gaussian 16 at Fri Dec 11 15:20:39 2020.
