 Gaussian 16, Revision A.03,

 -----------------------------------------------------------
 # opt freq B3LYP/6-31G(d) empiricaldispersion=gd3bj scf=xqc
 -----------------------------------------------------------

 ------------------------------
 CID_81601743_JID_5295_neutraal
 ------------------------------
 Symbolic Z-matrix:
 Charge =  0 Multiplicity = 1

 SCF Done:  E(RB3LYP) =  -1067.52913331     A.U. after   15 cycles
 SCF Done:  E(RB3LYP) =  -1067.53327313     A.U. after   13 cycles
 SCF Done:  E(RB3LYP) =  -1067.53174580     A.U. after   14 cycles
 SCF Done:  E(RB3LYP) =  -1067.53450177     A.U. after   13 cycles
 SCF Done:  E(RB3LYP) =  -1067.53403345     A.U. after   13 cycles
 SCF Done:  E(RB3LYP) =  -1067.53543426     A.U. after   13 cycles
 SCF Done:  E(RB3LYP) =  -1067.39911256     A.U. after   15 cycles
 SCF Done:  E(RB3LYP) =  -1067.53069610     A.U. after   13 cycles
 SCF Done:  E(RB3LYP) =  -1067.53565336     A.U. after   11 cycles
 SCF Done:  E(RB3LYP) =  -1067.53638061     A.U. after   13 cycles
 SCF Done:  E(RB3LYP) =  -1067.54944624     A.U. after   11 cycles
 SCF Done:  E(RB3LYP) =  -1067.54945847     A.U. after   10 cycles
 SCF Done:  E(RB3LYP) =  -1067.54946237     A.U. after   10 cycles
 SCF Done:  E(RB3LYP) =  -1067.54946389     A.U. after    8 cycles
 SCF Done:  E(RB3LYP) =  -1067.54946431     A.U. after    8 cycles
 SCF Done:  E(RB3LYP) =  -1067.54946446     A.U. after    7 cycles
 Optimization completed.
    -- Stationary point found.
 Normal termination of Gaussian 16 at Thu Dec 10 16:14:14 2020.

 --------------------------------------------------------------------
 #N Geom=AllCheck Guess=TCheck SCRF=Check GenChk RB3LYP/6-31G(d) Freq
 --------------------------------------------------------------------

 Structure from the checkpoint file:  "JID_5295.chk"
 ------------------------------
 CID_81601743_JID_5295_neutraal
 ------------------------------
 Charge =  0 Multiplicity = 1

 SCF Done:  E(RB3LYP) =  -1067.54946446     A.U. after    1 cycles

  Exact polarizability: 158.576   5.383 135.077 -21.798   7.975 108.256
 Approx polarizability: 248.060  17.290 221.846 -51.193  19.045 172.555

                      1                      2                      3
                      A                      A                      A
 Frequencies --     40.7194                61.8756                79.8210
 Red. masses --      3.6993                 5.6642                 8.2134
 Frc consts  --      0.0036                 0.0128                 0.0308
 IR Inten    --      0.4221                 0.4455                 0.6230

                      4                      5                      6
                      A                      A                      A
 Frequencies --     96.4404               112.3380               142.8394
 Red. masses --      5.2974                 4.8592                 3.2133
 Frc consts  --      0.0290                 0.0361                 0.0386
 IR Inten    --      0.3405                 2.6705                 2.6957

                      7                      8                      9
                      A                      A                      A
 Frequencies --    158.2619               187.9033               197.8362
 Red. masses --      2.3619                 5.0897                 2.2849
 Frc consts  --      0.0349                 0.1059                 0.0527
 IR Inten    --      6.5596                 0.4425                 2.0009

                     10                     11                     12
                      A                      A                      A
 Frequencies --    235.7642               261.5983               264.7650
 Red. masses --      3.9910                 1.9287                 3.3287
 Frc consts  --      0.1307                 0.0778                 0.1375
 IR Inten    --      1.9064                 5.8246                 3.6326

                     13                     14                     15
                      A                      A                      A
 Frequencies --    298.8185               319.2007               368.9321
 Red. masses --      4.6991                 2.2996                 8.6678
 Frc consts  --      0.2472                 0.1380                 0.6951
 IR Inten    --      2.8684                 2.0992                 1.2552

                     16                     17                     18
                      A                      A                      A
 Frequencies --    403.2380               433.4639               439.0386
 Red. masses --      2.9659                 4.0109                 5.8619
 Frc consts  --      0.2841                 0.4440                 0.6657
 IR Inten    --      2.4053                 0.9481                 1.6158

                     19                     20                     21
                      A                      A                      A
 Frequencies --    513.7294               533.1453               552.9463
 Red. masses --      4.4550                 2.5511                 5.8911
 Frc consts  --      0.6927                 0.4272                 1.0612
 IR Inten    --      0.0677                 0.5549                 5.8018

                     22                     23                     24
                      A                      A                      A
 Frequencies --    618.5986               639.5612               658.6634
 Red. masses --      1.3614                 6.1941                 4.6423
 Frc consts  --      0.3069                 1.4928                 1.1866
 IR Inten    --     55.0655                41.0814                 5.6845

                     25                     26                     27
                      A                      A                      A
 Frequencies --    695.3146               734.3355               784.8076
 Red. masses --      4.9538                 3.3156                 1.4950
 Frc consts  --      1.4111                 1.0534                 0.5425
 IR Inten    --     30.4929                81.4472                11.0051

                     28                     29                     30
                      A                      A                      A
 Frequencies --    816.4965               826.9634               829.2912
 Red. masses --      2.4431                 3.8301                 2.7733
 Frc consts  --      0.9596                 1.5432                 1.1237
 IR Inten    --     14.9269                 5.4352                 2.2666

                     31                     32                     33
                      A                      A                      A
 Frequencies --    899.2875               920.8130               959.5234
 Red. masses --      2.6858                 2.1478                 1.3678
 Frc consts  --      1.2798                 1.0730                 0.7420
 IR Inten    --      2.0257                19.1833                 0.2926

                     34                     35                     36
                      A                      A                      A
 Frequencies --    997.1891              1047.8412              1062.1341
 Red. masses --      1.3360                 2.5266                 3.5894
 Frc consts  --      0.7827                 1.6345                 2.3858
 IR Inten    --      0.9754                41.7469                27.5416

                     37                     38                     39
                      A                      A                      A
 Frequencies --   1068.2861              1094.6739              1100.9081
 Red. masses --      1.8097                 3.2375                 2.3502
 Frc consts  --      1.2168                 2.2858                 1.6782
 IR Inten    --     10.9533                14.2926                 4.4982

                     40                     41                     42
                      A                      A                      A
 Frequencies --   1144.0096              1163.4599              1170.7470
 Red. masses --      2.8558                 3.6590                 1.6113
 Frc consts  --      2.2021                 2.9182                 1.3012
 IR Inten    --     74.9041                66.2598                69.8312

                     43                     44                     45
                      A                      A                      A
 Frequencies --   1194.0718              1195.3831              1228.4386
 Red. masses --      1.2213                 1.2626                 2.1006
 Frc consts  --      1.0260                 1.0630                 1.8677
 IR Inten    --      2.8413                 3.0155               171.0114

                     46                     47                     48
                      A                      A                      A
 Frequencies --   1250.6167              1260.8354              1281.3603
 Red. masses --      1.4634                 1.3116                 1.7665
 Frc consts  --      1.3485                 1.2285                 1.7089
 IR Inten    --     36.2639                11.5722                 0.3422

                     49                     50                     51
                      A                      A                      A
 Frequencies --   1313.4198              1315.5388              1342.3069
 Red. masses --      2.2044                 1.5707                 1.2085
 Frc consts  --      2.2405                 1.6016                 1.2829
 IR Inten    --      0.3980                 2.8491                14.5079

                     52                     53                     54
                      A                      A                      A
 Frequencies --   1402.4546              1406.0695              1442.4790
 Red. masses --      2.1038                 1.6257                 1.3761
 Frc consts  --      2.4380                 1.8937                 1.6870
 IR Inten    --     37.4005                29.8613                19.5258

                     55                     56                     57
                      A                      A                      A
 Frequencies --   1470.3763              1475.0371              1498.1593
 Red. masses --      3.1444                 1.9929                 1.0938
 Frc consts  --      4.0054                 2.5547                 1.4464
 IR Inten    --     44.3105                 3.5137                 2.8381

                     58                     59                     60
                      A                      A                      A
 Frequencies --   1502.9589              1507.7598              1514.4188
 Red. masses --      1.1280                 1.1156                 1.0557
 Frc consts  --      1.5012                 1.4942                 1.4266
 IR Inten    --      4.1791                10.2861                10.8900

                     61                     62                     63
                      A                      A                      A
 Frequencies --   1529.1650              1558.1872              1599.4517
 Red. masses --      1.0626                 1.0864                 5.2477
 Frc consts  --      1.4640                 1.5541                 7.9098
 IR Inten    --      2.5151                 3.4459                 2.8316

                     64                     65                     66
                      A                      A                      A
 Frequencies --   1629.1988              1816.9449              2988.4664
 Red. masses --      5.7800                 9.7189                 1.0591
 Frc consts  --      9.0392                18.9039                 5.5728
 IR Inten    --      0.7030               203.3444                29.2519

                     67                     68                     69
                      A                      A                      A
 Frequencies --   3005.8414              3024.1929              3045.2519
 Red. masses --      1.0445                 1.0920                 1.0682
 Frc consts  --      5.5603                 5.8841                 5.8366
 IR Inten    --     89.8112                20.5914                66.5621

                     70                     71                     72
                      A                      A                      A
 Frequencies --   3059.1574              3086.7538              3091.9953
 Red. masses --      1.1017                 1.0711                 1.1007
 Frc consts  --      6.0748                 6.0128                 6.2002
 IR Inten    --     49.6758                21.3330                22.6105

                     73                     74                     75
                      A                      A                      A
 Frequencies --   3168.7451              3179.0685              3198.2329
 Red. masses --      1.0966                 1.0891                 1.0927
 Frc consts  --      6.4876                 6.4851                 6.5850
 IR Inten    --     13.4359                18.0400                 2.9131

                     76                     77                     78
                      A                      A                      A
 Frequencies --   3203.4034              3218.4450              3691.6211
 Red. masses --      1.0895                 1.0970                 1.0639
 Frc consts  --      6.5873                 6.6951                 8.5424
 IR Inten    --      8.8244                15.0938                65.4177

 - Thermochemistry -
 -------------------
 Temperature   298.150 Kelvin.  Pressure   1.00000 Atm.
 Atom     1 has atomic number  6 and mass  12.00000

 Molecular mass:   227.06162 amu.
 Principal axes and moments of inertia in atomic units:
                           1         2         3
     Eigenvalues --  2865.253633376.382413859.32468
           X            0.99971  -0.02418  -0.00028
           Y            0.02417   0.99956  -0.01716
           Z            0.00070   0.01715   0.99985
 This molecule is an asymmetric top.
 Rotational symmetry number  1.
 Warning -- assumption of classical behavior for rotation
           may cause significant error
 Rotational temperatures (Kelvin)      0.03023     0.02565     0.02244
 Rotational constants (GHZ):           0.62987     0.53452     0.46763
 Zero-point vibrational energy     589946.7 (Joules/Mol)
                                  141.00065 (Kcal/Mol)
 Warning -- explicit consideration of  22 degrees of freedom as
           vibrations may cause significant error
 Vibrational temperatures:     58.59    89.03   114.84   138.76   161.63
          (Kelvin)            205.51   227.70   270.35   284.64   339.21
                              376.38   380.94   429.93   459.26   530.81
                              580.17   623.66   631.68   739.14   767.08
                              795.57   890.03   920.19   947.67  1000.40
                             1056.54  1129.16  1174.76  1189.82  1193.17
                             1293.87  1324.84  1380.54  1434.73  1507.61
                             1528.17  1537.03  1574.99  1583.96  1645.97
                             1673.96  1684.44  1718.00  1719.89  1767.45
                             1799.36  1814.06  1843.59  1889.72  1892.77
                             1931.28  2017.82  2023.02  2075.41  2115.54
                             2122.25  2155.52  2162.42  2169.33  2178.91
                             2200.13  2241.88  2301.25  2344.05  2614.18
                             4299.74  4324.74  4351.14  4381.44  4401.45
                             4441.15  4448.69  4559.12  4573.97  4601.54
                             4608.98  4630.62  5311.42

 Zero-point correction=                           0.224699 (Hartree/Particle)
 Thermal correction to Energy=                    0.239413
 Thermal correction to Enthalpy=                  0.240358
 Thermal correction to Gibbs Free Energy=         0.182670
 Sum of electronic and zero-point Energies=          -1067.324766
 Sum of electronic and thermal Energies=             -1067.310051
 Sum of electronic and thermal Enthalpies=           -1067.309107
 Sum of electronic and thermal Free Energies=        -1067.366795

                     E (Thermal)             CV                S
                      KCal/Mol        Cal/Mol-Kelvin    Cal/Mol-Kelvin
 Total                  150.234             54.646            121.414
 Electronic               0.000              0.000              0.000
 Translational            0.889              2.981             42.162
 Rotational               0.889              2.981             31.990
 Vibrational            148.457             48.684             47.261
 Vibration     1          0.594              1.981              5.224
 Vibration     2          0.597              1.973              4.396
 Vibration     3          0.600              1.963              3.895
 Vibration     4          0.603              1.952              3.525
 Vibration     5          0.607              1.939              3.228
 Vibration     6          0.616              1.910              2.765
 Vibration     7          0.621              1.893              2.570
 Vibration     8          0.633              1.856              2.248
 Vibration     9          0.637              1.843              2.153
 Vibration    10          0.655              1.786              1.835
 Vibration    11          0.669              1.743              1.651
 Vibration    12          0.671              1.738              1.630
 Vibration    13          0.692              1.676              1.424
 Vibration    14          0.705              1.637              1.314
 Vibration    15          0.741              1.536              1.084
 Vibration    16          0.769              1.463              0.951
 Vibration    17          0.794              1.397              0.847
 Vibration    18          0.799              1.385              0.830
 Vibration    19          0.869              1.220              0.625
 Vibration    20          0.888              1.177              0.580
 Vibration    21          0.908              1.133              0.538
 Vibration    22          0.978              0.993              0.419

 Optimization completed.
    -- Stationary point found.
 Normal termination of Gaussian 16 at Thu Dec 10 16:24:17 2020.

 ----------------------------------------------------------------------
 # B3LYP/6-311++G(d,p) empiricaldispersion=gd3bj scf=xqc pop=npa geom=c
 heck
 ----------------------------------------------------------------------

 --------------------------------------
 CID_81601743_JID_5295_Energie_neutraal
 --------------------------------------
 Structure from the checkpoint file:  "JID_5295.chk"
 Charge =  0 Multiplicity = 1

 SCF Done:  E(RB3LYP) =  -1067.77048623     A.U. after   16 cycles
 Normal termination of Gaussian 16 at Thu Dec 10 16:28:11 2020.

 ----------------------------------------------------------------------
 # B3LYP/6-311++G(d,p) empiricaldispersion=gd3bj scf=xqc pop=npa geom=c
 heck
 ----------------------------------------------------------------------

 ------------------------------------
 CID_81601743_JID_5295_Energie_kation
 ------------------------------------
 Structure from the checkpoint file:  "JID_5295.chk"
 Charge =  1 Multiplicity = 2

 SCF Done:  E(UB3LYP) =  -1067.47329922     A.U. after   25 cycles
 Normal termination of Gaussian 16 at Thu Dec 10 16:37:00 2020.
 Gaussian 16:  ES64L-G16RevA.03 25-Dec-2016

 ----------------------------------------------------------------------
 # B3LYP/6-311++G(d,p) empiricaldispersion=gd3bj scf=xqc pop=npa geom=c
 heck
 ----------------------------------------------------------------------

 -----------------------------------
 CID_81601743_JID_5295_Energie_anion
 -----------------------------------
 Structure from the checkpoint file:  "JID_5295.chk"
 Charge = -1 Multiplicity = 2

                         Standard orientation:
 ---------------------------------------------------------------------
 Center     Atomic      Atomic             Coordinates (Angstroms)
 Number     Number       Type             X           Y           Z
 ---------------------------------------------------------------------
      1          6           0        0.199842   -2.187687    1.784661
      2          8           0        1.157084   -1.453069    1.045055
      3          6           0        1.597309   -0.293312    1.727222
      4          6           0        2.693340    0.375945    0.909433
      5          6           0        2.328876    0.642182   -0.551959
      6         16           0        1.000962    1.878887   -0.836539
      7          6           0       -0.528430    1.152740   -0.270658
      8          6           0       -1.064464   -0.124782   -0.557763
      9          7           0       -2.236001   -0.545720   -0.053785
     10          6           0       -2.957063    0.278099    0.701882
     11          6           0       -2.545940    1.576516    1.007144
     12          6           0       -1.315686    2.001185    0.526994
     13          6           0       -0.408878   -1.095416   -1.491501
     14          8           0        0.410992   -0.806946   -2.340432
     15          8           0       -0.863425   -2.358416   -1.340594
     16          1           0       -0.126331   -3.014594    1.152738
     17          1           0       -0.676767   -1.571436    2.030723
     18          1           0        0.634703   -2.576985    2.718354
     19          1           0        0.752233    0.394622    1.884636
     20          1           0        1.988478   -0.562055    2.722502
     21          1           0        2.976611    1.310474    1.407848
     22          1           0        3.577716   -0.275639    0.908854
     23          1           0        3.179611    1.099794   -1.068190
     24          1           0        2.078950   -0.274641   -1.080792
     25          1           0       -3.900943   -0.113978    1.075068
     26          1           0       -3.160953    2.225316    1.623179
     27          1           0       -0.934162    2.986603    0.775526
     28          1           0       -0.383171   -2.875007   -2.014306
 ---------------------------------------------------------------------

 SCF Done:  E(UB3LYP) =  -1067.78182469     A.U. after   31 cycles

 The electronic state is 2-A.
 Alpha  occ. eigenvalues --  -88.70289 -19.00558 -19.00378 -18.93235 -14.14120
 Alpha  occ. eigenvalues --  -10.11617 -10.09842 -10.08925 -10.06152 -10.05891
 Alpha  occ. eigenvalues --  -10.05356 -10.05039 -10.03642 -10.03302 -10.01319
 Alpha  occ. eigenvalues --   -7.78861  -5.75264  -5.74879  -5.74250  -0.94360
 Alpha  occ. eigenvalues --   -0.91834  -0.84818  -0.78448  -0.68944  -0.65809
 Alpha  occ. eigenvalues --   -0.62844  -0.60052  -0.55931  -0.52844  -0.50223
 Alpha  occ. eigenvalues --   -0.46966  -0.45618  -0.42853  -0.37844  -0.37202
 Alpha  occ. eigenvalues --   -0.36850  -0.34657  -0.33963  -0.32180  -0.31799
 Alpha  occ. eigenvalues --   -0.31102  -0.30259  -0.28945  -0.27980  -0.25863
 Alpha  occ. eigenvalues --   -0.25766  -0.25007  -0.24380  -0.23864  -0.22835
 Alpha  occ. eigenvalues --   -0.21249  -0.20322  -0.18697  -0.16528  -0.14781
 Alpha  occ. eigenvalues --   -0.14316  -0.12954  -0.11932  -0.09718  -0.07536
 Alpha  occ. eigenvalues --    0.04951
 Alpha virt. eigenvalues --    0.08075   0.09242   0.09545   0.10099   0.11018
 Alpha virt. eigenvalues --    0.11312   0.11685   0.11895   0.12844   0.13285
 Alpha virt. eigenvalues --    0.14334   0.15067   0.15147   0.15920   0.16532

  Beta  occ. eigenvalues --  -88.70284 -19.00536 -19.00316 -18.92911 -14.13848
  Beta  occ. eigenvalues --  -10.11380 -10.09840 -10.08924 -10.06108 -10.05886
  Beta  occ. eigenvalues --  -10.05245 -10.05115 -10.03300 -10.03274 -10.00938
  Beta  occ. eigenvalues --   -7.78855  -5.75261  -5.74880  -5.74230  -0.94056
  Beta  occ. eigenvalues --   -0.91799  -0.84344  -0.77892  -0.68828  -0.65490
  Beta  occ. eigenvalues --   -0.62358  -0.59790  -0.55800  -0.52527  -0.49721
  Beta  occ. eigenvalues --   -0.46868  -0.45409  -0.42561  -0.37802  -0.37125
  Beta  occ. eigenvalues --   -0.36651  -0.34591  -0.33647  -0.31966  -0.31571
  Beta  occ. eigenvalues --   -0.30938  -0.30091  -0.28128  -0.27487  -0.25723
  Beta  occ. eigenvalues --   -0.25587  -0.24903  -0.23909  -0.23257  -0.22638
  Beta  occ. eigenvalues --   -0.21039  -0.20247  -0.18383  -0.15302  -0.14430
  Beta  occ. eigenvalues --   -0.13641  -0.12178  -0.10721  -0.09065  -0.07002
  Beta virt. eigenvalues --    0.08017   0.09199   0.09511   0.10040   0.10983
  Beta virt. eigenvalues --    0.11206   0.11571   0.11664   0.12054   0.12849
  Beta virt. eigenvalues --    0.13279   0.14291   0.15057   0.15152   0.15929

 Mulliken charges and spin densities:
               1          2
     1  C   -0.232922  -0.014066
     2  O   -0.003697   0.003363
     3  C   -0.307561  -0.021064
     4  C   -0.475330   0.038700
     5  C   -0.121436  -0.043965
     6  S   -0.458442   0.022206
     7  C    0.292165   0.074792
     8  C   -0.033714   0.209416
     9  N    0.080553   0.129071
    10  C   -0.013424  -0.040818
    11  C   -0.572184   0.295485
    12  C   -0.071148   0.012912
    13  C   -0.584612   0.179331
    14  O   -0.336853   0.104734
    15  O   -0.161530   0.016032
    16  H    0.141618   0.007304
    17  H    0.147120   0.008944
    18  H    0.087652   0.008392
    19  H    0.215534  -0.005780
    20  H    0.103803   0.010382
    21  H    0.097217   0.002640
    22  H    0.133142  -0.002838
    23  H    0.192290  -0.000968
    24  H    0.245081   0.028600
    25  H    0.137852   0.003729
    26  H    0.098564  -0.024398
    27  H    0.158162  -0.000964
    28  H    0.242101  -0.001171
 Sum of Mulliken charges =  -1.00000   1.00000

 Dipole moment (field-independent basis, Debye):
    X=              3.3038    Y=             -0.7196    Z=              4.0548  Tot=              5.2796
 Quadrupole moment (field-independent basis, Debye-Ang):
   XX=           -117.0814   YY=           -112.3412   ZZ=           -114.0620
   XY=             -1.1887   XZ=              1.7346   YZ=              1.2868

 Summary of Natural Population Analysis:

                                       Natural Population
                Natural  -----------------------------------------------
    Atom  No    Charge         Core      Valence    Rydberg      Total
 -----------------------------------------------------------------------
      C    1   -0.10063      0.99962     2.09246    0.00855     3.10063
      O    2   -0.29777      0.99988     3.28555    0.01234     4.29777
      C    3   -0.00999      0.99959     2.00013    0.01027     3.00999
      C    4   -0.19961      0.99961     2.19226    0.00773     3.19961
      C    5   -0.25018      0.99957     2.23916    0.01146     3.25018
      S    6    0.10874      4.99954     2.87104    0.02068     7.89126
      C    7   -0.07752      0.99937     2.06589    0.01227     3.07752
      C    8    0.09858      0.99940     1.88444    0.01758     2.90142
      N    9   -0.18877      0.99969     2.67713    0.01195     3.68877
      C   10   -0.00377      0.99960     1.98955    0.01462     3.00377
      C   11   -0.06108      0.99956     2.05221    0.00931     3.06108
      C   12   -0.10274      0.99952     2.09296    0.01026     3.10274
      C   13    0.42322      0.99968     1.55096    0.02614     2.57678
      O   14   -0.30280      0.99987     3.29619    0.00674     4.30280
      O   15   -0.34221      0.99988     3.33491    0.00743     4.34221
      H   16    0.09769      0.00000     0.40135    0.00096     0.40231
      H   17    0.08882      0.00000     0.40986    0.00132     0.41118
      H   18    0.06579      0.00000     0.43289    0.00132     0.43421
      H   19    0.09001      0.00000     0.40721    0.00278     0.40999
      H   20    0.07071      0.00000     0.42774    0.00155     0.42929
      H   21    0.09542      0.00000     0.40336    0.00122     0.40458
      H   22    0.09203      0.00000     0.40644    0.00153     0.40797
      H   23    0.09700      0.00000     0.40196    0.00105     0.40300
      H   24    0.12373      0.00000     0.37362    0.00265     0.37627
      H   25    0.07770      0.00000     0.42088    0.00141     0.42230
      H   26    0.08724      0.00000     0.41149    0.00127     0.41276
      H   27    0.09523      0.00000     0.40356    0.00122     0.40477
      H   28    0.22517      0.00000     0.27038    0.00445     0.27483
 =======================================================================
   * Total *    0.00000     18.99437    40.79559    0.21004    60.00000

 Normal termination of Gaussian 16 at Thu Dec 10 16:47:03 2020.
