 Gaussian 16, Revision A.03,

 -----------------------------------------------------------
 # opt freq B3LYP/6-31G(d) empiricaldispersion=gd3bj scf=xqc
 -----------------------------------------------------------

 -------------------------------
 CID_116242365_JID_4790_neutraal
 -------------------------------
 Symbolic Z-matrix:
 Charge =  0 Multiplicity = 1

 SCF Done:  E(RB3LYP) =  -997.162876804     A.U. after   14 cycles
 SCF Done:  E(RB3LYP) =  -997.162337101     A.U. after   12 cycles
 SCF Done:  E(RB3LYP) =  -997.165752538     A.U. after   12 cycles
 SCF Done:  E(RB3LYP) =  -997.166284719     A.U. after   12 cycles
 SCF Done:  E(RB3LYP) =  -997.166984723     A.U. after   12 cycles
 SCF Done:  E(RB3LYP) =  -997.167340398     A.U. after   12 cycles
 SCF Done:  E(RB3LYP) =  -997.168103554     A.U. after   12 cycles
 SCF Done:  E(RB3LYP) =  -997.139358365     A.U. after   14 cycles
 SCF Done:  E(RB3LYP) =  -997.169334363     A.U. after   12 cycles
 SCF Done:  E(RB3LYP) =  -997.170175937     A.U. after   12 cycles
 SCF Done:  E(RB3LYP) =  -997.171150847     A.U. after    9 cycles
 SCF Done:  E(RB3LYP) =  -997.171151093     A.U. after    8 cycles
 SCF Done:  E(RB3LYP) =  -997.171151151     A.U. after    8 cycles
 SCF Done:  E(RB3LYP) =  -997.171151230     A.U. after    8 cycles
 SCF Done:  E(RB3LYP) =  -997.171151225     A.U. after    7 cycles
 Optimization completed.
    -- Stationary point found.
 Normal termination of Gaussian 16 at Thu Dec 10 10:56:11 2020.

 --------------------------------------------------------------------
 #N Geom=AllCheck Guess=TCheck SCRF=Check GenChk RB3LYP/6-31G(d) Freq
 --------------------------------------------------------------------

 Structure from the checkpoint file:  "JID_4790.chk"
 -------------------------------
 CID_116242365_JID_4790_neutraal
 -------------------------------
 Charge =  0 Multiplicity = 1

 SCF Done:  E(RB3LYP) =  -997.171151225     A.U. after    1 cycles

  Exact polarizability: 171.299   0.241 121.566   8.140   0.028 116.389
 Approx polarizability: 208.760  -3.936 186.194  21.165  -6.471 180.237

                      1                      2                      3
                      A                      A                      A
 Frequencies --     13.2484                28.2600                47.0461
 Red. masses --      4.4297                 3.8781                 4.0487
 Frc consts  --      0.0005                 0.0018                 0.0053
 IR Inten    --      0.0915                 0.5035                 0.4003

                      4                      5                      6
                      A                      A                      A
 Frequencies --     69.8088                72.4688                91.7448
 Red. masses --      5.6334                 3.3676                 3.3877
 Frc consts  --      0.0162                 0.0104                 0.0168
 IR Inten    --      2.1216                 0.5377                 2.3890

                      7                      8                      9
                      A                      A                      A
 Frequencies --     96.9480               123.3498               158.1250
 Red. masses --      3.8323                 2.6189                 3.2734
 Frc consts  --      0.0212                 0.0235                 0.0482
 IR Inten    --      1.0010                 5.6885                 0.8644

                     10                     11                     12
                      A                      A                      A
 Frequencies --    198.2501               215.8616               225.7465
 Red. masses --      2.3115                 1.9867                 2.7627
 Frc consts  --      0.0535                 0.0545                 0.0830
 IR Inten    --      0.8689                 2.0045                 3.9307

                     13                     14                     15
                      A                      A                      A
 Frequencies --    251.7979               267.6915               287.9801
 Red. masses --      1.9600                 1.8118                 2.1588
 Frc consts  --      0.0732                 0.0765                 0.1055
 IR Inten    --      7.2495                 0.4245                 4.6612

                     16                     17                     18
                      A                      A                      A
 Frequencies --    301.5373               312.9044               357.8866
 Red. masses --      1.6933                 1.3708                 2.0287
 Frc consts  --      0.0907                 0.0791                 0.1531
 IR Inten    --     10.7123                52.9985                42.3789

                     19                     20                     21
                      A                      A                      A
 Frequencies --    374.3160               394.4046               441.9372
 Red. masses --      1.9570                 4.0683                 2.4202
 Frc consts  --      0.1616                 0.3729                 0.2785
 IR Inten    --      1.5600                17.3297                 3.2195

                     22                     23                     24
                      A                      A                      A
 Frequencies --    467.4373               478.4364               552.2935
 Red. masses --      2.1689                 2.5402                 2.5008
 Frc consts  --      0.2792                 0.3426                 0.4494
 IR Inten    --      1.1451                 7.2403                31.6848

                     25                     26                     27
                      A                      A                      A
 Frequencies --    569.7572               639.9279               643.8317
 Red. masses --      2.1556                 1.9566                 3.7577
 Frc consts  --      0.4123                 0.4721                 0.9177
 IR Inten    --      3.7430                54.3623                10.3744

                     28                     29                     30
                      A                      A                      A
 Frequencies --    674.3530               760.8130               776.1326
 Red. masses --      3.4426                 1.3321                 1.7475
 Frc consts  --      0.9224                 0.4543                 0.6202
 IR Inten    --     49.7063                12.6433                 1.0488

                     31                     32                     33
                      A                      A                      A
 Frequencies --    786.7602               801.0556               809.8292
 Red. masses --      4.8806                 1.6563                 1.9410
 Frc consts  --      1.7799                 0.6262                 0.7500
 IR Inten    --      8.2085                 7.2079                 4.9649

                     34                     35                     36
                      A                      A                      A
 Frequencies --    841.3575               890.6627               909.2048
 Red. masses --      4.0186                 1.5802                 1.5739
 Frc consts  --      1.6760                 0.7386                 0.7666
 IR Inten    --      3.2378                 1.2328                 0.6195

                     37                     38                     39
                      A                      A                      A
 Frequencies --    953.5345               970.5432               986.2727
 Red. masses --      1.9961                 1.9214                 1.7859
 Frc consts  --      1.0693                 1.0664                 1.0235
 IR Inten    --      9.1053                 7.4080                 5.8343

                     40                     41                     42
                      A                      A                      A
 Frequencies --    991.4314              1006.4540              1076.3693
 Red. masses --      1.6634                 2.2613                 1.7646
 Frc consts  --      0.9633                 1.3496                 1.2045
 IR Inten    --      0.8854                47.9613                40.5471

                     43                     44                     45
                      A                      A                      A
 Frequencies --   1081.9765              1108.0501              1118.0369
 Red. masses --      1.9041                 1.3931                 1.8887
 Frc consts  --      1.3133                 1.0077                 1.3910
 IR Inten    --      1.3529                 8.1197                49.9439

                     46                     47                     48
                      A                      A                      A
 Frequencies --   1133.3009              1136.9105              1174.1138
 Red. masses --      1.7947                 2.6720                 1.4716
 Frc consts  --      1.3581                 2.0348                 1.1952
 IR Inten    --      0.8721                 7.9614                69.7202

                     49                     50                     51
                      A                      A                      A
 Frequencies --   1187.2841              1233.0363              1254.7100
 Red. masses --      1.8342                 1.2187                 1.3961
 Frc consts  --      1.5233                 1.0917                 1.2950
 IR Inten    --     10.0332                 1.3750                 6.6515

                     52                     53                     54
                      A                      A                      A
 Frequencies --   1267.9203              1274.8418              1284.5577
 Red. masses --      1.2967                 1.2869                 1.3364
 Frc consts  --      1.2282                 1.2323                 1.2992
 IR Inten    --      0.6969                 0.2909                29.7748

                     55                     56                     57
                      A                      A                      A
 Frequencies --   1323.2306              1327.9769              1348.4507
 Red. masses --      1.1647                 1.1976                 1.1812
 Frc consts  --      1.2016                 1.2444                 1.2655
 IR Inten    --     16.0485                 2.6243                 3.3527

                     58                     59                     60
                      A                      A                      A
 Frequencies --   1371.6583              1392.2361              1399.2651
 Red. masses --      1.4127                 1.6324                 1.3722
 Frc consts  --      1.5660                 1.8642                 1.5829
 IR Inten    --     76.1789                41.2994                 2.5309

                     61                     62                     63
                      A                      A                      A
 Frequencies --   1408.0748              1414.4171              1430.0032
 Red. masses --      1.4623                 1.5087                 1.4291
 Frc consts  --      1.7082                 1.7783                 1.7218
 IR Inten    --      9.7275                51.8564                32.5485

                     64                     65                     66
                      A                      A                      A
 Frequencies --   1441.6766              1447.5987              1455.1206
 Red. masses --      1.2733                 1.2668                 1.2399
 Frc consts  --      1.5592                 1.5640                 1.5468
 IR Inten    --     31.9050                 7.7134                 6.9890

                     67                     68                     69
                      A                      A                      A
 Frequencies --   1489.0651              1500.7586              1505.3621
 Red. masses --      1.2040                 1.0928                 1.7382
 Frc consts  --      1.5729                 1.4501                 2.3208
 IR Inten    --      0.8397                 8.1099                76.9580

                     70                     71                     72
                      A                      A                      A
 Frequencies --   1511.2228              1511.6837              1522.7324
 Red. masses --      1.0924                 1.0789                 1.0935
 Frc consts  --      1.4699                 1.4527                 1.4938
 IR Inten    --      3.1177                 4.1519                17.4411

                     73                     74                     75
                      A                      A                      A
 Frequencies --   1529.6668              1533.1396              1539.6461
 Red. masses --      1.0747                 1.0676                 1.0482
 Frc consts  --      1.4816                 1.4785                 1.4639
 IR Inten    --     10.9356                 1.4402                 4.3727

                     76                     77                     78
                      A                      A                      A
 Frequencies --   1541.4412              1556.9185              1758.1172
 Red. masses --      1.0442                 1.0536                 7.1219
 Frc consts  --      1.4618                 1.5047                12.9701
 IR Inten    --      8.1456                 1.2478               399.2577

                     79                     80                     81
                      A                      A                      A
 Frequencies --   3020.1290              3038.8250              3040.5163
 Red. masses --      1.0661                 1.0619                 1.0401
 Frc consts  --      5.7291                 5.7775                 5.6651
 IR Inten    --     29.8177                21.8452                11.8288

                     82                     83                     84
                      A                      A                      A
 Frequencies --   3042.8852              3059.0400              3060.3869
 Red. masses --      1.0392                 1.0616                 1.0670
 Frc consts  --      5.6690                 5.8528                 5.8881
 IR Inten    --     32.6546                50.2183                18.0931

                     85                     86                     87
                      A                      A                      A
 Frequencies --   3068.8521              3073.0083              3082.4395
 Red. masses --      1.0980                 1.0961                 1.0655
 Frc consts  --      6.0928                 6.0984                 5.9650
 IR Inten    --     55.4779                32.6785                22.5167

                     88                     89                     90
                      A                      A                      A
 Frequencies --   3086.4422              3103.7644              3107.3718
 Red. masses --      1.1007                 1.1011                 1.0835
 Frc consts  --      6.1780                 6.2499                 6.1640
 IR Inten    --      1.7105                42.8649                 4.7475

                     91                     92                     93
                      A                      A                      A
 Frequencies --   3107.8175              3111.9674              3122.3410
 Red. masses --      1.1012                 1.0665                 1.0983
 Frc consts  --      6.2664                 6.0852                 6.3087
 IR Inten    --     58.2703                12.1664                38.5234

                     94                     95                     96
                      A                      A                      A
 Frequencies --   3128.6553              3130.3504              3143.2296
 Red. masses --      1.1017                 1.0951                 1.1022
 Frc consts  --      6.3536                 6.3225                 6.4158
 IR Inten    --     15.3001                16.3731                 1.1341

                     97                     98                     99
                      A                      A                      A
 Frequencies --   3172.3410              3587.9663              3729.8244
 Red. masses --      1.1058                 1.0756                 1.0655
 Frc consts  --      6.5570                 8.1580                 8.7337
 IR Inten    --      3.0639                19.3896                 6.8617

 - Thermochemistry -
 -------------------
 Temperature   298.150 Kelvin.  Pressure   1.00000 Atm.
 Atom     1 has atomic number  6 and mass  12.00000

 Molecular mass:   219.12930 amu.
 Principal axes and moments of inertia in atomic units:
                           1         2         3
     Eigenvalues --  1580.646186559.693107040.23899
           X            0.99997   0.00380  -0.00651
           Y           -0.00357   0.99940   0.03446
           Z            0.00664  -0.03443   0.99938
 This molecule is an asymmetric top.
 Rotational symmetry number  1.
 Warning -- assumption of classical behavior for rotation
           may cause significant error
 Rotational temperatures (Kelvin)      0.05480     0.01320     0.01230
 Rotational constants (GHZ):           1.14177     0.27513     0.25635
 Zero-point vibrational energy     816153.0 (Joules/Mol)
                                  195.06525 (Kcal/Mol)
 Warning -- explicit consideration of  25 degrees of freedom as
           vibrations may cause significant error
 Vibrational temperatures:     19.06    40.66    67.69   100.44   104.27
          (Kelvin)            132.00   139.49   177.47   227.51   285.24
                              310.58   324.80   362.28   385.15   414.34
                              433.84   450.20   514.92   538.56   567.46
                              635.85   672.54   688.36   794.63   819.75
                              920.71   926.33   970.24  1094.64  1116.68
                             1131.97  1152.54  1165.16  1210.53  1281.46
                             1308.14  1371.92  1396.40  1419.03  1426.45
                             1448.06  1548.66  1556.72  1594.24  1608.61
                             1630.57  1635.76  1689.29  1708.24  1774.06
                             1805.25  1824.25  1834.21  1848.19  1903.83
                             1910.66  1940.12  1973.51  2003.12  2013.23
                             2025.91  2035.03  2057.46  2074.25  2082.77
                             2093.59  2142.43  2159.26  2165.88  2174.31
                             2174.98  2190.87  2200.85  2205.85  2215.21
                             2217.79  2240.06  2529.54  4345.29  4372.19
                             4374.62  4378.03  4401.28  4403.21  4415.39
                             4421.37  4434.94  4440.70  4465.62  4470.81
                             4471.46  4477.43  4492.35  4501.44  4503.88
                             4522.41  4564.29  5162.28  5366.39

 Zero-point correction=                           0.310856 (Hartree/Particle)
 Thermal correction to Energy=                    0.328249
 Thermal correction to Enthalpy=                  0.329193
 Thermal correction to Gibbs Free Energy=         0.263486
 Sum of electronic and zero-point Energies=           -996.860295
 Sum of electronic and thermal Energies=              -996.842903
 Sum of electronic and thermal Enthalpies=            -996.841958
 Sum of electronic and thermal Free Energies=         -996.907665

                     E (Thermal)             CV                S
                      KCal/Mol        Cal/Mol-Kelvin    Cal/Mol-Kelvin
 Total                  205.979             63.055            138.291
 Electronic               0.000              0.000              0.000
 Translational            0.889              2.981             42.056
 Rotational               0.889              2.981             32.657
 Vibrational            204.202             57.094             63.578
 Vibration     1          0.593              1.987              7.452
 Vibration     2          0.593              1.984              5.948
 Vibration     3          0.595              1.979              4.938
 Vibration     4          0.598              1.969              4.159
 Vibration     5          0.599              1.967              4.085
 Vibration     6          0.602              1.955              3.623
 Vibration     7          0.603              1.951              3.515
 Vibration     8          0.610              1.930              3.047
 Vibration     9          0.621              1.894              2.572
 Vibration    10          0.637              1.842              2.149
 Vibration    11          0.645              1.817              1.994
 Vibration    12          0.650              1.802              1.913
 Vibration    13          0.664              1.760              1.718
 Vibration    14          0.673              1.732              1.611
 Vibration    15          0.685              1.696              1.486
 Vibration    16          0.694              1.671              1.408
 Vibration    17          0.701              1.649              1.347
 Vibration    18          0.733              1.559              1.131
 Vibration    19          0.745              1.525              1.062
 Vibration    20          0.761              1.482              0.983
 Vibration    21          0.802              1.379              0.821
 Vibration    22          0.825              1.322              0.745
 Vibration    23          0.835              1.298              0.714
 Vibration    24          0.908              1.135              0.539
 Vibration    25          0.926              1.097              0.505

 Optimization completed.
    -- Stationary point found.
 Normal termination of Gaussian 16 at Thu Dec 10 11:06:34 2020.

 ----------------------------------------------------------------------
 # B3LYP/6-311++G(d,p) empiricaldispersion=gd3bj scf=xqc pop=npa geom=c
 heck
 ----------------------------------------------------------------------

 ---------------------------------------
 CID_116242365_JID_4790_Energie_neutraal
 ---------------------------------------
 Structure from the checkpoint file:  "JID_4790.chk"
 Charge =  0 Multiplicity = 1

 SCF Done:  E(RB3LYP) =  -997.385437682     A.U. after   14 cycles
 Normal termination of Gaussian 16 at Thu Dec 10 11:11:07 2020.

 ----------------------------------------------------------------------
 # B3LYP/6-311++G(d,p) empiricaldispersion=gd3bj scf=xqc pop=npa geom=c
 heck
 ----------------------------------------------------------------------

 -------------------------------------
 CID_116242365_JID_4790_Energie_kation
 -------------------------------------
 Structure from the checkpoint file:  "JID_4790.chk"
 Charge =  1 Multiplicity = 2

 SCF Done:  E(UB3LYP) =  -997.083004079     A.U. after   23 cycles
 Normal termination of Gaussian 16 at Thu Dec 10 11:21:19 2020.
 Gaussian 16:  ES64L-G16RevA.03 25-Dec-2016

 ----------------------------------------------------------------------
 # B3LYP/6-311++G(d,p) empiricaldispersion=gd3bj scf=xqc pop=npa geom=c
 heck
 ----------------------------------------------------------------------

 ------------------------------------
 CID_116242365_JID_4790_Energie_anion
 ------------------------------------
 Structure from the checkpoint file:  "JID_4790.chk"
 Charge = -1 Multiplicity = 2

                         Standard orientation:
 ---------------------------------------------------------------------
 Center     Atomic      Atomic             Coordinates (Angstroms)
 Number     Number       Type             X           Y           Z
 ---------------------------------------------------------------------
      1          6           0       -4.197282    1.256927    0.027954
      2          6           0       -4.202031   -0.248064    0.316873
      3          6           0       -3.604303   -1.101375   -0.808479
      4          6           0       -2.117992   -0.867476   -1.096997
      5         16           0       -0.984831   -1.359594    0.273247
      6          6           0       -0.737965    0.226166    1.180153
      7          6           0       -0.081876    1.278384    0.305670
      8          8           0       -0.759022    1.989203   -0.437071
      9          7           0        1.276623    1.416145    0.351076
     10          6           0        2.270591    0.595653    1.025759
     11          6           0        2.710493   -0.662752    0.250420
     12          6           0        3.168891   -0.377552   -1.185455
     13          6           0        4.368405    0.569241   -1.305369
     14          8           0        3.697902   -1.348828    1.018269
     15          1           0       -3.184335    1.651508   -0.102351
     16          1           0       -4.671565    1.812459    0.845352
     17          1           0       -4.758489    1.476784   -0.889053
     18          1           0       -3.662160   -0.458785    1.249591
     19          1           0       -5.233787   -0.581387    0.488545
     20          1           0       -3.756312   -2.163390   -0.579024
     21          1           0       -4.152828   -0.900845   -1.741209
     22          1           0       -1.801827   -1.480724   -1.946738
     23          1           0       -1.899698    0.173911   -1.345371
     24          1           0       -1.697078    0.620676    1.515868
     25          1           0       -0.144289   -0.042764    2.056194
     26          1           0        1.613071    2.090956   -0.325618
     27          1           0        3.143595    1.232114    1.214242
     28          1           0        1.901451    0.286759    2.006628
     29          1           0        1.860830   -1.349169    0.202589
     30          1           0        3.416979   -1.340474   -1.646196
     31          1           0        2.317657    0.027841   -1.745805
     32          1           0        5.243947    0.187641   -0.764699
     33          1           0        4.667851    0.683859   -2.351797
     34          1           0        4.149740    1.571861   -0.918089
     35          1           0        4.495555   -0.796260    1.034713
 ---------------------------------------------------------------------

 SCF Done:  E(UB3LYP) =  -997.375261084     A.U. after   33 cycles
 SCF Done:  E(UB3LYP) =  -997.375261084     a.u. after    1 cycles

 The electronic state is 2-A.
 Alpha  occ. eigenvalues --  -88.75940 -19.02556 -19.00202 -14.24982 -10.19086
 Alpha  occ. eigenvalues --  -10.12388 -10.12304 -10.11475 -10.11030 -10.08826
 Alpha  occ. eigenvalues --  -10.08246 -10.07080 -10.06833 -10.06077  -7.84526
 Alpha  occ. eigenvalues --   -5.80938  -5.80556  -5.79875  -0.95321  -0.92871
 Alpha  occ. eigenvalues --   -0.83572  -0.73617  -0.69814  -0.68730  -0.64952
 Alpha  occ. eigenvalues --   -0.63286  -0.58790  -0.56607  -0.53824  -0.50162
 Alpha  occ. eigenvalues --   -0.48330  -0.47054  -0.41916  -0.41230  -0.40036
 Alpha  occ. eigenvalues --   -0.38778  -0.38506  -0.37281  -0.35022  -0.34366
 Alpha  occ. eigenvalues --   -0.33607  -0.32942  -0.32104  -0.31992  -0.30716
 Alpha  occ. eigenvalues --   -0.30032  -0.29596  -0.27892  -0.27632  -0.25892
 Alpha  occ. eigenvalues --   -0.25480  -0.24981  -0.24737  -0.24387  -0.23262
 Alpha  occ. eigenvalues --   -0.22400  -0.19795  -0.17734  -0.16050  -0.14222
 Alpha  occ. eigenvalues --    0.04134
 Alpha virt. eigenvalues --    0.05350   0.06629   0.07317   0.07652   0.07888
 Alpha virt. eigenvalues --    0.08096   0.08423   0.09390   0.09948   0.10552
 Alpha virt. eigenvalues --    0.10806   0.11125   0.11248   0.11602   0.12161

  Beta  occ. eigenvalues --  -88.75938 -19.02520 -19.00200 -14.24964 -10.19086
  Beta  occ. eigenvalues --  -10.12384 -10.12285 -10.11435 -10.11027 -10.08818
  Beta  occ. eigenvalues --  -10.08234 -10.07070 -10.06823 -10.05999  -7.84525
  Beta  occ. eigenvalues --   -5.80935  -5.80554  -5.79874  -0.95314  -0.92796
  Beta  occ. eigenvalues --   -0.83540  -0.73602  -0.69791  -0.68681  -0.64929
  Beta  occ. eigenvalues --   -0.63216  -0.58765  -0.56511  -0.53797  -0.50095
  Beta  occ. eigenvalues --   -0.48274  -0.47008  -0.41870  -0.41188  -0.39982
  Beta  occ. eigenvalues --   -0.38754  -0.38482  -0.37245  -0.34986  -0.34333
  Beta  occ. eigenvalues --   -0.33583  -0.32916  -0.32062  -0.31966  -0.30700
  Beta  occ. eigenvalues --   -0.29993  -0.29548  -0.27845  -0.27610  -0.25823
  Beta  occ. eigenvalues --   -0.25455  -0.24960  -0.24691  -0.24368  -0.23232
  Beta  occ. eigenvalues --   -0.22379  -0.19764  -0.17723  -0.16027  -0.14213
  Beta virt. eigenvalues --    0.05687   0.06729   0.06991   0.07352   0.08045
  Beta virt. eigenvalues --    0.08262   0.08684   0.09007   0.09675   0.10308
  Beta virt. eigenvalues --    0.10555   0.11035   0.11293   0.11476   0.11903

 Mulliken charges and spin densities:
               1          2
     1  C   -0.076810  -0.536171
     2  C   -0.216288   0.080525
     3  C   -0.049943  -0.266881
     4  C   -0.365242  -0.044824
     5  S    0.261929  -0.095089
     6  C    0.313338  -0.392185
     7  C   -0.497088   0.072828
     8  O   -0.306103   0.006677
     9  N   -0.282934   0.185566
    10  C    1.458389  -2.048168
    11  C   -0.503207   0.627984
    12  C   -1.529747   1.142524
    13  C    2.312538  -2.815481
    14  O   -0.176178  -0.010397
    15  H    0.162269   0.032887
    16  H   -0.027360   0.152255
    17  H    0.053730   0.063636
    18  H    0.062180   0.052918
    19  H   -0.173164   0.338294
    20  H    0.041918   0.079792
    21  H   -0.002815   0.133561
    22  H    0.110832   0.127053
    23  H    0.176456   0.008272
    24  H    0.014498   0.204650
    25  H    0.076211   0.153223
    26  H    0.000727   0.317186
    27  H   -0.638473   0.866614
    28  H   -0.007757   0.172573
    29  H   -0.015623   0.209314
    30  H   -0.128764   0.303966
    31  H    0.233221  -0.074722
    32  H   -0.415735   0.545938
    33  H   -0.445702   0.598156
    34  H   -0.451844   0.591908
    35  H    0.032540   0.215617
 Sum of Mulliken charges =  -1.00000   1.00000

 Dipole moment (field-independent basis, Debye):
    X=             -7.9714    Y=             -2.7582    Z=             -0.0153  Tot=              8.4352
 Quadrupole moment (field-independent basis, Debye-Ang):
   XX=           -209.9831   YY=           -137.9221   ZZ=           -128.5922
   XY=             -5.7578   XZ=              2.8439   YZ=              4.1839

 Summary of Natural Population Analysis:

                                       Natural Population
                Natural  -----------------------------------------------
    Atom  No    Charge         Core      Valence    Rydberg      Total
 -----------------------------------------------------------------------
      C    1   -0.29600      0.99966     2.29156    0.00477     3.29600
      C    2   -0.19466      0.99964     2.18647    0.00855     3.19466
      C    3   -0.19500      0.99961     2.18500    0.01038     3.19500
      C    4   -0.25541      0.99958     2.24679    0.00904     3.25541
      S    5    0.09037      4.99964     2.89338    0.01662     7.90963
      C    6   -0.29031      0.99954     2.28095    0.00982     3.29031
      C    7    0.33268      0.99964     1.64386    0.02381     2.66732
      O    8   -0.33118      0.99988     3.32567    0.00564     4.33118
      N    9   -0.31176      0.99966     2.80117    0.01093     3.81176
      C   10   -0.10264      0.99959     2.08939    0.01366     3.10264
      C   11    0.05402      0.99955     1.93251    0.01392     2.94598
      C   12   -0.20447      0.99962     2.19607    0.00878     3.20447
      C   13   -0.29291      0.99967     2.28698    0.00626     3.29291
      O   14   -0.37103      0.99990     3.36485    0.00628     4.37103
      H   15    0.11182      0.00000     0.38683    0.00135     0.38818
      H   16    0.09682      0.00000     0.40220    0.00098     0.40318
      H   17    0.09347      0.00000     0.40550    0.00103     0.40653
      H   18    0.09556      0.00000     0.40308    0.00136     0.40444
      H   19    0.09530      0.00000     0.40348    0.00122     0.40470
      H   20    0.09763      0.00000     0.40106    0.00131     0.40237
      H   21    0.09580      0.00000     0.40308    0.00112     0.40420
      H   22    0.10476      0.00000     0.39440    0.00084     0.39524
      H   23    0.11955      0.00000     0.37877    0.00168     0.38045
      H   24    0.11429      0.00000     0.38422    0.00149     0.38571
      H   25    0.11372      0.00000     0.38505    0.00123     0.38628
      H   26    0.19834      0.00000     0.29912    0.00254     0.30166
      H   27    0.10521      0.00000     0.39207    0.00272     0.39479
      H   28    0.10049      0.00000     0.39808    0.00143     0.39951
      H   29    0.09419      0.00000     0.40356    0.00225     0.40581
      H   30    0.10063      0.00000     0.39822    0.00115     0.39937
      H   31    0.10005      0.00000     0.39855    0.00139     0.39995
      H   32    0.09747      0.00000     0.39984    0.00270     0.40253
      H   33    0.10438      0.00000     0.39419    0.00143     0.39562
      H   34    0.09783      0.00000     0.39949    0.00268     0.40217
      H   35    0.23100      0.00000     0.26505    0.00396     0.26900
 =======================================================================
   * Total *   -0.00000     17.99517    41.82049    0.18434    60.00000

 Normal termination of Gaussian 16 at Thu Dec 10 11:34:04 2020.
