 Gaussian 16, Revision A.03,

 -----------------------------------------------------------
 # opt freq B3LYP/6-31G(d) empiricaldispersion=gd3bj scf=xqc
 -----------------------------------------------------------

 ------------------------------
 CID_64198690_JID_3824_neutraal
 ------------------------------
 Symbolic Z-matrix:
 Charge =  0 Multiplicity = 1

 SCF Done:  E(RB3LYP) =  -1030.77428604     A.U. after   14 cycles
 SCF Done:  E(RB3LYP) =  -1030.75775036     A.U. after   15 cycles
 SCF Done:  E(RB3LYP) =  -1030.77604582     A.U. after   12 cycles
 SCF Done:  E(RB3LYP) =  -1030.74090640     A.U. after   13 cycles
 SCF Done:  E(RB3LYP) =  -1030.77730815     A.U. after   12 cycles
 SCF Done:  E(RB3LYP) =  -1030.77891661     A.U. after   12 cycles
 SCF Done:  E(RB3LYP) =  -1030.77965933     A.U. after   12 cycles
 SCF Done:  E(RB3LYP) =  -1030.78037562     A.U. after   11 cycles
 SCF Done:  E(RB3LYP) =  -1030.78063045     A.U. after   11 cycles
 SCF Done:  E(RB3LYP) =  -1030.78066635     A.U. after   10 cycles
 SCF Done:  E(RB3LYP) =  -1030.78070307     A.U. after   10 cycles
 SCF Done:  E(RB3LYP) =  -1030.78070807     A.U. after   10 cycles
 SCF Done:  E(RB3LYP) =  -1030.78071209     A.U. after    9 cycles
 SCF Done:  E(RB3LYP) =  -1030.78071293     A.U. after    8 cycles
 SCF Done:  E(RB3LYP) =  -1030.78071346     A.U. after    8 cycles
 SCF Done:  E(RB3LYP) =  -1030.78071359     A.U. after    7 cycles
 Optimization completed.
    -- Stationary point found.
 Normal termination of Gaussian 16 at Sun Dec 13 16:01:29 2020.

 --------------------------------------------------------------------
 #N Geom=AllCheck Guess=TCheck SCRF=Check GenChk RB3LYP/6-31G(d) Freq
 --------------------------------------------------------------------

 Structure from the checkpoint file:  "JID_3824.chk"
 ------------------------------
 CID_64198690_JID_3824_neutraal
 ------------------------------
 Charge =  0 Multiplicity = 1

 SCF Done:  E(RB3LYP) =  -1030.78071359     A.U. after    1 cycles

  Exact polarizability: 118.743  -0.105 107.687  -1.622   1.286 100.504
 Approx polarizability: 157.676   3.556 147.417   3.219   0.292 156.280

                      1                      2                      3
                      A                      A                      A
 Frequencies --     53.4255                64.3966                78.8010
 Red. masses --      4.2157                 4.6546                 3.8279
 Frc consts  --      0.0071                 0.0114                 0.0140
 IR Inten    --      0.7721                 3.0545                 0.8143

                      4                      5                      6
                      A                      A                      A
 Frequencies --    104.5160               116.9700               131.6686
 Red. masses --      4.0753                 2.3471                 3.0053
 Frc consts  --      0.0262                 0.0189                 0.0307
 IR Inten    --      0.5205                 5.1686                 5.9671

                      7                      8                      9
                      A                      A                      A
 Frequencies --    144.4798               176.9855               197.9878
 Red. masses --      3.4510                 2.9425                 2.8430
 Frc consts  --      0.0424                 0.0543                 0.0657
 IR Inten    --      6.9957                 0.1818                 7.1095

                     10                     11                     12
                      A                      A                      A
 Frequencies --    216.4547               249.3198               272.1129
 Red. masses --      2.9241                 2.0209                 3.4527
 Frc consts  --      0.0807                 0.0740                 0.1506
 IR Inten    --      0.9200                 8.2674                 4.9832

                     13                     14                     15
                      A                      A                      A
 Frequencies --    311.9835               326.8569               354.6860
 Red. masses --      2.6892                 2.4758                 2.3972
 Frc consts  --      0.1542                 0.1558                 0.1777
 IR Inten    --      4.9600                 2.4418                 3.8584

                     16                     17                     18
                      A                      A                      A
 Frequencies --    368.5047               395.8858               428.5010
 Red. masses --      3.0627                 1.2644                 4.3018
 Frc consts  --      0.2450                 0.1168                 0.4654
 IR Inten    --     18.9962                54.3740                 8.5483

                     19                     20                     21
                      A                      A                      A
 Frequencies --    445.7346               457.7024               480.9801
 Red. masses --      2.2298                 2.7486                 4.8662
 Frc consts  --      0.2610                 0.3393                 0.6633
 IR Inten    --      2.9135                12.2777                31.3657

                     22                     23                     24
                      A                      A                      A
 Frequencies --    541.2771               575.4445               676.3011
 Red. masses --      3.1636                 2.6019                 4.7148
 Frc consts  --      0.5461                 0.5076                 1.2706
 IR Inten    --     30.0034                 5.8521                18.3816

                     25                     26                     27
                      A                      A                      A
 Frequencies --    728.2777               778.9865               792.1485
 Red. masses --      2.5615                 1.6768                 1.9608
 Frc consts  --      0.8005                 0.5995                 0.7249
 IR Inten    --    102.8180                 2.7716                52.4946

                     28                     29                     30
                      A                      A                      A
 Frequencies --    847.8461               872.6371               912.3124
 Red. masses --      2.4307                 2.5085                 2.2017
 Frc consts  --      1.0295                 1.1255                 1.0797
 IR Inten    --      8.7787                 5.2460                25.2174

                     31                     32                     33
                      A                      A                      A
 Frequencies --    937.2473               952.4256               994.9101
 Red. masses --      1.5170                 2.3446                 1.9962
 Frc consts  --      0.7851                 1.2531                 1.1642
 IR Inten    --     62.7126                24.5432                29.7102

                     34                     35                     36
                      A                      A                      A
 Frequencies --   1049.7819              1061.9211              1092.9400
 Red. masses --      1.8678                 1.8797                 2.1173
 Frc consts  --      1.2128                 1.2489                 1.4901
 IR Inten    --     32.1037                11.1086                26.4814

                     37                     38                     39
                      A                      A                      A
 Frequencies --   1110.5465              1113.5307              1128.6018
 Red. masses --      4.8125                 2.7301                 2.2407
 Frc consts  --      3.4970                 1.9945                 1.6816
 IR Inten    --    107.2761                34.2065                10.1181

                     40                     41                     42
                      A                      A                      A
 Frequencies --   1141.4279              1154.7716              1168.0853
 Red. masses --      1.6430                 4.3407                 2.1828
 Frc consts  --      1.2612                 3.4104                 1.7548
 IR Inten    --     43.0728               130.3289                53.5737

                     43                     44                     45
                      A                      A                      A
 Frequencies --   1191.5901              1194.8862              1232.1355
 Red. masses --      1.2892                 1.3149                 1.4766
 Frc consts  --      1.0785                 1.1061                 1.3208
 IR Inten    --     38.0908                24.4199                38.8811

                     46                     47                     48
                      A                      A                      A
 Frequencies --   1257.3237              1270.7642              1304.1770
 Red. masses --      1.5137                 1.2007                 1.3857
 Frc consts  --      1.4099                 1.1424                 1.3886
 IR Inten    --     34.8981                 6.4519                 6.6608

                     49                     50                     51
                      A                      A                      A
 Frequencies --   1323.0458              1341.2989              1352.3054
 Red. masses --      1.8958                 1.3812                 1.5311
 Frc consts  --      1.9552                 1.4641                 1.6496
 IR Inten    --     95.0301                51.2770                48.3976

                     52                     53                     54
                      A                      A                      A
 Frequencies --   1363.7923              1407.8404              1416.5046
 Red. masses --      1.1468                 1.3024                 1.4102
 Frc consts  --      1.2567                 1.5209                 1.6671
 IR Inten    --      2.9706                 8.3990                 5.4032

                     55                     56                     57
                      A                      A                      A
 Frequencies --   1424.7983              1440.1845              1464.7749
 Red. masses --      1.3450                 1.3100                 1.2696
 Frc consts  --      1.6087                 1.6009                 1.6050
 IR Inten    --     16.6150                31.3542                 4.7120

                     58                     59                     60
                      A                      A                      A
 Frequencies --   1491.0216              1495.0459              1496.4292
 Red. masses --      1.0798                 1.0961                 1.0949
 Frc consts  --      1.4144                 1.4435                 1.4446
 IR Inten    --      3.7859                15.2087                 2.5109

                     61                     62                     63
                      A                      A                      A
 Frequencies --   1507.5653              1508.6985              1530.0805
 Red. masses --      1.1463                 1.0549                 1.0544
 Frc consts  --      1.5349                 1.4147                 1.4544
 IR Inten    --      2.2694                 7.3118                 7.5333

                     64                     65                     66
                      A                      A                      A
 Frequencies --   1531.9732              1548.1642              1562.0728
 Red. masses --      1.0787                 1.0888                 1.0822
 Frc consts  --      1.4916                 1.5375                 1.5559
 IR Inten    --      1.0046                 0.6979                 2.9169

                     67                     68                     69
                      A                      A                      A
 Frequencies --   1637.0594              3006.8368              3020.5322
 Red. masses --      1.0912                 1.0549                 1.0389
 Frc consts  --      1.7229                 5.6190                 5.5848
 IR Inten    --     32.3575                29.5483                78.2673

                     70                     71                     72
                      A                      A                      A
 Frequencies --   3037.4782              3050.4918              3057.7946
 Red. masses --      1.0879                 1.0768                 1.0649
 Frc consts  --      5.9140                 5.9037                 5.8667
 IR Inten    --     10.0641                55.3966                17.3239

                     73                     74                     75
                      A                      A                      A
 Frequencies --   3065.5323              3070.2861              3075.9327
 Red. masses --      1.0640                 1.0643                 1.1063
 Frc consts  --      5.8914                 5.9112                 6.1668
 IR Inten    --     62.5870                30.0533                44.0493

                     76                     77                     78
                      A                      A                      A
 Frequencies --   3089.2042              3099.2426              3108.2226
 Red. masses --      1.1030                 1.0646                 1.0990
 Frc consts  --      6.2020                 6.0246                 6.2555
 IR Inten    --     28.7332                 1.9821                10.5645

                     79                     80                     81
                      A                      A                      A
 Frequencies --   3125.4046              3144.4762              3163.8782
 Red. masses --      1.1018                 1.0967                 1.0991
 Frc consts  --      6.3413                 6.3891                 6.4820
 IR Inten    --     12.1637                13.4610                14.3847

                     82                     83                     84
                      A                      A                      A
 Frequencies --   3164.8034              3389.0114              3572.5267
 Red. masses --      1.1035                 1.0575                 1.0889
 Frc consts  --      6.5123                 7.1562                 8.1881
 IR Inten    --      2.2814               299.1902                89.9187

 - Thermochemistry -
 -------------------
 Temperature   298.150 Kelvin.  Pressure   1.00000 Atm.
 Atom     1 has atomic number  6 and mass  12.00000

 Molecular mass:   211.08783 amu.
 Principal axes and moments of inertia in atomic units:
                           1         2         3
     Eigenvalues --  1922.863463444.840024255.91483
           X            0.99922  -0.03955  -0.00183
           Y            0.03953   0.99915  -0.01128
           Z            0.00228   0.01120   0.99993
 This molecule is an asymmetric top.
 Rotational symmetry number  1.
 Warning -- assumption of classical behavior for rotation
           may cause significant error
 Rotational temperatures (Kelvin)      0.04504     0.02514     0.02035
 Rotational constants (GHZ):           0.93857     0.52390     0.42405
 Zero-point vibrational energy     679147.3 (Joules/Mol)
                                  162.32010 (Kcal/Mol)
 Warning -- explicit consideration of  23 degrees of freedom as
           vibrations may cause significant error
 Vibrational temperatures:     76.87    92.65   113.38   150.38   168.29
          (Kelvin)            189.44   207.87   254.64   284.86   311.43
                              358.72   391.51   448.87   470.27   510.31
                              530.20   569.59   616.52   641.31   658.53
                              692.02   778.78   827.94   973.05  1047.83
                             1120.79  1139.72  1219.86  1255.53  1312.61
                             1348.49  1370.33  1431.45  1510.40  1527.87
                             1572.50  1597.83  1602.12  1623.81  1642.26
                             1661.46  1680.61  1714.43  1719.17  1772.77
                             1809.01  1828.35  1876.42  1903.57  1929.83
                             1945.67  1962.19  2025.57  2038.03  2049.97
                             2072.10  2107.48  2145.25  2151.04  2153.03
                             2169.05  2170.68  2201.44  2204.17  2227.46
                             2247.47  2355.36  4326.17  4345.87  4370.25
                             4388.98  4399.48  4410.62  4417.46  4425.58
                             4444.68  4459.12  4472.04  4496.76  4524.20
                             4552.11  4553.45  4876.03  5140.07

 Zero-point correction=                           0.258674 (Hartree/Particle)
 Thermal correction to Energy=                    0.273643
 Thermal correction to Enthalpy=                  0.274587
 Thermal correction to Gibbs Free Energy=         0.216863
 Sum of electronic and zero-point Energies=          -1030.522040
 Sum of electronic and thermal Energies=             -1030.507071
 Sum of electronic and thermal Enthalpies=           -1030.506127
 Sum of electronic and thermal Free Energies=        -1030.563850

                     E (Thermal)             CV                S
                      KCal/Mol        Cal/Mol-Kelvin    Cal/Mol-Kelvin
 Total                  171.713             55.161            121.490
 Electronic               0.000              0.000              0.000
 Translational            0.889              2.981             41.945
 Rotational               0.889              2.981             31.711
 Vibrational            169.936             49.199             47.833
 Vibration     1          0.596              1.976              4.686
 Vibration     2          0.597              1.971              4.318
 Vibration     3          0.600              1.963              3.921
 Vibration     4          0.605              1.946              3.368
 Vibration     5          0.608              1.935              3.150
 Vibration     6          0.612              1.922              2.922
 Vibration     7          0.616              1.909              2.744
 Vibration     8          0.628              1.871              2.360
 Vibration     9          0.637              1.843              2.152
 Vibration    10          0.645              1.816              1.989
 Vibration    11          0.662              1.764              1.735
 Vibration    12          0.675              1.725              1.583
 Vibration    13          0.700              1.651              1.352
 Vibration    14          0.711              1.622              1.276
 Vibration    15          0.731              1.566              1.145
 Vibration    16          0.741              1.537              1.086
 Vibration    17          0.763              1.479              0.978
 Vibration    18          0.790              1.408              0.864
 Vibration    19          0.805              1.370              0.809
 Vibration    20          0.816              1.344              0.773
 Vibration    21          0.837              1.292              0.707
 Vibration    22          0.896              1.159              0.563
 Vibration    23          0.932              1.084              0.494

                           ! Non-Optimized Parameters !
 Normal termination of Gaussian 16 at Sun Dec 13 16:10:00 2020.

 ----------------------------------------------------------------------
 # B3LYP/6-311++G(d,p) empiricaldispersion=gd3bj scf=xqc pop=npa geom=c
 heck
 ----------------------------------------------------------------------

 --------------------------------------
 CID_64198690_JID_3824_Energie_neutraal
 --------------------------------------
 Structure from the checkpoint file:  "JID_3824.chk"
 Charge =  0 Multiplicity = 1

 SCF Done:  E(RB3LYP) =  -1031.00545870     A.U. after   14 cycles
 Normal termination of Gaussian 16 at Sun Dec 13 16:13:16 2020.

 ----------------------------------------------------------------------
 # B3LYP/6-311++G(d,p) empiricaldispersion=gd3bj scf=xqc pop=npa geom=c
 heck
 ----------------------------------------------------------------------

 ------------------------------------
 CID_64198690_JID_3824_Energie_kation
 ------------------------------------
 Structure from the checkpoint file:  "JID_3824.chk"
 Charge =  1 Multiplicity = 2

 SCF Done:  E(UB3LYP) =  -1030.66762161     A.U. after   24 cycles
 Normal termination of Gaussian 16 at Sun Dec 13 16:20:39 2020.
 Gaussian 16:  ES64L-G16RevA.03 25-Dec-2016

 ----------------------------------------------------------------------
 # B3LYP/6-311++G(d,p) empiricaldispersion=gd3bj scf=xqc pop=npa geom=c
 heck
 ----------------------------------------------------------------------

 -----------------------------------
 CID_64198690_JID_3824_Energie_anion
 -----------------------------------
 Structure from the checkpoint file:  "JID_3824.chk"
 Charge = -1 Multiplicity = 2

                         Standard orientation:
 ---------------------------------------------------------------------
 Center     Atomic      Atomic             Coordinates (Angstroms)
 Number     Number       Type             X           Y           Z
 ---------------------------------------------------------------------
      1          6           0        1.448885   -2.435198    0.998315
      2          8           0        1.627984   -1.505555   -0.060923
      3          6           0        2.798101   -0.705094    0.093810
      4          6           0        2.856131    0.365244   -0.987492
      5          6           0        1.651174    1.313365   -1.059564
      6          8           0        1.412982    2.035418    0.143066
      7          6           0        0.585702    1.396764    1.112716
      8          6           0       -0.865936    1.878805    1.086134
      9          6           0       -1.724327    1.423071   -0.093784
     10         16           0       -2.014693   -0.382838   -0.163935
     11          8           0       -1.655975   -0.956536    1.143793
     12          8           0       -3.347687   -0.602703   -0.736037
     13          7           0       -0.927060   -0.899826   -1.347785
     14          1           0        0.494052   -2.935834    0.830188
     15          1           0        1.406937   -1.922221    1.968863
     16          1           0        2.263121   -3.173489    1.014401
     17          1           0        2.794379   -0.238828    1.089837
     18          1           0        3.688541   -1.349744    0.036071
     19          1           0        3.765126    0.953788   -0.811496
     20          1           0        2.966013   -0.115074   -1.968995
     21          1           0        1.856319    2.071141   -1.824037
     22          1           0        0.759721    0.766158   -1.378600
     23          1           0        0.616593    0.310139    1.010287
     24          1           0        1.010619    1.650632    2.090780
     25          1           0       -1.347356    1.546408    2.012244
     26          1           0       -0.868746    2.975457    1.089992
     27          1           0       -2.736111    1.831018   -0.013465
     28          1           0       -1.315809    1.708912   -1.064673
     29          1           0       -1.384588   -1.620068   -1.902903
     30          1           0       -0.041116   -1.220944   -0.941055
 ---------------------------------------------------------------------

 SCF Done:  E(UB3LYP) =  -1030.99290457     A.U. after   29 cycles

 The electronic state is 2-A.
 Alpha  occ. eigenvalues --  -88.96939 -19.04521 -19.02667 -19.02404 -19.02400
 Alpha  occ. eigenvalues --  -14.24098 -10.12322 -10.12086 -10.12018 -10.11811
 Alpha  occ. eigenvalues --  -10.11691 -10.09012 -10.07382  -8.03162  -5.99452
 Alpha  occ. eigenvalues --   -5.99404  -5.99221  -1.02470  -0.95337  -0.93625
 Alpha  occ. eigenvalues --   -0.91553  -0.81318  -0.72027  -0.69028  -0.63974
 Alpha  occ. eigenvalues --   -0.60433  -0.56960  -0.53814  -0.50542  -0.48586
 Alpha  occ. eigenvalues --   -0.44243  -0.43167  -0.41529  -0.40351  -0.39890
 Alpha  occ. eigenvalues --   -0.39125  -0.37672  -0.37329  -0.36476  -0.35009
 Alpha  occ. eigenvalues --   -0.34192  -0.32445  -0.31025  -0.29588  -0.28272
 Alpha  occ. eigenvalues --   -0.27856  -0.27705  -0.26536  -0.25182  -0.23947
 Alpha  occ. eigenvalues --   -0.23256  -0.22415  -0.21882  -0.20954  -0.19415
 Alpha  occ. eigenvalues --   -0.18084  -0.16250   0.04275
 Alpha virt. eigenvalues --    0.06387   0.06986   0.07262   0.08473   0.08913
 Alpha virt. eigenvalues --    0.09668   0.10043   0.10373   0.11657   0.11961
 Alpha virt. eigenvalues --    0.12199   0.12900   0.13489   0.13587   0.13977

  Beta  occ. eigenvalues --  -88.96937 -19.04510 -19.02663 -19.02395 -19.02393
  Beta  occ. eigenvalues --  -14.24075 -10.12293 -10.12073 -10.11996 -10.11777
  Beta  occ. eigenvalues --  -10.11677 -10.08995 -10.07358  -8.03159  -5.99449
  Beta  occ. eigenvalues --   -5.99401  -5.99219  -1.02451  -0.95322  -0.93616
  Beta  occ. eigenvalues --   -0.91533  -0.81275  -0.71994  -0.68984  -0.63934
  Beta  occ. eigenvalues --   -0.60383  -0.56899  -0.53762  -0.50492  -0.48532
  Beta  occ. eigenvalues --   -0.44212  -0.43143  -0.41498  -0.40303  -0.39851
  Beta  occ. eigenvalues --   -0.39090  -0.37638  -0.37299  -0.36450  -0.34983
  Beta  occ. eigenvalues --   -0.34151  -0.32413  -0.30996  -0.29555  -0.28231
  Beta  occ. eigenvalues --   -0.27824  -0.27663  -0.26515  -0.25144  -0.23889
  Beta  occ. eigenvalues --   -0.23237  -0.22394  -0.21866  -0.20931  -0.19391
  Beta  occ. eigenvalues --   -0.18058  -0.16233
  Beta virt. eigenvalues --    0.06459   0.07431   0.07668   0.07929   0.09226
  Beta virt. eigenvalues --    0.09522   0.10133   0.10382   0.10820   0.12101
  Beta virt. eigenvalues --    0.12402   0.12571   0.13197   0.13684   0.13877

 Mulliken charges and spin densities:
               1          2
     1  C    0.546729  -0.829926
     2  O   -0.196941   0.004427
     3  C   -0.029657  -0.189190
     4  C    1.556517  -1.918592
     5  C   -1.062723   0.641526
     6  O   -0.023628   0.012314
     7  C   -0.601283   0.328602
     8  C    0.192268  -0.494519
     9  C   -0.111722  -0.468852
    10  S    0.917199  -0.594291
    11  O   -0.226112   0.030977
    12  O   -0.240260   0.003591
    13  N   -0.688317   0.102121
    14  H   -0.043413   0.196353
    15  H   -0.189127   0.332256
    16  H   -0.538345   0.688624
    17  H    0.025348   0.126081
    18  H   -0.851531   1.037478
    19  H   -0.114345   0.291562
    20  H   -0.273435   0.437438
    21  H   -0.369037   0.541151
    22  H    0.325492  -0.116394
    23  H    0.979465  -0.917506
    24  H   -0.403676   0.590929
    25  H    0.081144   0.098361
    26  H   -0.219470   0.402475
    27  H   -0.118547   0.371666
    28  H    0.083442   0.169348
    29  H    0.037204   0.296638
    30  H    0.556763  -0.174651
 Sum of Mulliken charges =  -1.00000   1.00000

 Dipole moment (field-independent basis, Debye):
    X=             -3.8905    Y=              1.6762    Z=             -0.0768  Tot=              4.2370
 Quadrupole moment (field-independent basis, Debye-Ang):
   XX=           -163.1251   YY=           -136.8461   ZZ=           -123.8455
   XY=              6.2065   XZ=              1.5784   YZ=              1.6358

 Summary of Natural Population Analysis:

                                       Natural Population
                Natural  -----------------------------------------------
    Atom  No    Charge         Core      Valence    Rydberg      Total
 -----------------------------------------------------------------------
      C    1   -0.09758      0.99961     2.08866    0.00931     3.09758
      O    2   -0.31683      0.99988     3.30500    0.01195     4.31683
      C    3   -0.00956      0.99957     1.99700    0.01298     3.00956
      C    4   -0.21001      0.99962     2.20102    0.00938     3.21001
      C    5   -0.01451      0.99955     2.00174    0.01322     3.01451
      O    6   -0.30682      0.99989     3.29721    0.00973     4.30682
      C    7   -0.01784      0.99954     2.00505    0.01324     3.01784
      C    8   -0.21192      0.99961     2.20209    0.01022     3.21192
      C    9   -0.28552      0.99957     2.27458    0.01138     3.28552
      S   10    1.07964      4.99937     1.82199    0.09900     6.92036
      O   11   -0.46554      0.99991     3.46002    0.00562     4.46554
      O   12   -0.46946      0.99991     3.46422    0.00533     4.46946
      N   13   -0.53108      0.99977     3.02102    0.01029     4.03108
      H   14    0.09431      0.00000     0.40429    0.00140     0.40569
      H   15    0.08245      0.00000     0.41628    0.00128     0.41755
      H   16    0.08417      0.00000     0.41399    0.00184     0.41583
      H   17    0.08165      0.00000     0.41649    0.00186     0.41835
      H   18    0.09024      0.00000     0.40672    0.00304     0.40976
      H   19    0.10298      0.00000     0.39571    0.00130     0.39702
      H   20    0.10202      0.00000     0.39620    0.00179     0.39798
      H   21    0.08962      0.00000     0.40893    0.00145     0.41038
      H   22    0.08596      0.00000     0.41074    0.00329     0.41404
      H   23    0.09083      0.00000     0.40557    0.00361     0.40917
      H   24    0.09031      0.00000     0.40832    0.00136     0.40969
      H   25    0.10852      0.00000     0.39018    0.00130     0.39148
      H   26    0.10708      0.00000     0.39142    0.00150     0.39292
      H   27    0.11897      0.00000     0.37991    0.00112     0.38103
      H   28    0.11881      0.00000     0.37987    0.00133     0.38119
      H   29    0.19782      0.00000     0.30019    0.00200     0.30218
      H   30    0.21129      0.00000     0.28566    0.00305     0.28871
 =======================================================================
   * Total *   -0.00000     16.99579    39.75007    0.25414    57.00000

 Normal termination of Gaussian 16 at Sun Dec 13 16:29:24 2020.
