 Gaussian 16, Revision A.03,

 -----------------------------------------------------------
 # opt freq B3LYP/6-31G(d) empiricaldispersion=gd3bj scf=xqc
 -----------------------------------------------------------

 ------------------------------
 CID_13012867_JID_1705_neutraal
 ------------------------------
 Symbolic Z-matrix:
 Charge =  0 Multiplicity = 1

 SCF Done:  E(RB3LYP) =  -816.127879976     A.U. after   15 cycles
 SCF Done:  E(RB3LYP) =  -816.150284242     A.U. after   12 cycles
 SCF Done:  E(RB3LYP) =  -816.152867727     A.U. after   12 cycles
 SCF Done:  E(RB3LYP) =  -816.152927221     A.U. after    9 cycles
 SCF Done:  E(RB3LYP) =  -816.152931781     A.U. after    8 cycles
 Optimization completed.
    -- Stationary point found.
 Normal termination of Gaussian 16 at Tue Dec  8 20:46:50 2020.

 --------------------------------------------------------------------
 #N Geom=AllCheck Guess=TCheck SCRF=Check GenChk RB3LYP/6-31G(d) Freq
 --------------------------------------------------------------------

 Structure from the checkpoint file:  "JID_1705.chk"
 ------------------------------
 CID_13012867_JID_1705_neutraal
 ------------------------------
 Charge =  0 Multiplicity = 1

 SCF Done:  E(RB3LYP) =  -816.152931781     A.U. after    1 cycles

  Exact polarizability: 155.621  -1.490 112.948  -0.000   0.000  41.045
 Approx polarizability: 243.102   2.869 204.774  -0.000   0.001  66.123

                      1                      2                      3
                      A                      A                      A
 Frequencies --    126.2445               172.4287               247.9263
 Red. masses --      5.1208                 5.7423                 9.3122
 Frc consts  --      0.0481                 0.1006                 0.3372
 IR Inten    --      4.2261                 2.0058                 0.0072

                      4                      5                      6
                      A                      A                      A
 Frequencies --    267.0396               267.6539               360.3003
 Red. masses --      4.5732                 8.2339                 1.3356
 Frc consts  --      0.1921                 0.3475                 0.1022
 IR Inten    --      5.7159                 5.2824                44.8547

                      7                      8                      9
                      A                      A                      A
 Frequencies --    383.8606               455.1080               494.0644
 Red. masses --      1.2536                 8.7244                 7.1898
 Frc consts  --      0.1088                 1.0647                 1.0340
 IR Inten    --    124.8577                 0.2786                 3.9902

                     10                     11                     12
                      A                      A                      A
 Frequencies --    545.5262               557.1141               599.8895
 Red. masses --     11.6228                 6.4180                 2.4948
 Frc consts  --      2.0379                 1.1737                 0.5290
 IR Inten    --      0.3894                 3.4027                 0.0747

                     13                     14                     15
                      A                      A                      A
 Frequencies --    619.7014               641.7907               661.2492
 Red. masses --      2.9465                 3.2932                 1.3203
 Frc consts  --      0.6667                 0.7992                 0.3401
 IR Inten    --      4.5726                 4.4193                59.4727

                     16                     17                     18
                      A                      A                      A
 Frequencies --    682.2918               720.6232               807.7100
 Red. masses --      1.6926                 4.9006                 1.2363
 Frc consts  --      0.4642                 1.4994                 0.4752
 IR Inten    --     30.2206                11.2127                14.2534

                     19                     20                     21
                      A                      A                      A
 Frequencies --    811.3854               901.7333               923.7017
 Red. masses --      1.2065                 6.6274                 5.5167
 Frc consts  --      0.4680                 3.1750                 2.7733
 IR Inten    --      6.8456                 6.8751                13.5286

                     22                     23                     24
                      A                      A                      A
 Frequencies --    935.6012              1021.4259              1080.3913
 Red. masses --      4.2852                 2.6784                 1.5769
 Frc consts  --      2.2101                 1.6464                 1.0845
 IR Inten    --      2.5582                 8.7467                27.3726

                     25                     26                     27
                      A                      A                      A
 Frequencies --   1091.4200              1130.2154              1151.7668
 Red. masses --      1.8561                 1.3212                 1.8159
 Frc consts  --      1.3027                 0.9943                 1.4193
 IR Inten    --      3.0510                 0.1082                11.7273

                     28                     29                     30
                      A                      A                      A
 Frequencies --   1236.8822              1252.4815              1269.0837
 Red. masses --      3.9323                 1.9258                 1.7878
 Frc consts  --      3.5445                 1.7800                 1.6965
 IR Inten    --     16.7700                 4.3294                 5.8420

                     31                     32                     33
                      A                      A                      A
 Frequencies --   1366.8939              1417.2762              1424.4378
 Red. masses --      2.8380                 6.4241                 4.2864
 Frc consts  --      3.1242                 7.6027                 5.1242
 IR Inten    --     17.2692                 5.1144                 4.9555

                     34                     35                     36
                      A                      A                      A
 Frequencies --   1465.0013              1481.7706              1492.9395
 Red. masses --      2.9294                 3.7331                 5.7972
 Frc consts  --      3.7043                 4.8292                 7.6129
 IR Inten    --     23.7391                 8.8497                20.5121

                     37                     38                     39
                      A                      A                      A
 Frequencies --   1538.0963              1570.0360              1626.6066
 Red. masses --      3.3024                 3.7087                 6.5324
 Frc consts  --      4.6031                 5.3862                10.1832
 IR Inten    --      5.2408                 5.1749                21.1379

                     40                     41                     42
                      A                      A                      A
 Frequencies --   3258.9872              3267.1710              3284.8524
 Red. masses --      1.0911                 1.0903                 1.1014
 Frc consts  --      6.8275                 6.8571                 7.0018
 IR Inten    --      4.8181                 3.4953                 3.5376

                     43                     44                     45
                      A                      A                      A
 Frequencies --   3286.4255              3676.6626              3679.0759
 Red. masses --      1.1024                 1.0802                 1.0803
 Frc consts  --      7.0148                 8.6030                 8.6155
 IR Inten    --      4.1643                58.2997                69.8916

 - Thermochemistry -
 -------------------
 Temperature   298.150 Kelvin.  Pressure   1.00000 Atm.
 Atom     1 has atomic number  6 and mass  12.00000

 Molecular mass:   162.02517 amu.
 Principal axes and moments of inertia in atomic units:
                           1         2         3
     Eigenvalues --   852.302592085.350962937.65354
           X            1.00000  -0.00134  -0.00000
           Y            0.00134   1.00000   0.00000
           Z            0.00000  -0.00000   1.00000
 This molecule is an asymmetric top.
 Rotational symmetry number  1.
 Warning -- assumption of classical behavior for rotation
           may cause significant error
 Rotational temperatures (Kelvin)      0.10162     0.04153     0.02948
 Rotational constants (GHZ):           2.11749     0.86544     0.61435
 Zero-point vibrational energy     330485.4 (Joules/Mol)
                                   78.98791 (Kcal/Mol)
 Warning -- explicit consideration of  13 degrees of freedom as
           vibrations may cause significant error
 Vibrational temperatures:    181.64   248.09   356.71   384.21   385.09
          (Kelvin)            518.39   552.29   654.80   710.85   784.89
                              801.56   863.11   891.61   923.39   951.39
                              981.67  1036.82  1162.11  1167.40  1297.39
                             1329.00  1346.12  1469.60  1554.44  1570.31
                             1626.13  1657.14  1779.60  1802.04  1825.93
                             1966.66  2039.14  2049.45  2107.81  2131.94
                             2148.01  2212.98  2258.93  2340.32  4688.96
                             4700.73  4726.17  4728.43  5289.90  5293.37

 Zero-point correction=                           0.125875 (Hartree/Particle)
 Thermal correction to Energy=                    0.134276
 Thermal correction to Enthalpy=                  0.135221
 Thermal correction to Gibbs Free Energy=         0.092554
 Sum of electronic and zero-point Energies=           -816.027057
 Sum of electronic and thermal Energies=              -816.018655
 Sum of electronic and thermal Enthalpies=            -816.017711
 Sum of electronic and thermal Free Energies=         -816.060378

                     E (Thermal)             CV                S
                      KCal/Mol        Cal/Mol-Kelvin    Cal/Mol-Kelvin
 Total                   84.260             33.838             89.800
 Electronic               0.000              0.000              0.000
 Translational            0.889              2.981             41.156
 Rotational               0.889              2.981             30.036
 Vibrational             82.482             27.877             18.608
 Vibration     1          0.611              1.927              3.002
 Vibration     2          0.626              1.876              2.409
 Vibration     3          0.662              1.766              1.745
 Vibration     4          0.672              1.734              1.615
 Vibration     5          0.673              1.733              1.611
 Vibration     6          0.735              1.554              1.121
 Vibration     7          0.753              1.505              1.024
 Vibration     8          0.813              1.350              0.780
 Vibration     9          0.850              1.263              0.673
 Vibration    10          0.901              1.149              0.554
 Vibration    11          0.913              1.124              0.530
 Vibration    12          0.958              1.032              0.450
 Vibration    13          0.980              0.990              0.417

 Optimization completed.
    -- Stationary point found.
 Normal termination of Gaussian 16 at Tue Dec  8 20:49:39 2020.

 ----------------------------------------------------------------------
 # B3LYP/6-311++G(d,p) empiricaldispersion=gd3bj scf=xqc pop=npa geom=c
 heck
 ----------------------------------------------------------------------

 --------------------------------------
 CID_13012867_JID_1705_Energie_neutraal
 --------------------------------------
 Structure from the checkpoint file:  "JID_1705.chk"
 Charge =  0 Multiplicity = 1

 SCF Done:  E(RB3LYP) =  -816.292480765     A.U. after   14 cycles
 Normal termination of Gaussian 16 at Tue Dec  8 20:50:40 2020.

 ----------------------------------------------------------------------
 # B3LYP/6-311++G(d,p) empiricaldispersion=gd3bj scf=xqc pop=npa geom=c
 heck
 ----------------------------------------------------------------------

 ------------------------------------
 CID_13012867_JID_1705_Energie_kation
 ------------------------------------
 Structure from the checkpoint file:  "JID_1705.chk"
 Charge =  1 Multiplicity = 2

 SCF Done:  E(UB3LYP) =  -816.038041348     A.U. after   24 cycles
 Normal termination of Gaussian 16 at Tue Dec  8 20:53:18 2020.
 Gaussian 16:  ES64L-G16RevA.03 25-Dec-2016

 ----------------------------------------------------------------------
 # B3LYP/6-311++G(d,p) empiricaldispersion=gd3bj scf=xqc pop=npa geom=c
 heck
 ----------------------------------------------------------------------

 -----------------------------------
 CID_13012867_JID_1705_Energie_anion
 -----------------------------------
 Structure from the checkpoint file:  "JID_1705.chk"
 Charge = -1 Multiplicity = 2

                         Standard orientation:
 ---------------------------------------------------------------------
 Center     Atomic      Atomic             Coordinates (Angstroms)
 Number     Number       Type             X           Y           Z
 ---------------------------------------------------------------------
      1          6           0        1.816949   -1.630337    0.000032
      2          6           0        2.951613   -0.847025    0.000007
      3          7           0        2.577556    0.490019    0.000015
      4          6           0        1.210783    0.555639   -0.000012
      5          6           0        0.694667   -0.743338   -0.000004
      6          6           0       -0.737380   -0.670277   -0.000013
      7          6           0       -1.246224    0.630115   -0.000006
      8         16           0        0.029913    1.859204   -0.000027
      9          6           0       -2.665444    0.563794    0.000086
     10          6           0       -2.983759   -0.781373   -0.000013
     11          7           0       -1.813476   -1.523300   -0.000042
     12          1           0        1.801453   -2.711316    0.000035
     13          1           0        3.996088   -1.121466   -0.000007
     14          1           0        3.211203    1.273110    0.000050
     15          1           0       -3.371354    1.381691    0.000147
     16          1           0       -3.946706   -1.269991   -0.000031
     17          1           0       -1.765078   -2.529496   -0.000032
 ---------------------------------------------------------------------

 SCF Done:  E(UB3LYP) =  -816.280361098     A.U. after   33 cycles
 SCF Done:  E(UB3LYP) =  -816.280361098     a.u. after    1 cycles

 The electronic state is 2-A.
 Alpha  occ. eigenvalues --  -88.77129 -14.25813 -14.25539 -10.11770 -10.09984
 Alpha  occ. eigenvalues --  -10.09569 -10.09266 -10.08388 -10.06884 -10.06789
 Alpha  occ. eigenvalues --  -10.05970  -7.85636  -5.82000  -5.81656  -5.81079
 Alpha  occ. eigenvalues --   -0.88323  -0.87431  -0.74464  -0.68408  -0.66127
 Alpha  occ. eigenvalues --   -0.61012  -0.59318  -0.50649  -0.49350  -0.48363
 Alpha  occ. eigenvalues --   -0.45071  -0.41537  -0.39347  -0.33704  -0.33287
 Alpha  occ. eigenvalues --   -0.33174  -0.32543  -0.30412  -0.30210  -0.29260
 Alpha  occ. eigenvalues --   -0.26867  -0.24170  -0.21798  -0.17491  -0.14606
 Alpha  occ. eigenvalues --   -0.10174  -0.08568   0.04329
 Alpha virt. eigenvalues --    0.05597   0.07701   0.08605   0.09054   0.10381
 Alpha virt. eigenvalues --    0.11055   0.12071   0.12248   0.12622   0.13285
 Alpha virt. eigenvalues --    0.13509   0.14698   0.15766   0.16489   0.16766

  Beta  occ. eigenvalues --  -88.77127 -14.25759 -14.25494 -10.11770 -10.09983
  Beta  occ. eigenvalues --  -10.09555 -10.09247 -10.08384 -10.06883 -10.06789
  Beta  occ. eigenvalues --  -10.05954  -7.85633  -5.81998  -5.81652  -5.81077
  Beta  occ. eigenvalues --   -0.88272  -0.87377  -0.74433  -0.68360  -0.66082
  Beta  occ. eigenvalues --   -0.60976  -0.59283  -0.50600  -0.49259  -0.48282
  Beta  occ. eigenvalues --   -0.45042  -0.41482  -0.39289  -0.33654  -0.33266
  Beta  occ. eigenvalues --   -0.33133  -0.32498  -0.30374  -0.30179  -0.29239
  Beta  occ. eigenvalues --   -0.26842  -0.24139  -0.21780  -0.17475  -0.14589
  Beta  occ. eigenvalues --   -0.10158  -0.08560
  Beta virt. eigenvalues --    0.07039   0.07524   0.08465   0.09308   0.09762
  Beta virt. eigenvalues --    0.10989   0.11035   0.12016   0.12473   0.13158
  Beta virt. eigenvalues --    0.13281   0.13561   0.14567   0.15569   0.16661

 Mulliken charges and spin densities:
               1          2
     1  C   -1.993643   1.715517
     2  C    1.452593  -1.697727
     3  N   -0.073073  -0.009340
     4  C   -2.124314   2.102985
     5  C    1.956256  -2.044215
     6  C    1.599368  -1.922555
     7  C    1.873464  -1.445261
     8  S   -0.676695   0.245204
     9  C    0.754986  -0.674248
    10  C   -0.008521  -0.193725
    11  N   -0.288651   0.175654
    12  H   -0.801952   0.956050
    13  H   -0.878345   1.055575
    14  H   -0.664733   0.995921
    15  H    0.088740   0.056000
    16  H   -0.685841   0.845556
    17  H   -0.529638   0.838612
 Sum of Mulliken charges =  -1.00000   1.00000

 Dipole moment (field-independent basis, Debye):
    X=             -4.1076    Y=              4.1168    Z=              0.0000  Tot=              5.8156
 Quadrupole moment (field-independent basis, Debye-Ang):
   XX=           -140.4729   YY=           -115.4907   ZZ=            -93.8977
   XY=            -14.0816   XZ=             -0.0005   YZ=             -0.0004

 Summary of Natural Population Analysis:

                                       Natural Population
                Natural  -----------------------------------------------
    Atom  No    Charge         Core      Valence    Rydberg      Total
 -----------------------------------------------------------------------
      C    1   -0.13815      0.99954     2.12976    0.00885     3.13815
      C    2   -0.01525      0.99957     2.00178    0.01390     3.01525
      N    3   -0.26979      0.99964     2.75838    0.01177     3.76979
      C    4    0.00056      0.99938     1.98443    0.01563     2.99944
      C    5   -0.08333      0.99940     2.07266    0.01127     3.08333
      C    6    0.05795      0.99938     1.92924    0.01343     2.94205
      C    7   -0.12555      0.99934     2.11568    0.01054     3.12555
      S    8    0.17476      4.99943     2.80501    0.02081     7.82524
      C    9   -0.15446      0.99950     2.14477    0.01019     3.15446
      C   10   -0.02094      0.99958     2.00728    0.01408     3.02094
      N   11   -0.25982      0.99966     2.74978    0.01039     3.75982
      H   12    0.10862      0.00000     0.38985    0.00153     0.39138
      H   13    0.10258      0.00000     0.39483    0.00259     0.39742
      H   14    0.20978      0.00000     0.27064    0.01958     0.29022
      H   15    0.10493      0.00000     0.39436    0.00071     0.39507
      H   16    0.10024      0.00000     0.39846    0.00130     0.39976
      H   17    0.20788      0.00000     0.27872    0.01340     0.29212
 =======================================================================
   * Total *    0.00000     14.99441    26.82563    0.17996    42.00000

 Normal termination of Gaussian 16 at Tue Dec  8 20:56:11 2020.
