 Gaussian 16, Revision A.03,

 -----------------------------------------------------------
 # opt freq B3LYP/6-31G(d) empiricaldispersion=gd3bj scf=xqc
 -----------------------------------------------------------

 -----------------------------
 CID_79566826_JID_171_neutraal
 -----------------------------
 Symbolic Z-matrix:
 Charge =  0 Multiplicity = 1

 SCF Done:  E(RB3LYP) =  -502.046412049     A.U. after   13 cycles
 SCF Done:  E(RB3LYP) =  -502.048589347     A.U. after   11 cycles
 SCF Done:  E(RB3LYP) =  -502.049004524     A.U. after   10 cycles
 SCF Done:  E(RB3LYP) =  -502.049075283     A.U. after   10 cycles
 SCF Done:  E(RB3LYP) =  -502.049121683     A.U. after    9 cycles
 SCF Done:  E(RB3LYP) =  -502.049160313     A.U. after   10 cycles
 SCF Done:  E(RB3LYP) =  -502.049395026     A.U. after   11 cycles
 SCF Done:  E(RB3LYP) =  -502.049545124     A.U. after   13 cycles
 SCF Done:  E(RB3LYP) =  -502.049925728     A.U. after   10 cycles
 SCF Done:  E(RB3LYP) =  -502.050145472     A.U. after   10 cycles
 SCF Done:  E(RB3LYP) =  -502.051056999     A.U. after   11 cycles
 SCF Done:  E(RB3LYP) =  -502.051093182     A.U. after    9 cycles
 SCF Done:  E(RB3LYP) =  -502.051097653     A.U. after    9 cycles
 SCF Done:  E(RB3LYP) =  -502.051098182     A.U. after    7 cycles
 SCF Done:  E(RB3LYP) =  -502.051098246     A.U. after    7 cycles
 SCF Done:  E(RB3LYP) =  -502.051098274     A.U. after    6 cycles
 Optimization completed.
    -- Stationary point found.

 1\1\GINC-NODE203\FOpt\RB3LYP\6-31G(d)\C7H16O3\VSC10255\08-Dec-2020\0\\
 # opt freq B3LYP/6-31G(d) empiricaldispersion=gd3bj scf=xqc\\CID_79566
 826_JID_171_neutraal\\0,1\C,0.7659113677,0.433733539,0.5523168722\C,1.
 3185567039,-0.9898003777,0.5905940693\O,1.8571795446,-1.355228011,1.85
 00646935\C,3.1077664092,-0.7673766947,2.1372043953\C,3.6235674016,-1.3
 090034843,3.4811150569\C,3.6477006313,-2.8337772311,3.4900771218\C,5.0
 241561658,-0.7468987899,3.7488471971\O,4.8999677706,0.6618914136,3.884
 1167371\C,6.099436741,1.2878857551,4.287534244\O,2.7673894256,-0.90242

 Normal termination of Gaussian 16 at Tue Dec  8 10:21:56 2020.

 --------------------------------------------------------------------
 #N Geom=AllCheck Guess=TCheck SCRF=Check GenChk RB3LYP/6-31G(d) Freq
 --------------------------------------------------------------------

 Structure from the checkpoint file:  "JID_171.chk"
 -----------------------------
 CID_79566826_JID_171_neutraal
 -----------------------------
 Charge =  0 Multiplicity = 1

 SCF Done:  E(RB3LYP) =  -502.051098274     A.U. after    1 cycles

  Exact polarizability:  98.924   1.486  85.067  -0.327  -1.627  76.246
 Approx polarizability: 115.270   2.294 112.085   0.067   0.228 113.156

                      1                      2                      3
                      A                      A                      A
 Frequencies --     27.7981                61.3742                69.2099
 Red. masses --      2.9686                 2.9896                 2.5836
 Frc consts  --      0.0014                 0.0066                 0.0073
 IR Inten    --      0.6936                 0.4674                 1.0570

                      4                      5                      6
                      A                      A                      A
 Frequencies --    116.5791               143.3215               151.1319
 Red. masses --      2.3532                 2.4294                 2.0713
 Frc consts  --      0.0188                 0.0294                 0.0279
 IR Inten    --      2.5320                 1.3749                 2.4626

                      7                      8                      9
                      A                      A                      A
 Frequencies --    195.6472               223.1511               237.5552
 Red. masses --      2.1901                 1.1225                 1.3860
 Frc consts  --      0.0494                 0.0329                 0.0461
 IR Inten    --      0.1556                 0.5303                 3.9744

                     10                     11                     12
                      A                      A                      A
 Frequencies --    246.9832               309.5493               339.6524
 Red. masses --      1.5961                 2.5548                 2.9812
 Frc consts  --      0.0574                 0.1442                 0.2026
 IR Inten    --      0.0668                 3.9553                 4.4625

                     13                     14                     15
                      A                      A                      A
 Frequencies --    353.3992               359.1232               428.8145
 Red. masses --      3.0142                 2.4981                 2.2612
 Frc consts  --      0.2218                 0.1898                 0.2450
 IR Inten    --      5.1218                 3.7303                 7.9141

                     16                     17                     18
                      A                      A                      A
 Frequencies --    442.3412               453.1979               523.4677
 Red. masses --      2.8295                 1.1848                 2.9409
 Frc consts  --      0.3262                 0.1434                 0.4748
 IR Inten    --      0.6442               130.6386                11.2652

                     19                     20                     21
                      A                      A                      A
 Frequencies --    638.3740               807.9144               821.5208
 Red. masses --      3.3488                 1.4332                 1.9939
 Frc consts  --      0.8041                 0.5512                 0.7928
 IR Inten    --     18.2864                 2.7976                 0.9388

                     22                     23                     24
                      A                      A                      A
 Frequencies --    898.1968               924.5962               946.2727
 Red. masses --      2.4832                 1.7706                 2.1643
 Frc consts  --      1.1803                 0.8918                 1.1418
 IR Inten    --      6.1985                 2.2775                11.6714

                     25                     26                     27
                      A                      A                      A
 Frequencies --    975.5236              1001.5650              1034.3698
 Red. masses --      2.2523                 2.2990                 2.1320
 Frc consts  --      1.2629                 1.3588                 1.3440
 IR Inten    --     32.0407                30.4493                 9.5681

                     28                     29                     30
                      A                      A                      A
 Frequencies --   1044.8402              1105.6128              1149.3191
 Red. masses --      2.1069                 2.2018                 1.9468
 Frc consts  --      1.3552                 1.5857                 1.5151
 IR Inten    --     10.1665                25.1447                29.0676

                     31                     32                     33
                      A                      A                      A
 Frequencies --   1162.5753              1171.5705              1188.8639
 Red. masses --      4.7014                 3.1002                 1.2867
 Frc consts  --      3.7438                 2.5071                 1.0715
 IR Inten    --    195.6186               139.9266                 1.7402

                     34                     35                     36
                      A                      A                      A
 Frequencies --   1212.1308              1226.1729              1229.4541
 Red. masses --      2.1637                 1.9213                 1.7202
 Frc consts  --      1.8730                 1.7020                 1.5320
 IR Inten    --     45.1394                50.1783                 4.8397

                     37                     38                     39
                      A                      A                      A
 Frequencies --   1245.6959              1296.8451              1323.2849
 Red. masses --      1.6509                 1.3038                 1.4876
 Frc consts  --      1.5094                 1.2919                 1.5348
 IR Inten    --      9.0584                22.8473                47.7422

                     40                     41                     42
                      A                      A                      A
 Frequencies --   1341.8997              1388.3675              1414.1437
 Red. masses --      1.1391                 1.2956                 1.2415
 Frc consts  --      1.2085                 1.4714                 1.4628
 IR Inten    --     18.8294                51.4115                 8.3745

                     43                     44                     45
                      A                      A                      A
 Frequencies --   1429.6801              1440.3287              1444.0302
 Red. masses --      1.3150                 1.2870                 1.4186
 Frc consts  --      1.5836                 1.5731                 1.7429
 IR Inten    --      7.1655                34.9027                11.9932

                     46                     47                     48
                      A                      A                      A
 Frequencies --   1465.1198              1501.6025              1514.9948
 Red. masses --      1.5495                 1.1542                 1.0701
 Frc consts  --      1.9598                 1.5334                 1.4472
 IR Inten    --     21.1000                 5.3832                 2.3016

                     49                     50                     51
                      A                      A                      A
 Frequencies --   1515.1673              1519.2840              1520.5458
 Red. masses --      1.0484                 1.0552                 1.0562
 Frc consts  --      1.4181                 1.4351                 1.4387
 IR Inten    --      6.1858                 3.8617                 1.3342

                     52                     53                     54
                      A                      A                      A
 Frequencies --   1528.5147              1530.5109              1536.5980
 Red. masses --      1.0633                 1.0581                 1.0705
 Frc consts  --      1.4636                 1.4603                 1.4892
 IR Inten    --     11.8310                 5.1443                 1.3584

                     55                     56                     57
                      A                      A                      A
 Frequencies --   1548.8821              1551.3987              2962.9631
 Red. masses --      1.0811                 1.0872                 1.0687
 Frc consts  --      1.5281                 1.5417                 5.5276
 IR Inten    --      1.9001                 5.2634                29.8807

                     58                     59                     60
                      A                      A                      A
 Frequencies --   2983.0187              2991.1292              3002.7608
 Red. masses --      1.0714                 1.0487                 1.0425
 Frc consts  --      5.6173                 5.5283                 5.5383
 IR Inten    --     71.3080                35.9644                83.3135

                     61                     62                     63
                      A                      A                      A
 Frequencies --   3033.2463              3046.4897              3047.1673
 Red. masses --      1.1071                 1.0999                 1.0837
 Frc consts  --      6.0012                 6.0145                 5.9286
 IR Inten    --     65.0533                53.2993                14.2314

                     64                     65                     66
                      A                      A                      A
 Frequencies --   3057.4499              3064.1589              3089.3146
 Red. masses --      1.0476                 1.0381                 1.0927
 Frc consts  --      5.7699                 5.7424                 6.1441
 IR Inten    --     36.6874                22.8330                21.5661

                     67                     68                     69
                      A                      A                      A
 Frequencies --   3122.2635              3130.5906              3134.3306
 Red. masses --      1.1007                 1.1020                 1.1036
 Frc consts  --      6.3221                 6.3633                 6.3878
 IR Inten    --     47.2789                29.6534                36.6148

                     70                     71                     72
                      A                      A                      A
 Frequencies --   3140.3414              3167.8672              3705.7600
 Red. masses --      1.0978                 1.1000                 1.0650
 Frc consts  --      6.3786                 6.5041                 8.6173
 IR Inten    --     29.6068                 9.5127                27.9979

 - Thermochemistry -
 -------------------
 Temperature   298.150 Kelvin.  Pressure   1.00000 Atm.
 Atom     1 has atomic number  6 and mass  12.00000

 Molecular mass:   148.10994 amu.
 Principal axes and moments of inertia in atomic units:
                           1         2         3
     Eigenvalues --   953.304592564.667473074.77516
           X            0.99991  -0.01237   0.00499
           Y            0.01250   0.99957  -0.02661
           Z           -0.00465   0.02667   0.99963
 This molecule is an asymmetric top.
 Rotational symmetry number  1.
 Warning -- assumption of classical behavior for rotation
           may cause significant error
 Rotational temperatures (Kelvin)      0.09086     0.03377     0.02817
 Rotational constants (GHZ):           1.89314     0.70369     0.58695
 Zero-point vibrational energy     609837.8 (Joules/Mol)
                                  145.75473 (Kcal/Mol)
 Warning -- explicit consideration of  18 degrees of freedom as
           vibrations may cause significant error
 Vibrational temperatures:     40.00    88.30    99.58   167.73   206.21
          (Kelvin)            217.45   281.49   321.06   341.79   355.35
                              445.37   488.68   508.46   516.70   616.97
                              636.43   652.05   753.15   918.48  1162.41
                             1181.99  1292.30  1330.29  1361.48  1403.56
                             1441.03  1488.23  1503.29  1590.73  1653.61
                             1672.69  1685.63  1710.51  1743.99  1764.19
                             1768.91  1792.28  1865.87  1903.91  1930.69
                             1997.55  2034.64  2056.99  2072.31  2077.64
                             2107.98  2160.47  2179.74  2179.99  2185.91
                             2187.73  2199.19  2202.06  2210.82  2228.50
                             2232.12  4263.04  4291.90  4303.57  4320.30
                             4364.16  4383.22  4384.19  4398.99  4408.64
                             4444.83  4492.24  4504.22  4509.60  4518.25
                             4557.85  5331.76

 Zero-point correction=                           0.232275 (Hartree/Particle)
 Thermal correction to Energy=                    0.245048
 Thermal correction to Enthalpy=                  0.245992
 Thermal correction to Gibbs Free Energy=         0.192670
 Sum of electronic and zero-point Energies=           -501.818823
 Sum of electronic and thermal Energies=              -501.806050
 Sum of electronic and thermal Enthalpies=            -501.805106
 Sum of electronic and thermal Free Energies=         -501.858428

                     E (Thermal)             CV                S
                      KCal/Mol        Cal/Mol-Kelvin    Cal/Mol-Kelvin
 Total                  153.770             45.224            112.226
 Electronic               0.000              0.000              0.000
 Translational            0.889              2.981             40.889
 Rotational               0.889              2.981             30.398
 Vibrational            151.993             39.262             40.940
 Vibration     1          0.593              1.984              5.981
 Vibration     2          0.597              1.973              4.413
 Vibration     3          0.598              1.969              4.176
 Vibration     4          0.608              1.936              3.156
 Vibration     5          0.616              1.910              2.759
 Vibration     6          0.619              1.901              2.658
 Vibration     7          0.636              1.846              2.174
 Vibration     8          0.649              1.806              1.933
 Vibration     9          0.656              1.783              1.821
 Vibration    10          0.661              1.768              1.752
 Vibration    11          0.699              1.656              1.365
 Vibration    12          0.720              1.596              1.214
 Vibration    13          0.730              1.568              1.151
 Vibration    14          0.734              1.556              1.126
 Vibration    15          0.790              1.408              0.863
 Vibration    16          0.802              1.378              0.819
 Vibration    17          0.812              1.354              0.786
 Vibration    18          0.878              1.198              0.602

                           ! Non-Optimized Parameters !

 1\1\GINC-NODE203\Freq\RB3LYP\6-31G(d)\C7H16O3\VSC10255\08-Dec-2020\0\\
 #N Geom=AllCheck Guess=TCheck SCRF=Check GenChk RB3LYP/6-31G(d) Freq\\
 CID_79566826_JID_171_neutraal\\0,1\C,0.7659113677,0.433733539,0.552316
 8722\C,1.3185567039,-0.9898003777,0.5905940693\O,1.8571795446,-1.35522
 8011,1.8500646935\C,3.1077664092,-0.7673766947,2.1372043953\C,3.623567
 4016,-1.3090034843,3.4811150569\C,3.6477006313,-2.8337772311,3.4900771
 218\C,5.0241561658,-0.7468987899,3.7488471971\O,4.8999677706,0.6618914
 136,3.8841167371\C,6.099436741,1.2878857551,4.287534244\O,2.7673894256

 Normal termination of Gaussian 16 at Tue Dec  8 10:26:14 2020.

 ----------------------------------------------------------------------
 # B3LYP/6-311++G(d,p) empiricaldispersion=gd3bj scf=xqc pop=npa geom=c
 heck
 ----------------------------------------------------------------------

 -------------------------------------
 CID_79566826_JID_171_Energie_neutraal
 -------------------------------------
 Structure from the checkpoint file:  "JID_171.chk"
 Charge =  0 Multiplicity = 1

 SCF Done:  E(RB3LYP) =  -502.212765496     A.U. after   13 cycles
 Normal termination of Gaussian 16 at Tue Dec  8 10:28:05 2020.

 ----------------------------------------------------------------------
 # B3LYP/6-311++G(d,p) empiricaldispersion=gd3bj scf=xqc pop=npa geom=c
 heck
 ----------------------------------------------------------------------

 -----------------------------------
 CID_79566826_JID_171_Energie_kation
 -----------------------------------
 Structure from the checkpoint file:  "JID_171.chk"
 Charge =  1 Multiplicity = 2

 SCF Done:  E(UB3LYP) =  -501.883764458     A.U. after   22 cycles
 Normal termination of Gaussian 16 at Tue Dec  8 10:32:57 2020.
 Gaussian 16:  ES64L-G16RevA.03 25-Dec-2016

 ----------------------------------
 CID_79566826_JID_171_Energie_anion
 ----------------------------------
 Structure from the checkpoint file:  "JID_171.chk"
 Charge = -1 Multiplicity = 2

                         Standard orientation:
 ---------------------------------------------------------------------
 Center     Atomic      Atomic             Coordinates (Angstroms)
 Number     Number       Type             X           Y           Z
 ---------------------------------------------------------------------
      1          6           0        3.236478   -1.549038    0.285506
      2          6           0        3.006001   -0.223209   -0.437258
      3          8           0        1.864531    0.481565    0.021283
      4          6           0        0.635947   -0.066379   -0.405710
      5          6           0       -0.513623    0.833228    0.078753
      6          6           0       -0.304663    2.279815   -0.356355
      7          6           0       -1.841344    0.294001   -0.465013
      8          8           0       -2.045532   -0.991218    0.105014
      9          6           0       -3.313073   -1.535755   -0.195253
     10          8           0       -0.581617    0.835250    1.503157
     11          1           0        3.282341   -1.384881    1.366994
     12          1           0        4.182455   -1.997641   -0.039364
     13          1           0        2.438381   -2.270517    0.081832
     14          1           0        3.850975    0.450137   -0.258529
     15          1           0        2.936560   -0.387980   -1.526236
     16          1           0        0.612276   -0.134872   -1.508417
     17          1           0        0.482500   -1.079354   -0.009562
     18          1           0       -0.263992    2.357972   -1.448534
     19          1           0       -1.121622    2.905136    0.016246
     20          1           0        0.637957    2.646961    0.053022
     21          1           0       -2.653908    0.973838   -0.165184
     22          1           0       -1.832104    0.230775   -1.565129
     23          1           0       -4.126124   -0.890281    0.171697
     24          1           0       -3.443591   -1.677194   -1.279270
     25          1           0       -3.374302   -2.507432    0.301117
     26          1           0       -0.941187   -0.035433    1.745665
 ---------------------------------------------------------------------

 SCF Done:  E(UB3LYP) =  -502.197136843     A.U. after   25 cycles

 The electronic state is 2-A.
 Alpha  occ. eigenvalues --  -19.03117 -19.02023 -19.01256 -10.12771 -10.11750
 Alpha  occ. eigenvalues --  -10.11486 -10.10809 -10.10726 -10.06286 -10.05799
 Alpha  occ. eigenvalues --   -0.94977  -0.93648  -0.91223  -0.69290  -0.65346
 Alpha  occ. eigenvalues --   -0.61392  -0.58696  -0.54355  -0.50775  -0.46968
 Alpha  occ. eigenvalues --   -0.41419  -0.39755  -0.39406  -0.38439  -0.36776
 Alpha  occ. eigenvalues --   -0.35627  -0.33652  -0.31894  -0.31512  -0.29682
 Alpha  occ. eigenvalues --   -0.28757  -0.28262  -0.27873  -0.26359  -0.25470
 Alpha  occ. eigenvalues --   -0.23372  -0.23225  -0.20966  -0.17193  -0.16974
 Alpha  occ. eigenvalues --   -0.15598   0.04625
 Alpha virt. eigenvalues --    0.06452   0.07578   0.08574   0.09055   0.09358
 Alpha virt. eigenvalues --    0.09830   0.10420   0.11477   0.11783   0.12196
 Alpha virt. eigenvalues --    0.12747   0.13500   0.14166   0.15156   0.15311

  Beta  occ. eigenvalues --  -19.03103 -19.02015 -19.01248 -10.12766 -10.11731
  Beta  occ. eigenvalues --  -10.11460 -10.10791 -10.10666 -10.06258 -10.05786
  Beta  occ. eigenvalues --   -0.94957  -0.93632  -0.91204  -0.69266  -0.65308
  Beta  occ. eigenvalues --   -0.61339  -0.58655  -0.54251  -0.50704  -0.46930
  Beta  occ. eigenvalues --   -0.41384  -0.39730  -0.39345  -0.38402  -0.36735
  Beta  occ. eigenvalues --   -0.35588  -0.33617  -0.31849  -0.31462  -0.29650
  Beta  occ. eigenvalues --   -0.28734  -0.28230  -0.27842  -0.26330  -0.25446
  Beta  occ. eigenvalues --   -0.23332  -0.23162  -0.20936  -0.17171  -0.16943
  Beta  occ. eigenvalues --   -0.15565
  Beta virt. eigenvalues --    0.06892   0.07594   0.08179   0.09190   0.09430
  Beta virt. eigenvalues --    0.09926   0.10507   0.10821   0.11971   0.12223
  Beta virt. eigenvalues --    0.12624   0.12997   0.13978   0.14407   0.15292

 Mulliken charges and spin densities:
               1          2
     1  C    0.538349  -0.933088
     2  C   -0.115080   0.003407
     3  O   -0.124330   0.047138
     4  C   -0.171268  -0.479840
     5  C    0.373771   0.039815
     6  C   -0.179048  -0.340751
     7  C   -0.339702  -0.193423
     8  O   -0.285048   0.118122
     9  C    1.438605  -1.699899
    10  O   -0.169073   0.005483
    11  H    0.100546   0.034762
    12  H   -0.341883   0.481421
    13  H   -0.378128   0.515401
    14  H   -0.131650   0.279929
    15  H   -0.098971   0.201322
    16  H   -0.146870   0.301743
    17  H    0.441177  -0.279364
    18  H   -0.048342   0.188565
    19  H   -0.087224   0.234215
    20  H    0.171795   0.011743
    21  H    0.150917   0.023641
    22  H   -0.132606   0.289806
    23  H   -0.524637   0.656221
    24  H   -0.616802   0.761593
    25  H   -0.501177   0.641794
    26  H    0.176681   0.090246
 Sum of Mulliken charges =  -1.00000   1.00000

 Dipole moment (field-independent basis, Debye):
    X=              3.1365    Y=              3.7035    Z=              1.7961  Tot=              5.1749
 Quadrupole moment (field-independent basis, Debye-Ang):
   XX=           -137.6788   YY=           -104.3613   ZZ=            -97.2644
   XY=             -4.6421   XZ=             -1.8324   YZ=             -5.8674

 Summary of Natural Population Analysis:

                                       Natural Population
                Natural  -----------------------------------------------
    Atom  No    Charge         Core      Valence    Rydberg      Total
 -----------------------------------------------------------------------
      C    1   -0.30152      0.99967     2.29703    0.00482     3.30152
      C    2   -0.00702      0.99960     1.99480    0.01262     3.00702
      O    3   -0.30002      0.99988     3.29073    0.00941     4.30002
      C    4   -0.01913      0.99950     2.00563    0.01399     3.01913
      C    5    0.10673      0.99954     1.87621    0.01752     2.89327
      C    6   -0.29158      0.99961     2.28565    0.00631     3.29158
      C    7   -0.01630      0.99952     2.00410    0.01269     3.01630
      O    8   -0.30754      0.99988     3.29708    0.01058     4.30754
      C    9   -0.09463      0.99962     2.08582    0.00919     3.09463
      O   10   -0.37503      0.99989     3.36888    0.00626     4.37503
      H   11    0.09924      0.00000     0.39976    0.00100     0.40076
      H   12    0.10016      0.00000     0.39837    0.00147     0.39984
      H   13    0.09979      0.00000     0.39889    0.00132     0.40021
      H   14    0.08545      0.00000     0.41335    0.00121     0.41455
      H   15    0.07678      0.00000     0.42165    0.00157     0.42322
      H   16    0.08156      0.00000     0.41672    0.00172     0.41844
      H   17    0.08922      0.00000     0.40846    0.00232     0.41078
      H   18    0.10018      0.00000     0.39885    0.00097     0.39982
      H   19    0.10096      0.00000     0.39807    0.00097     0.39904
      H   20    0.11241      0.00000     0.38646    0.00112     0.38759
      H   21    0.08516      0.00000     0.41315    0.00169     0.41484
      H   22    0.08691      0.00000     0.41102    0.00207     0.41309
      H   23    0.07948      0.00000     0.41800    0.00252     0.42052
      H   24    0.08268      0.00000     0.41422    0.00311     0.41732
      H   25    0.09223      0.00000     0.40581    0.00196     0.40777
      H   26    0.23382      0.00000     0.26318    0.00300     0.26618
 =======================================================================
   * Total *    0.00000      9.99671    30.87188    0.13141    41.00000

 Normal termination of Gaussian 16 at Tue Dec  8 10:39:47 2020.
