 Gaussian 16, Revision A.03,

 -----------------------------------------------------------
 # opt freq B3LYP/6-31G(d) empiricaldispersion=gd3bj scf=xqc
 -----------------------------------------------------------

 ------------------------------
 CID_83071077_JID_7394_neutraal
 ------------------------------
 Symbolic Z-matrix:
 Charge =  0 Multiplicity = 1

 SCF Done:  E(RB3LYP) =  -840.472777719     A.U. after   15 cycles
 SCF Done:  E(RB3LYP) =  -840.482099108     A.U. after   12 cycles
 SCF Done:  E(RB3LYP) =  -840.480758875     A.U. after   13 cycles
 SCF Done:  E(RB3LYP) =  -840.482673660     A.U. after   12 cycles
 SCF Done:  E(RB3LYP) =  -840.483810921     A.U. after   13 cycles
 SCF Done:  E(RB3LYP) =  -840.483679898     A.U. after   12 cycles
 SCF Done:  E(RB3LYP) =  -840.484060156     A.U. after   12 cycles
 SCF Done:  E(RB3LYP) =  -840.484195795     A.U. after   11 cycles
 SCF Done:  E(RB3LYP) =  -840.484251764     A.U. after   10 cycles
 SCF Done:  E(RB3LYP) =  -840.484294206     A.U. after   10 cycles
 SCF Done:  E(RB3LYP) =  -840.484301331     A.U. after   10 cycles
 SCF Done:  E(RB3LYP) =  -840.484304079     A.U. after    9 cycles
 SCF Done:  E(RB3LYP) =  -840.484305086     A.U. after    8 cycles
 SCF Done:  E(RB3LYP) =  -840.484305460     A.U. after    8 cycles
 SCF Done:  E(RB3LYP) =  -840.484305612     A.U. after    7 cycles
 SCF Done:  E(RB3LYP) =  -840.484305702     A.U. after    7 cycles
 Optimization completed.
    -- Stationary point found.
 Normal termination of Gaussian 16 at Fri Dec 11 12:13:37 2020.

 --------------------------------------------------------------------
 #N Geom=AllCheck Guess=TCheck SCRF=Check GenChk RB3LYP/6-31G(d) Freq
 --------------------------------------------------------------------

 Structure from the checkpoint file:  "JID_7394.chk"
 ------------------------------
 CID_83071077_JID_7394_neutraal
 ------------------------------
 Charge =  0 Multiplicity = 1

 SCF Done:  E(RB3LYP) =  -840.484305703     A.U. after    1 cycles

  Exact polarizability: 143.262  -4.768 125.173   0.900   1.594 122.701
 Approx polarizability: 187.996  -4.787 184.598   6.459   6.221 193.580

                      1                      2                      3
                      A                      A                      A
 Frequencies --     33.5041                46.1312                61.9902
 Red. masses --      4.6268                 6.6982                 8.6588
 Frc consts  --      0.0031                 0.0084                 0.0196
 IR Inten    --      4.2607                 0.7635                 2.5642

                      4                      5                      6
                      A                      A                      A
 Frequencies --     76.5594               103.1312               121.1836
 Red. masses --      5.8885                 4.3918                 2.4291
 Frc consts  --      0.0203                 0.0275                 0.0210
 IR Inten    --      0.3777                 2.7059                 0.1336

                      7                      8                      9
                      A                      A                      A
 Frequencies --    141.2941               165.9649               180.9386
 Red. masses --      2.3662                 4.2220                 5.9790
 Frc consts  --      0.0278                 0.0685                 0.1153
 IR Inten    --      0.2949                 1.3175                 1.3597

                     10                     11                     12
                      A                      A                      A
 Frequencies --    198.8056               219.7174               237.6897
 Red. masses --      3.4055                 1.4409                 2.6344
 Frc consts  --      0.0793                 0.0410                 0.0877
 IR Inten    --      3.6569                 2.5260                 2.8622

                     13                     14                     15
                      A                      A                      A
 Frequencies --    278.9796               297.5305               353.7449
 Red. masses --      2.9160                 2.6884                 2.3784
 Frc consts  --      0.1337                 0.1402                 0.1754
 IR Inten    --      0.9783                 0.5376                 7.3741

                     16                     17                     18
                      A                      A                      A
 Frequencies --    378.5567               383.2644               426.9251
 Red. masses --      2.5013                 2.8744                 4.5069
 Frc consts  --      0.2112                 0.2488                 0.4840
 IR Inten    --      1.8307                 4.8938                 0.3130

                     19                     20                     21
                      A                      A                      A
 Frequencies --    447.4613               502.1897               540.6117
 Red. masses --      2.8788                 2.5653                 1.6971
 Frc consts  --      0.3396                 0.3812                 0.2922
 IR Inten    --      5.1258                50.7252                87.4046

                     22                     23                     24
                      A                      A                      A
 Frequencies --    549.3385               585.0079               608.6763
 Red. masses --      3.2912                 3.4555                 4.5007
 Frc consts  --      0.5852                 0.6968                 0.9824
 IR Inten    --     23.6684                16.6887                 7.3724

                     25                     26                     27
                      A                      A                      A
 Frequencies --    619.9158               659.7066               676.7758
 Red. masses --      1.5875                 2.8393                 2.2273
 Frc consts  --      0.3594                 0.7281                 0.6011
 IR Inten    --     39.9617                28.2710                33.0529

                     28                     29                     30
                      A                      A                      A
 Frequencies --    731.2902               746.8048               762.2144
 Red. masses --      3.5603                 4.5484                 8.9288
 Frc consts  --      1.1218                 1.4946                 3.0563
 IR Inten    --     40.1468                15.5143                18.6924

                     31                     32                     33
                      A                      A                      A
 Frequencies --    778.7429               790.9642               819.5180
 Red. masses --      3.8706                 1.7579                 1.3471
 Frc consts  --      1.3830                 0.6480                 0.5330
 IR Inten    --     38.8822                 8.4102                 4.4367

                     34                     35                     36
                      A                      A                      A
 Frequencies --    848.4353               871.6640               901.3520
 Red. masses --      2.7594                 1.7491                 2.6137
 Frc consts  --      1.1703                 0.7830                 1.2511
 IR Inten    --      8.0034                 5.0515                 3.8820

                     37                     38                     39
                      A                      A                      A
 Frequencies --    923.8059               935.7210               966.5627
 Red. masses --      2.4285                 2.2455                 2.4208
 Frc consts  --      1.2211                 1.1584                 1.3325
 IR Inten    --      5.8825                 4.5136                24.4813

                     40                     41                     42
                      A                      A                      A
 Frequencies --    972.0822               986.0488              1023.5305
 Red. masses --      5.0749                 2.0443                 2.4630
 Frc consts  --      2.8254                 1.1711                 1.5203
 IR Inten    --     50.5494                 4.0762                 5.6879

                     43                     44                     45
                      A                      A                      A
 Frequencies --   1035.6520              1057.7369              1088.6703
 Red. masses --      1.9543                 2.7533                 1.7123
 Frc consts  --      1.2350                 1.8149                 1.1957
 IR Inten    --     10.0096                29.4848                42.9405

                     46                     47                     48
                      A                      A                      A
 Frequencies --   1091.7182              1112.8897              1116.8942
 Red. masses --      2.0786                 2.5476                 2.9967
 Frc consts  --      1.4596                 1.8590                 2.2025
 IR Inten    --     25.0918                42.5155                27.0409

                     49                     50                     51
                      A                      A                      A
 Frequencies --   1144.8669              1160.3215              1178.4666
 Red. masses --      2.2413                 2.5080                 2.2498
 Frc consts  --      1.7309                 1.9895                 1.8409
 IR Inten    --     57.7687                92.9157                72.5148

                     52                     53                     54
                      A                      A                      A
 Frequencies --   1204.8639              1217.0799              1231.8005
 Red. masses --      1.8516                 2.4500                 1.2550
 Frc consts  --      1.5837                 2.1382                 1.1220
 IR Inten    --     13.8226                79.4650                 5.7973

                     55                     56                     57
                      A                      A                      A
 Frequencies --   1241.1887              1248.7215              1289.0855
 Red. masses --      2.3665                 1.5111                 1.1980
 Frc consts  --      2.1480                 1.3883                 1.1730
 IR Inten    --    113.4926                37.6065                 5.9361

                     58                     59                     60
                      A                      A                      A
 Frequencies --   1318.7412              1333.2695              1335.5465
 Red. masses --      1.5246                 1.3066                 1.3622
 Frc consts  --      1.5622                 1.3684                 1.4316
 IR Inten    --      4.2733                14.0818                11.0496

                     61                     62                     63
                      A                      A                      A
 Frequencies --   1347.1894              1359.8496              1362.2167
 Red. masses --      1.4502                 1.5618                 1.6891
 Frc consts  --      1.5507                 1.7016                 1.8467
 IR Inten    --     32.3550                 8.2165                 8.6467

                     64                     65                     66
                      A                      A                      A
 Frequencies --   1377.8472              1387.7023              1397.1948
 Red. masses --      1.6044                 1.4318                 1.4333
 Frc consts  --      1.7946                 1.6245                 1.6485
 IR Inten    --      7.0254                 5.6287                 4.5444

                     67                     68                     69
                      A                      A                      A
 Frequencies --   1398.3991              1421.9332              1426.9314
 Red. masses --      1.5028                 1.4508                 1.3297
 Frc consts  --      1.7314                 1.7283                 1.5952
 IR Inten    --     20.7613                48.8328                12.9673

                     70                     71                     72
                      A                      A                      A
 Frequencies --   1442.6095              1457.8835              1499.6617
 Red. masses --      1.2437                 1.6527                 1.0814
 Frc consts  --      1.5250                 2.0696                 1.4329
 IR Inten    --      3.2175                14.8208                10.3297

                     73                     74                     75
                      A                      A                      A
 Frequencies --   1515.4599              1526.5338              1533.3101
 Red. masses --      1.0795                 1.0693                 1.0561
 Frc consts  --      1.4607                 1.4682                 1.4629
 IR Inten    --      0.8729                 0.4393                 6.0585

                     76                     77                     78
                      A                      A                      A
 Frequencies --   1536.3432              1541.4791              1547.7982
 Red. masses --      1.0835                 1.0586                 1.0975
 Frc consts  --      1.5067                 1.4820                 1.5491
 IR Inten    --      7.9094                 2.9478                 4.3868

                     79                     80                     81
                      A                      A                      A
 Frequencies --   1564.1689              1835.2226              1896.1092
 Red. masses --      1.0935                 9.7521                11.1549
 Frc consts  --      1.5763                19.3520                23.6289
 IR Inten    --     12.9887               240.6083               479.3631

                     82                     83                     84
                      A                      A                      A
 Frequencies --   3026.9114              3037.7187              3059.4133
 Red. masses --      1.0740                 1.0854                 1.0355
 Frc consts  --      5.7976                 5.9010                 5.7108
 IR Inten    --     20.6409                55.7366                24.6393

                     85                     86                     87
                      A                      A                      A
 Frequencies --   3064.3183              3072.3987              3075.3874
 Red. masses --      1.0701                 1.0616                 1.0591
 Frc consts  --      5.9202                 5.9042                 5.9021
 IR Inten    --     24.1613                31.6961                46.0640

                     88                     89                     90
                      A                      A                      A
 Frequencies --   3083.4494              3103.8922              3110.9803
 Red. masses --      1.0673                 1.0619                 1.1056
 Frc consts  --      5.9789                 6.0275                 6.3041
 IR Inten    --     11.7767                22.0335                35.8627

                     91                     92                     93
                      A                      A                      A
 Frequencies --   3115.0571              3124.1493              3126.8881
 Red. masses --      1.1024                 1.0997                 1.0913
 Frc consts  --      6.3029                 6.3241                 6.2865
 IR Inten    --     43.7016                19.1352                29.1721

                     94                     95                     96
                      A                      A                      A
 Frequencies --   3129.8314              3134.6685              3150.7170
 Red. masses --      1.1011                 1.0963                 1.1070
 Frc consts  --      6.3549                 6.3468                 6.4747
 IR Inten    --     15.7991                30.4367                22.3043

                     97                     98                     99
                      A                      A                      A
 Frequencies --   3166.1435              3637.6261              3671.7171
 Red. masses --      1.0977                 1.0778                 1.0639
 Frc consts  --      6.4830                 8.4029                 8.4507
 IR Inten    --      7.5339                37.0798                43.3859

 - Thermochemistry -
 -------------------
 Temperature   298.150 Kelvin.  Pressure   1.00000 Atm.
 Atom     1 has atomic number  6 and mass  12.00000

 Molecular mass:   242.12666 amu.
 Principal axes and moments of inertia in atomic units:
                           1         2         3
     Eigenvalues --  2122.818145280.428675657.11041
           X            0.99940  -0.03327  -0.00995
           Y            0.03284   0.99866  -0.04008
           Z            0.01127   0.03973   0.99915
 This molecule is an asymmetric top.
 Rotational symmetry number  1.
 Warning -- assumption of classical behavior for rotation
           may cause significant error
 Rotational temperatures (Kelvin)      0.04080     0.01640     0.01531
 Rotational constants (GHZ):           0.85016     0.34178     0.31902
 Zero-point vibrational energy     787316.0 (Joules/Mol)
                                  188.17304 (Kcal/Mol)
 Warning -- explicit consideration of  25 degrees of freedom as
           vibrations may cause significant error
 Vibrational temperatures:     48.20    66.37    89.19   110.15   148.38
          (Kelvin)            174.36   203.29   238.79   260.33   286.04
                              316.12   341.98   401.39   428.08   508.96
                              544.66   551.43   614.25   643.80   722.54
                              777.82   790.38   841.70   875.75   891.92
                              949.17   973.73  1052.16  1074.49  1096.66
                             1120.44  1138.02  1179.10  1220.71  1254.13
                             1296.84  1329.15  1346.29  1390.67  1398.61
                             1418.70  1472.63  1490.07  1521.85  1566.35
                             1570.74  1601.20  1606.96  1647.21  1669.44
                             1695.55  1733.53  1751.11  1772.29  1785.79
                             1796.63  1854.71  1897.37  1918.28  1921.55
                             1938.31  1956.52  1959.93  1982.41  1996.59
                             2010.25  2011.98  2045.84  2053.04  2075.59
                             2097.57  2157.68  2180.41  2196.34  2206.09
                             2210.46  2217.84  2226.94  2250.49  2640.48
                             2728.08  4355.05  4370.60  4401.81  4408.87
                             4420.50  4424.80  4436.40  4465.81  4476.01
                             4481.87  4494.95  4498.89  4503.13  4510.09
                             4533.18  4555.37  5233.73  5282.78

 Zero-point correction=                           0.299873 (Hartree/Particle)
 Thermal correction to Energy=                    0.316074
 Thermal correction to Enthalpy=                  0.317018
 Thermal correction to Gibbs Free Energy=         0.255683
 Sum of electronic and zero-point Energies=           -840.184433
 Sum of electronic and thermal Energies=              -840.168231
 Sum of electronic and thermal Enthalpies=            -840.167287
 Sum of electronic and thermal Free Energies=         -840.228622

                     E (Thermal)             CV                S
                      KCal/Mol        Cal/Mol-Kelvin    Cal/Mol-Kelvin
 Total                  198.340             62.005            129.091
 Electronic               0.000              0.000              0.000
 Translational            0.889              2.981             42.354
 Rotational               0.889              2.981             32.517
 Vibrational            196.562             56.044             54.220
 Vibration     1          0.594              1.983              5.610
 Vibration     2          0.595              1.979              4.977
 Vibration     3          0.597              1.972              4.393
 Vibration     4          0.599              1.965              3.977
 Vibration     5          0.605              1.947              3.394
 Vibration     6          0.609              1.932              3.081
 Vibration     7          0.615              1.912              2.786
 Vibration     8          0.624              1.884              2.481
 Vibration     9          0.630              1.866              2.319
 Vibration    10          0.637              1.842              2.144
 Vibration    11          0.647              1.811              1.961
 Vibration    12          0.656              1.783              1.820
 Vibration    13          0.679              1.712              1.540
 Vibration    14          0.691              1.678              1.431
 Vibration    15          0.730              1.568              1.149
 Vibration    16          0.749              1.516              1.045
 Vibration    17          0.752              1.506              1.026
 Vibration    18          0.789              1.412              0.869
 Vibration    19          0.807              1.366              0.803
 Vibration    20          0.858              1.245              0.653
 Vibration    21          0.896              1.160              0.564
 Vibration    22          0.905              1.141              0.546
 Vibration    23          0.942              1.064              0.476
 Vibration    24          0.968              1.013              0.435
 Vibration    25          0.980              0.990              0.417

                           ! Non-Optimized Parameters !
 Normal termination of Gaussian 16 at Fri Dec 11 12:30:53 2020.

 ----------------------------------------------------------------------
 # B3LYP/6-311++G(d,p) empiricaldispersion=gd3bj scf=xqc pop=npa geom=c
 heck
 ----------------------------------------------------------------------

 --------------------------------------
 CID_83071077_JID_7394_Energie_neutraal
 --------------------------------------
 Structure from the checkpoint file:  "JID_7394.chk"
 Charge =  0 Multiplicity = 1

 SCF Done:  E(RB3LYP) =  -840.735210873     A.U. after   16 cycles
 Normal termination of Gaussian 16 at Fri Dec 11 12:40:15 2020.

 ----------------------------------------------------------------------
 # B3LYP/6-311++G(d,p) empiricaldispersion=gd3bj scf=xqc pop=npa geom=c
 heck
 ----------------------------------------------------------------------

 ------------------------------------
 CID_83071077_JID_7394_Energie_kation
 ------------------------------------
 Structure from the checkpoint file:  "JID_7394.chk"
 Charge =  1 Multiplicity = 2

 SCF Done:  E(UB3LYP) =  -840.444143186     A.U. after   21 cycles
 Normal termination of Gaussian 16 at Fri Dec 11 12:58:17 2020.
 Gaussian 16:  ES64L-G16RevA.03 25-Dec-2016

 ----------------------------------------------------------------------
 # B3LYP/6-311++G(d,p) empiricaldispersion=gd3bj scf=xqc pop=npa geom=c
 heck
 ----------------------------------------------------------------------

 -----------------------------------
 CID_83071077_JID_7394_Energie_anion
 -----------------------------------
 Structure from the checkpoint file:  "JID_7394.chk"
 Charge = -1 Multiplicity = 2

                         Standard orientation:
 ---------------------------------------------------------------------
 Center     Atomic      Atomic             Coordinates (Angstroms)
 Number     Number       Type             X           Y           Z
 ---------------------------------------------------------------------
      1          6           0       -2.050246    2.614077   -0.123589
      2          6           0       -1.263239    1.489482   -0.805597
      3          6           0       -1.310019    0.170885   -0.021360
      4          6           0       -0.728944    0.281700    1.420050
      5          6           0       -0.013335   -1.065309    1.690511
      6          6           0       -0.304417   -1.913680    0.433147
      7          7           0       -0.578018   -0.962585   -0.645982
      8          6           0        0.401845   -0.751802   -1.688904
      9          6           0        1.818903   -0.227587   -1.351215
     10          6           0        2.819219   -1.207745   -0.693261
     11          7           0        3.549520   -0.294988    0.169956
     12          6           0        2.795139    0.822603    0.460844
     13          8           0        2.968648    1.640148    1.329862
     14          8           0        1.760451    0.881499   -0.435079
     15          6           0       -2.777733   -0.312293   -0.036400
     16          8           0       -3.571262   -0.109858   -0.928781
     17          8           0       -3.112735   -1.058793    1.050517
     18          1           0       -3.111394    2.362881   -0.031656
     19          1           0       -1.977692    3.533065   -0.714326
     20          1           0       -1.656892    2.832204    0.874980
     21          1           0       -1.679275    1.319369   -1.803538
     22          1           0       -0.221552    1.794566   -0.908166
     23          1           0       -0.014123    1.106545    1.449569
     24          1           0       -1.509996    0.486883    2.154510
     25          1           0        1.062474   -0.904311    1.815498
     26          1           0       -0.377529   -1.555976    2.597477
     27          1           0        0.499719   -2.596171    0.151702
     28          1           0       -1.194591   -2.527925    0.607498
     29          1           0        0.546721   -1.701191   -2.224585
     30          1           0       -0.034672   -0.064929   -2.417203
     31          1           0        2.262206    0.145346   -2.284141
     32          1           0        3.466285   -1.673159   -1.442579
     33          1           0        2.324659   -2.000317   -0.122635
     34          1           0        4.162075   -0.629227    0.900609
     35          1           0       -4.030804   -1.350584    0.891672
 ---------------------------------------------------------------------

 SCF Done:  E(UB3LYP) =  -840.728052424     A.U. after   32 cycles

 The electronic state is 2-A.
 Alpha  occ. eigenvalues --  -19.08276 -19.07146 -19.02547 -19.00766 -14.24800
 Alpha  occ. eigenvalues --  -14.21924 -10.22685 -10.21406 -10.14910 -10.13270
 Alpha  occ. eigenvalues --  -10.12017 -10.11696 -10.09759 -10.07798 -10.07591
 Alpha  occ. eigenvalues --  -10.07327 -10.07275  -1.02415  -1.02260  -0.93615
 Alpha  occ. eigenvalues --   -0.93152  -0.84903  -0.83720  -0.71886  -0.69483
 Alpha  occ. eigenvalues --   -0.66721  -0.63116  -0.60545  -0.56186  -0.54688
 Alpha  occ. eigenvalues --   -0.53462  -0.51810  -0.49407  -0.46701  -0.44057
 Alpha  occ. eigenvalues --   -0.42781  -0.40965  -0.40520  -0.39114  -0.39023
 Alpha  occ. eigenvalues --   -0.36923  -0.35959  -0.35618  -0.34982  -0.33937
 Alpha  occ. eigenvalues --   -0.33662  -0.33335  -0.32308  -0.31859  -0.31083
 Alpha  occ. eigenvalues --   -0.30144  -0.28973  -0.27831  -0.27002  -0.26361
 Alpha  occ. eigenvalues --   -0.25465  -0.24489  -0.24092  -0.23776  -0.23429
 Alpha  occ. eigenvalues --   -0.21057  -0.19882  -0.19124  -0.17380  -0.12458
 Alpha  occ. eigenvalues --    0.03894
 Alpha virt. eigenvalues --    0.05490   0.06693   0.07405   0.07932   0.08571
 Alpha virt. eigenvalues --    0.08829   0.09293   0.10105   0.10825   0.11327
 Alpha virt. eigenvalues --    0.11487   0.11784   0.12337   0.12628   0.13014

  Beta  occ. eigenvalues --  -19.08244 -19.07136 -19.02539 -19.00764 -14.24768
  Beta  occ. eigenvalues --  -14.21922 -10.22686 -10.21406 -10.14895 -10.13263
  Beta  occ. eigenvalues --  -10.11964 -10.11682 -10.09738 -10.07794 -10.07588
  Beta  occ. eigenvalues --  -10.07324 -10.07263  -1.02395  -1.02221  -0.93606
  Beta  occ. eigenvalues --   -0.93119  -0.84890  -0.83669  -0.71864  -0.69461
  Beta  occ. eigenvalues --   -0.66683  -0.63092  -0.60490  -0.56127  -0.54652
  Beta  occ. eigenvalues --   -0.53434  -0.51750  -0.49369  -0.46655  -0.44014
  Beta  occ. eigenvalues --   -0.42742  -0.40933  -0.40492  -0.39093  -0.38955
  Beta  occ. eigenvalues --   -0.36887  -0.35939  -0.35600  -0.34956  -0.33917
  Beta  occ. eigenvalues --   -0.33631  -0.33294  -0.32284  -0.31828  -0.31056
  Beta  occ. eigenvalues --   -0.30119  -0.28957  -0.27803  -0.26982  -0.26346
  Beta  occ. eigenvalues --   -0.25443  -0.24468  -0.24076  -0.23760  -0.23410
  Beta  occ. eigenvalues --   -0.21036  -0.19867  -0.19099  -0.17342  -0.12423
  Beta virt. eigenvalues --    0.06203   0.06997   0.07366   0.07685   0.08189
  Beta virt. eigenvalues --    0.09187   0.09276   0.09559   0.10388   0.10997
  Beta virt. eigenvalues --    0.11681   0.11967   0.12014   0.12485   0.12825

 Mulliken charges and spin densities:
               1          2
     1  C   -0.446284  -0.156860
     2  C   -0.178129  -0.222891
     3  C    0.088791  -0.349807
     4  C   -0.976054   0.186918
     5  C    0.241345  -0.468130
     6  C    0.153360  -0.434320
     7  N    0.307125   0.038142
     8  C   -0.183647  -0.071379
     9  C   -1.033523   1.111612
    10  C    2.359205  -2.916183
    11  N   -0.357901   0.198179
    12  C    0.623802  -0.528710
    13  O   -0.364650   0.030777
    14  O    0.014326  -0.045955
    15  C    0.330318  -0.103407
    16  O   -0.249554   0.012685
    17  O   -0.142760   0.036487
    18  H    0.142335   0.030684
    19  H    0.111353   0.026447
    20  H    0.123835   0.019854
    21  H    0.199808  -0.007137
    22  H    0.257683  -0.026929
    23  H    0.120255   0.028510
    24  H    0.129621   0.055333
    25  H    0.096696   0.091824
    26  H   -0.058266   0.241504
    27  H   -0.514955   0.668759
    28  H    0.166984  -0.005187
    29  H   -0.265913   0.470602
    30  H    0.000664   0.180128
    31  H   -0.312096   0.525887
    32  H   -1.073547   1.292038
    33  H    0.093426   0.087264
    34  H   -0.234086   0.540649
    35  H   -0.169567   0.462609
 Sum of Mulliken charges =  -1.00000   1.00000

 Dipole moment (field-independent basis, Debye):
    X=             -5.4226    Y=              4.4752    Z=              1.0576  Tot=              7.1099
 Quadrupole moment (field-independent basis, Debye-Ang):
   XX=           -187.6495   YY=           -147.3543   ZZ=           -140.3758
   XY=              5.3557   XZ=              2.0644   YZ=             -7.6192

 Summary of Natural Population Analysis:

                                       Natural Population
                Natural  -----------------------------------------------
    Atom  No    Charge         Core      Valence    Rydberg      Total
 -----------------------------------------------------------------------
      C    1   -0.28471      0.99966     2.28091    0.00414     3.28471
      C    2   -0.20367      0.99959     2.19599    0.00810     3.20367
      C    3    0.04006      0.99950     1.94539    0.01505     2.95994
      C    4   -0.20223      0.99960     2.19334    0.00929     3.20223
      C    5   -0.19818      0.99963     2.19080    0.00775     3.19818
      C    6   -0.08583      0.99961     2.07534    0.01088     3.08583
      N    7   -0.28018      0.99969     2.76597    0.01452     3.78018
      C    8   -0.08918      0.99957     2.07602    0.01359     3.08918
      C    9    0.05613      0.99956     1.92914    0.01517     2.94387
      C   10   -0.09570      0.99961     2.08436    0.01174     3.09570
      N   11   -0.33104      0.99968     2.82078    0.01059     3.83104
      C   12    0.46075      0.99970     1.51311    0.02644     2.53925
      O   13   -0.31480      0.99986     3.30948    0.00546     4.31480
      O   14   -0.29135      0.99986     3.28315    0.00834     4.29135
      C   15    0.41448      0.99962     1.55785    0.02804     2.58552
      O   16   -0.31176      0.99987     3.30554    0.00636     4.31176
      O   17   -0.34808      0.99987     3.34121    0.00700     4.34808
      H   18    0.09974      0.00000     0.39935    0.00090     0.40026
      H   19    0.09861      0.00000     0.40065    0.00074     0.40139
      H   20    0.09740      0.00000     0.40177    0.00083     0.40260
      H   21    0.10579      0.00000     0.39301    0.00120     0.39421
      H   22    0.11406      0.00000     0.38442    0.00151     0.38594
      H   23    0.11025      0.00000     0.38849    0.00126     0.38975
      H   24    0.10416      0.00000     0.39468    0.00116     0.39584
      H   25    0.09721      0.00000     0.40124    0.00155     0.40279
      H   26    0.10077      0.00000     0.39818    0.00105     0.39923
      H   27    0.09894      0.00000     0.39963    0.00143     0.40106
      H   28    0.09608      0.00000     0.40227    0.00165     0.40392
      H   29    0.10452      0.00000     0.39426    0.00123     0.39548
      H   30    0.10306      0.00000     0.39562    0.00132     0.39694
      H   31    0.08989      0.00000     0.40854    0.00157     0.41011
      H   32    0.10691      0.00000     0.38502    0.00807     0.39309
      H   33    0.09342      0.00000     0.40319    0.00339     0.40658
      H   34    0.20366      0.00000     0.29308    0.00326     0.29634
      H   35    0.24085      0.00000     0.25257    0.00658     0.25915
 =======================================================================
   * Total *   -0.00000     16.99448    47.76436    0.24116    65.00000

 Normal termination of Gaussian 16 at Fri Dec 11 13:23:25 2020.
