 Gaussian 16, Revision A.03,

 -----------------------------------------------------------
 # opt freq B3LYP/6-31G(d) empiricaldispersion=gd3bj scf=xqc
 -----------------------------------------------------------

 ------------------------------
 CID_83914190_JID_2774_neutraal
 ------------------------------
 Symbolic Z-matrix:
 Charge =  0 Multiplicity = 1

 SCF Done:  E(RB3LYP) =  -547.334999005     A.U. after   15 cycles
 SCF Done:  E(RB3LYP) =  -547.352197251     A.U. after   15 cycles
 SCF Done:  E(RB3LYP) =  -547.353901585     A.U. after   13 cycles
 SCF Done:  E(RB3LYP) =  -547.354515804     A.U. after   14 cycles
 SCF Done:  E(RB3LYP) =  -547.355691333     A.U. after   12 cycles
 SCF Done:  E(RB3LYP) =  -547.356571171     A.U. after   13 cycles
 SCF Done:  E(RB3LYP) =  -547.356886131     A.U. after   12 cycles
 SCF Done:  E(RB3LYP) =  -547.357042721     A.U. after   12 cycles
 SCF Done:  E(RB3LYP) =  -547.357190586     A.U. after   12 cycles
 SCF Done:  E(RB3LYP) =  -547.357375715     A.U. after   12 cycles
 SCF Done:  E(RB3LYP) =  -547.358401724     A.U. after   13 cycles
 SCF Done:  E(RB3LYP) =  -547.358788943     A.U. after   13 cycles
 SCF Done:  E(RB3LYP) =  -547.358921027     A.U. after   11 cycles
 SCF Done:  E(RB3LYP) =  -547.358942504     A.U. after   11 cycles
 SCF Done:  E(RB3LYP) =  -547.358948287     A.U. after   10 cycles
 SCF Done:  E(RB3LYP) =  -547.358949671     A.U. after    9 cycles
 Optimization completed.
    -- Stationary point found.
 Normal termination of Gaussian 16 at Wed Dec  9 17:58:54 2020.

 --------------------------------------------------------------------
 #N Geom=AllCheck Guess=TCheck SCRF=Check GenChk RB3LYP/6-31G(d) Freq
 --------------------------------------------------------------------

 Structure from the checkpoint file:  "JID_2774.chk"
 ------------------------------
 CID_83914190_JID_2774_neutraal
 ------------------------------
 Charge =  0 Multiplicity = 1

 SCF Done:  E(RB3LYP) =  -547.358949671     A.U. after    1 cycles

  Exact polarizability: 175.228  -0.914 105.160   0.002  -0.000  36.796
 Approx polarizability: 300.699  -5.435 193.864   0.007   0.002  57.239

                      1                      2                      3
                      A                      A                      A
 Frequencies --     55.4743                77.2201               152.5244
 Red. masses --      7.4053                10.4342                 9.4552
 Frc consts  --      0.0134                 0.0367                 0.1296
 IR Inten    --      0.0237                 0.9504                 1.6383

                      4                      5                      6
                      A                      A                      A
 Frequencies --    219.0942               314.9511               359.5554
 Red. masses --      4.2735                 7.2045                 6.2970
 Frc consts  --      0.1209                 0.4211                 0.4796
 IR Inten    --      0.0083                12.0314                 0.0558

                      7                      8                      9
                      A                      A                      A
 Frequencies --    417.2733               417.9246               462.5884
 Red. masses --     11.0998                 2.8036                 4.5418
 Frc consts  --      1.1387                 0.2885                 0.5726
 IR Inten    --      2.6738                 4.8296                10.0040

                     10                     11                     12
                      A                      A                      A
 Frequencies --    544.4230               615.0798               622.3903
 Red. masses --     12.4507                 7.1675                 3.6801
 Frc consts  --      2.1743                 1.5976                 0.8399
 IR Inten    --     22.1489                12.8731                 4.9038

                     13                     14                     15
                      A                      A                      A
 Frequencies --    634.5839               671.1351               709.6184
 Red. masses --      9.7660                 4.2274                 2.2050
 Frc consts  --      2.3171                 1.1219                 0.6542
 IR Inten    --     15.6301                10.9767                 2.3242

                     16                     17                     18
                      A                      A                      A
 Frequencies --    742.2636               759.8360               795.1316
 Red. masses --      1.6977                 7.0532                 1.5623
 Frc consts  --      0.5511                 2.3992                 0.5820
 IR Inten    --     10.7609                 7.0292                17.7817

                     19                     20                     21
                      A                      A                      A
 Frequencies --    797.3748               812.8922               878.1364
 Red. masses --      1.3403                 5.5077                 1.4696
 Frc consts  --      0.5021                 2.1443                 0.6677
 IR Inten    --     24.6229                14.0245                22.0315

                     22                     23                     24
                      A                      A                      A
 Frequencies --    931.6030               934.3034               970.9375
 Red. masses --      3.9224                 1.2438                 4.6964
 Frc consts  --      2.0057                 0.6397                 2.6085
 IR Inten    --     32.6003                 0.4128                12.7807

                     25                     26                     27
                      A                      A                      A
 Frequencies --   1123.6127              1166.5132              1169.2251
 Red. masses --      2.3549                 1.4120                 2.0684
 Frc consts  --      1.7517                 1.1320                 1.6660
 IR Inten    --     26.4808                 1.3351                42.8965

                     28                     29                     30
                      A                      A                      A
 Frequencies --   1248.3593              1284.7024              1312.4908
 Red. masses --      1.4062                 1.9349                 3.8498
 Frc consts  --      1.2911                 1.8815                 3.9073
 IR Inten    --      1.4739                 4.1259                 0.9433

                     31                     32                     33
                      A                      A                      A
 Frequencies --   1324.1381              1351.8983              1377.4816
 Red. masses --      2.4828                 4.3864                 2.7344
 Frc consts  --      2.5649                 4.7233                 3.0569
 IR Inten    --     18.0227                 4.2720                16.1804

                     34                     35                     36
                      A                      A                      A
 Frequencies --   1469.0954              1491.9059              1544.1414
 Red. masses --      4.9758                 3.1010                 6.5141
 Frc consts  --      6.3272                 4.0666                 9.1512
 IR Inten    --      4.9883                 4.5958                25.0716

                     37                     38                     39
                      A                      A                      A
 Frequencies --   1570.5225              1587.8524              1700.5306
 Red. masses --      5.7174                 7.0029                 6.2227
 Frc consts  --      8.3088                10.4027                10.6023
 IR Inten    --      0.2660                42.4282                28.6614

                     40                     41                     42
                      A                      A                      A
 Frequencies --   2378.6504              3221.2666              3236.7742
 Red. masses --     12.7123                 1.0920                 1.0881
 Frc consts  --     42.3777                 6.6762                 6.7166
 IR Inten    --   1624.4218                 3.7634                 0.1581

                     43                     44                     45
                      A                      A                      A
 Frequencies --   3252.4538              3267.4794              3275.0038
 Red. masses --      1.0982                 1.0948                 1.0978
 Frc consts  --      6.8445                 6.8866                 6.9375
 IR Inten    --      2.1500                 5.5613                 0.6730

 - Thermochemistry -
 -------------------
 Temperature   298.150 Kelvin.  Pressure   1.00000 Atm.
 Atom     1 has atomic number  6 and mass  12.00000

 Molecular mass:   159.04326 amu.
 Principal axes and moments of inertia in atomic units:
                           1         2         3
     Eigenvalues --   636.283163419.326054055.60917
           X            1.00000   0.00243  -0.00000
           Y           -0.00243   1.00000  -0.00000
           Z            0.00000   0.00000   1.00000
 This molecule is an asymmetric top.
 Rotational symmetry number  1.
 Warning -- assumption of classical behavior for rotation
           may cause significant error
 Rotational temperatures (Kelvin)      0.13612     0.02533     0.02136
 Rotational constants (GHZ):           2.83638     0.52781     0.44500
 Zero-point vibrational energy     318508.2 (Joules/Mol)
                                   76.12529 (Kcal/Mol)
 Warning -- explicit consideration of  11 degrees of freedom as
           vibrations may cause significant error
 Vibrational temperatures:     79.82   111.10   219.45   315.23   453.14
          (Kelvin)            517.32   600.36   601.30   665.56   783.30
                              884.96   895.48   913.02   965.61  1020.98
                             1067.95  1093.23  1144.02  1147.24  1169.57
                             1263.44  1340.37  1344.25  1396.96  1616.63
                             1678.35  1682.25  1796.11  1848.40  1888.38
                             1905.14  1945.08  1981.89  2113.70  2146.52
                             2221.68  2259.63  2284.57  2446.68  3422.35
                             4634.68  4657.00  4679.56  4701.17  4712.00

 Zero-point correction=                           0.121313 (Hartree/Particle)
 Thermal correction to Energy=                    0.130144
 Thermal correction to Enthalpy=                  0.131088
 Thermal correction to Gibbs Free Energy=         0.086299
 Sum of electronic and zero-point Energies=           -547.237636
 Sum of electronic and thermal Energies=              -547.228806
 Sum of electronic and thermal Enthalpies=            -547.227862
 Sum of electronic and thermal Free Energies=         -547.272651

                     E (Thermal)             CV                S
                      KCal/Mol        Cal/Mol-Kelvin    Cal/Mol-Kelvin
 Total                   81.666             34.011             94.267
 Electronic               0.000              0.000              0.000
 Translational            0.889              2.981             41.101
 Rotational               0.889              2.981             30.557
 Vibrational             79.889             28.049             22.609
 Vibration     1          0.596              1.975              4.612
 Vibration     2          0.599              1.964              3.960
 Vibration     3          0.619              1.900              2.640
 Vibration     4          0.647              1.812              1.967
 Vibration     5          0.702              1.645              1.336
 Vibration     6          0.734              1.556              1.124
 Vibration     7          0.780              1.433              0.901
 Vibration     8          0.781              1.431              0.899
 Vibration     9          0.820              1.333              0.759
 Vibration    10          0.900              1.152              0.556
 Vibration    11          0.975              1.000              0.424

 Optimization completed.
    -- Stationary point found.
 Normal termination of Gaussian 16 at Wed Dec  9 18:02:15 2020.

 ----------------------------------------------------------------------
 # B3LYP/6-311++G(d,p) empiricaldispersion=gd3bj scf=xqc pop=npa geom=c
 heck
 ----------------------------------------------------------------------

 --------------------------------------
 CID_83914190_JID_2774_Energie_neutraal
 --------------------------------------
 Structure from the checkpoint file:  "JID_2774.chk"
 Charge =  0 Multiplicity = 1

 SCF Done:  E(RB3LYP) =  -547.505531092     A.U. after   15 cycles
 Normal termination of Gaussian 16 at Wed Dec  9 18:03:48 2020.

 ----------------------------------------------------------------------
 # B3LYP/6-311++G(d,p) empiricaldispersion=gd3bj scf=xqc pop=npa geom=c
 heck
 ----------------------------------------------------------------------

 ------------------------------------
 CID_83914190_JID_2774_Energie_kation
 ------------------------------------
 Structure from the checkpoint file:  "JID_2774.chk"
 Charge =  1 Multiplicity = 2

 SCF Done:  E(UB3LYP) =  -547.224578518     A.U. after   19 cycles
 Normal termination of Gaussian 16 at Wed Dec  9 18:06:51 2020.
 Gaussian 16:  ES64L-G16RevA.03 25-Dec-2016

 ----------------------------------------------------------------------
 # B3LYP/6-311++G(d,p) empiricaldispersion=gd3bj scf=xqc pop=npa geom=c
 heck
 ----------------------------------------------------------------------

 -----------------------------------
 CID_83914190_JID_2774_Energie_anion
 -----------------------------------
 Structure from the checkpoint file:  "JID_2774.chk"
 Charge = -1 Multiplicity = 2

                         Standard orientation:
 ---------------------------------------------------------------------
 Center     Atomic      Atomic             Coordinates (Angstroms)
 Number     Number       Type             X           Y           Z
 ---------------------------------------------------------------------
      1          6           0       -0.375608    1.690799    0.000023
      2          6           0        0.981263    1.729389   -0.000125
      3          7           0        1.698523    0.552594   -0.000183
      4          6           0        3.049663    0.308284   -0.000099
      5          7           0        3.306171   -0.987327    0.000051
      6          6           0        2.101143   -1.627867    0.000006
      7          6           0        1.058549   -0.708603   -0.000000
      8          6           0       -0.355881   -0.744762    0.000218
      9          6           0       -1.066704    0.431783    0.000180
     10          7           0       -2.459816    0.480771    0.000365
     11          6           0       -3.407232   -0.272626   -0.000073
     12          8           0       -4.410260   -0.888833   -0.000328
     13          1           0       -0.949157    2.609136    0.000119
     14          1           0        1.559840    2.645061   -0.000116
     15          1           0        3.777311    1.107451   -0.000190
     16          1           0        2.028735   -2.706411   -0.000095
     17          1           0       -0.859954   -1.705215    0.000498
 ---------------------------------------------------------------------

 SCF Done:  E(UB3LYP) =  -547.512707627     A.U. after   21 cycles

 The electronic state is 2-A.
 Alpha  occ. eigenvalues --  -19.03249 -14.22658 -14.20662 -14.15397 -10.16091
 Alpha  occ. eigenvalues --  -10.07441 -10.06243 -10.05978 -10.05038 -10.02921
 Alpha  occ. eigenvalues --  -10.02872 -10.00541  -0.97162  -0.87735  -0.82284
 Alpha  occ. eigenvalues --   -0.75668  -0.66648  -0.62702  -0.57691  -0.52203
 Alpha  occ. eigenvalues --   -0.48648  -0.45737  -0.40596  -0.39130  -0.37598
 Alpha  occ. eigenvalues --   -0.34635  -0.33523  -0.32748  -0.30940  -0.30096
 Alpha  occ. eigenvalues --   -0.29991  -0.27110  -0.27009  -0.23063  -0.22526
 Alpha  occ. eigenvalues --   -0.18786  -0.17332  -0.14433  -0.13456  -0.11329
 Alpha  occ. eigenvalues --   -0.05143   0.05475
 Alpha virt. eigenvalues --    0.09218   0.10212   0.10852   0.11945   0.13106
 Alpha virt. eigenvalues --    0.13284   0.14528   0.14707   0.15060   0.15742
 Alpha virt. eigenvalues --    0.16282   0.16891   0.17942   0.18615   0.19620

  Beta  occ. eigenvalues --  -19.03118 -14.22446 -14.20755 -14.15312 -10.15911
  Beta  occ. eigenvalues --  -10.07486 -10.06053 -10.05990 -10.04604 -10.02926
  Beta  occ. eigenvalues --  -10.02821 -10.00085  -0.96908  -0.87409  -0.82160
  Beta  occ. eigenvalues --   -0.75344  -0.66115  -0.62280  -0.57299  -0.51525
  Beta  occ. eigenvalues --   -0.48483  -0.45522  -0.40337  -0.38882  -0.37375
  Beta  occ. eigenvalues --   -0.34374  -0.32753  -0.32513  -0.30063  -0.29959
  Beta  occ. eigenvalues --   -0.29720  -0.27032  -0.26857  -0.22303  -0.22028
  Beta  occ. eigenvalues --   -0.17742  -0.17293  -0.13330  -0.13182  -0.10366
  Beta  occ. eigenvalues --   -0.03724
  Beta virt. eigenvalues --    0.09171   0.10187   0.10798   0.11581   0.11894
  Beta virt. eigenvalues --    0.13081   0.13734   0.14625   0.15135   0.15156
  Beta virt. eigenvalues --    0.15834   0.16234   0.16815   0.18165   0.18610

 Mulliken charges and spin densities:
               1          2
     1  C    0.088091  -0.035438
     2  C   -0.307129   0.406350
     3  N    0.155746   0.025389
     4  C    0.057651  -0.000232
     5  N   -0.161836   0.042542
     6  C   -0.754743   0.069947
     7  C    0.838988  -0.089127
     8  C   -0.618439   0.448544
     9  C   -0.745450   0.086935
    10  N   -0.096661  -0.043785
    11  C    0.300691   0.118941
    12  O   -0.347670   0.033215
    13  H    0.154838   0.003383
    14  H    0.101529  -0.031494
    15  H    0.105840   0.001286
    16  H    0.089787  -0.004558
    17  H    0.138767  -0.031897
 Sum of Mulliken charges =  -1.00000   1.00000

 Dipole moment (field-independent basis, Debye):
    X=             -0.4976    Y=              2.1725    Z=              0.0003  Tot=              2.2288
 Quadrupole moment (field-independent basis, Debye-Ang):
   XX=           -121.7884   YY=            -76.5675   ZZ=            -77.4600
   XY=              4.5544   XZ=             -0.0028   YZ=             -0.0012

 Summary of Natural Population Analysis:

                                       Natural Population
                Natural  -----------------------------------------------
    Atom  No    Charge         Core      Valence    Rydberg      Total
 -----------------------------------------------------------------------
      C    1   -0.14186      0.99955     2.13326    0.00905     3.14186
      C    2    0.08701      0.99957     1.90275    0.01067     2.91299
      N    3   -0.16714      0.99962     2.65683    0.01070     3.66714
      C    4    0.06164      0.99967     1.92124    0.01746     2.93836
      N    5   -0.24355      0.99972     2.73165    0.01218     3.74355
      C    6   -0.03843      0.99955     2.02430    0.01458     3.03843
      C    7    0.04878      0.99956     1.93866    0.01300     2.95122
      C    8   -0.03862      0.99950     2.03145    0.00768     3.03862
      C    9    0.09235      0.99943     1.89629    0.01192     2.90765
      N   10   -0.27905      0.99949     2.77130    0.00826     3.77905
      C   11    0.44016      0.99960     1.54211    0.01813     2.55984
      O   12   -0.27096      0.99987     3.26394    0.00715     4.27096
      H   13    0.09885      0.00000     0.40015    0.00100     0.40115
      H   14    0.08573      0.00000     0.41335    0.00092     0.41427
      H   15    0.08417      0.00000     0.41473    0.00110     0.41583
      H   16    0.08731      0.00000     0.41168    0.00101     0.41269
      H   17    0.09362      0.00000     0.40555    0.00084     0.40638
 =======================================================================
   * Total *   -0.00000     11.99513    28.85923    0.14564    41.00000

 Normal termination of Gaussian 16 at Wed Dec  9 18:10:36 2020.
