 Gaussian 16, Revision A.03,

 -----------------------------------------------------------
 # opt freq B3LYP/6-31G(d) empiricaldispersion=gd3bj scf=xqc
 -----------------------------------------------------------

 ------------------------------
 CID_79182622_JID_9710_neutraal
 ------------------------------
 Symbolic Z-matrix:
 Charge =  0 Multiplicity = 1

 SCF Done:  E(RB3LYP) =  -858.468894077     A.U. after   15 cycles
 SCF Done:  E(RB3LYP) =  -858.474413420     A.U. after   12 cycles
 SCF Done:  E(RB3LYP) =  -858.474105035     A.U. after   12 cycles
 SCF Done:  E(RB3LYP) =  -858.475033233     A.U. after   12 cycles
 SCF Done:  E(RB3LYP) =  -858.475172622     A.U. after   12 cycles
 SCF Done:  E(RB3LYP) =  -858.475210754     A.U. after   11 cycles
 SCF Done:  E(RB3LYP) =  -858.475221948     A.U. after   10 cycles
 SCF Done:  E(RB3LYP) =  -858.475229777     A.U. after   11 cycles
 SCF Done:  E(RB3LYP) =  -858.475244429     A.U. after   10 cycles
 SCF Done:  E(RB3LYP) =  -858.475256801     A.U. after   11 cycles
 SCF Done:  E(RB3LYP) =  -858.475281561     A.U. after   12 cycles
 SCF Done:  E(RB3LYP) =  -858.475281880     A.U. after   10 cycles
 SCF Done:  E(RB3LYP) =  -858.475282151     A.U. after    9 cycles
 SCF Done:  E(RB3LYP) =  -858.475282167     A.U. after    6 cycles
 SCF Done:  E(RB3LYP) =  -858.475282143     A.U. after    6 cycles
 Optimization completed.
    -- Stationary point found.
 Normal termination of Gaussian 16 at Sun Dec 13 12:51:38 2020.

 --------------------------------------------------------------------
 #N Geom=AllCheck Guess=TCheck SCRF=Check GenChk RB3LYP/6-31G(d) Freq
 --------------------------------------------------------------------

 Structure from the checkpoint file:  "JID_9710.chk"
 ------------------------------
 CID_79182622_JID_9710_neutraal
 ------------------------------
 Charge =  0 Multiplicity = 1

 SCF Done:  E(RB3LYP) =  -858.475282143     A.U. after    1 cycles

  Exact polarizability: 207.106  -2.910 200.895  22.655  -1.793  99.423
 Approx polarizability: 293.032  -7.556 338.530  47.317  -4.839 159.147

                      1                      2                      3
                      A                      A                      A
 Frequencies --     12.0304                50.1495                57.6741
 Red. masses --      4.5515                 4.7405                 4.9823
 Frc consts  --      0.0004                 0.0070                 0.0098
 IR Inten    --      0.0185                 0.1124                 0.0342

                      4                      5                      6
                      A                      A                      A
 Frequencies --    108.1872               110.3926               130.7820
 Red. masses --      6.6240                 4.2550                 3.3911
 Frc consts  --      0.0457                 0.0306                 0.0342
 IR Inten    --      5.0471                 1.6067                 1.9911

                      7                      8                      9
                      A                      A                      A
 Frequencies --    151.9805               182.0496               207.0566
 Red. masses --      4.6509                 3.6049                 2.3872
 Frc consts  --      0.0633                 0.0704                 0.0603
 IR Inten    --      2.7368                 0.2342                 2.8402

                     10                     11                     12
                      A                      A                      A
 Frequencies --    218.0583               243.8204               254.2474
 Red. masses --      1.2709                 2.6827                 3.9678
 Frc consts  --      0.0356                 0.0940                 0.1511
 IR Inten    --      1.8945                 4.3525                 5.5446

                     13                     14                     15
                      A                      A                      A
 Frequencies --    265.0293               318.0297               350.1344
 Red. masses --      2.5726                 3.2037                 3.8143
 Frc consts  --      0.1065                 0.1909                 0.2755
 IR Inten    --      3.4273                 4.8605                10.0609

                     16                     17                     18
                      A                      A                      A
 Frequencies --    386.2893               389.0339               422.1906
 Red. masses --      3.7711                 5.7410                 2.2314
 Frc consts  --      0.3315                 0.5119                 0.2343
 IR Inten    --      3.8643                 7.2957                 0.7734

                     19                     20                     21
                      A                      A                      A
 Frequencies --    440.8874               443.3449               462.1035
 Red. masses --      2.6587                 2.7797                 3.8655
 Frc consts  --      0.3045                 0.3219                 0.4863
 IR Inten    --      0.9418                 0.8453                 1.9863

                     22                     23                     24
                      A                      A                      A
 Frequencies --    537.4467               551.8776               580.8506
 Red. masses --      2.4472                 4.8735                 5.5575
 Frc consts  --      0.4165                 0.8745                 1.1047
 IR Inten    --      4.9065                38.7933                 1.5807

                     25                     26                     27
                      A                      A                      A
 Frequencies --    602.8400               624.2934               661.1322
 Red. masses --      4.3992                 3.6351                 4.7127
 Frc consts  --      0.9420                 0.8347                 1.2137
 IR Inten    --      0.0860                 9.5861                 3.0287

                     28                     29                     30
                      A                      A                      A
 Frequencies --    699.5034               737.4785               779.6303
 Red. masses --      3.3120                 4.1262                 3.5395
 Frc consts  --      0.9548                 1.3222                 1.2676
 IR Inten    --     10.6104                21.5923                 0.4969

                     31                     32                     33
                      A                      A                      A
 Frequencies --    791.5585               812.9800               813.7346
 Red. masses --      2.3779                 2.5827                 3.6417
 Frc consts  --      0.8778                 1.0057                 1.4207
 IR Inten    --     31.1275                12.4007                 5.1516

                     34                     35                     36
                      A                      A                      A
 Frequencies --    830.5090               858.3803               862.2831
 Red. masses --      2.7850                 3.9301                 1.4487
 Frc consts  --      1.1318                 1.7061                 0.6347
 IR Inten    --      6.3184                34.9010                 9.1085

                     37                     38                     39
                      A                      A                      A
 Frequencies --    872.9595               895.3940               946.6518
 Red. masses --      3.1116                 1.7422                 1.3774
 Frc consts  --      1.3971                 0.8230                 0.7273
 IR Inten    --     22.6752                 1.4570                 0.1134

                     40                     41                     42
                      A                      A                      A
 Frequencies --    960.8643               976.7544              1021.7791
 Red. masses --      2.3460                 1.3082                 1.7823
 Frc consts  --      1.2761                 0.7353                 1.0963
 IR Inten    --     18.3674                 0.5873                 0.6060

                     43                     44                     45
                      A                      A                      A
 Frequencies --   1037.4901              1044.8535              1063.7158
 Red. masses --      2.7309                 3.7283                 2.3550
 Frc consts  --      1.7319                 2.3981                 1.5700
 IR Inten    --     23.5408                21.7733                16.3236

                     46                     47                     48
                      A                      A                      A
 Frequencies --   1072.6755              1077.6697              1092.0909
 Red. masses --      2.3744                 2.1076                 2.1184
 Frc consts  --      1.6097                 1.4422                 1.4886
 IR Inten    --      0.3351                 5.5438                23.4218

                     49                     50                     51
                      A                      A                      A
 Frequencies --   1105.8514              1142.5038              1149.0947
 Red. masses --      2.1210                 3.1658                 2.9086
 Frc consts  --      1.5282                 2.4347                 2.2628
 IR Inten    --      4.3332                73.2267                70.3597

                     52                     53                     54
                      A                      A                      A
 Frequencies --   1165.6526              1167.6261              1186.9066
 Red. masses --      1.5584                 1.5487                 1.7525
 Frc consts  --      1.2476                 1.2440                 1.4546
 IR Inten    --      3.1886                20.6117                13.4414

                     55                     56                     57
                      A                      A                      A
 Frequencies --   1204.3702              1239.6275              1255.0653
 Red. masses --      1.5974                 1.9650                 1.7292
 Frc consts  --      1.3652                 1.7791                 1.6048
 IR Inten    --    128.2358                18.3950                 1.4562

                     58                     59                     60
                      A                      A                      A
 Frequencies --   1285.1258              1295.0084              1328.3158
 Red. masses --      1.7640                 1.2318                 1.5207
 Frc consts  --      1.7165                 1.2171                 1.5809
 IR Inten    --      1.0961                13.5473                27.8383

                     61                     62                     63
                      A                      A                      A
 Frequencies --   1350.6129              1363.4407              1374.3458
 Red. masses --      1.5693                 2.2723                 2.3637
 Frc consts  --      1.6866                 2.4888                 2.6305
 IR Inten    --     33.9000                14.8536                18.1698

                     64                     65                     66
                      A                      A                      A
 Frequencies --   1378.6580              1386.2196              1399.9098
 Red. masses --      1.5359                 1.4264                 2.2030
 Frc consts  --      1.7200                 1.6149                 2.5436
 IR Inten    --      3.4608                 1.5925                 2.8596

                     67                     68                     69
                      A                      A                      A
 Frequencies --   1404.6027              1414.9244              1419.3489
 Red. masses --      1.5755                 1.5969                 1.3735
 Frc consts  --      1.8314                 1.8836                 1.6303
 IR Inten    --      4.0213                22.0073                 1.0498

                     70                     71                     72
                      A                      A                      A
 Frequencies --   1431.6732              1435.7472              1464.3097
 Red. masses --      1.5579                 1.4450                 1.7829
 Frc consts  --      1.8814                 1.7550                 2.2524
 IR Inten    --     68.8410                19.8777                 8.7178

                     73                     74                     75
                      A                      A                      A
 Frequencies --   1477.7453              1487.5254              1494.9957
 Red. masses --      3.4340                 1.1262                 1.0846
 Frc consts  --      4.4182                 1.4683                 1.4283
 IR Inten    --     85.4610                 3.3064                 1.1677

                     76                     77                     78
                      A                      A                      A
 Frequencies --   1502.4206              1509.8583              1518.5406
 Red. masses --      1.0654                 1.1416                 1.1853
 Frc consts  --      1.4169                 1.5334                 1.6104
 IR Inten    --     24.2735                 4.7418                13.0620

                     79                     80                     81
                      A                      A                      A
 Frequencies --   1532.8210              1534.0114              1549.6623
 Red. masses --      2.6568                 1.0956                 1.0737
 Frc consts  --      3.6779                 1.5190                 1.5191
 IR Inten    --      1.0428                 2.6679                 9.9577

                     82                     83                     84
                      A                      A                      A
 Frequencies --   1571.6673              1625.2079              1655.1540
 Red. masses --      5.0082                 6.3306                 6.8474
 Frc consts  --      7.2888                 9.8518                11.0523
 IR Inten    --    242.2130                 7.7301                27.0379

                     85                     86                     87
                      A                      A                      A
 Frequencies --   1776.6542              2910.1222              2981.1151
 Red. masses --      8.9939                 1.0826                 1.0576
 Frc consts  --     16.7265                 5.4020                 5.5379
 IR Inten    --    325.5295               134.8455                52.9635

                     88                     89                     90
                      A                      A                      A
 Frequencies --   3014.3085              3029.9059              3036.3819
 Red. masses --      1.0692                 1.0681                 1.0640
 Frc consts  --      5.7239                 5.7775                 5.7798
 IR Inten    --     54.2924                11.7371                60.1364

                     91                     92                     93
                      A                      A                      A
 Frequencies --   3056.4582              3067.9785              3088.0308
 Red. masses --      1.0847                 1.0815                 1.0672
 Frc consts  --      5.9705                 5.9979                 5.9959
 IR Inten    --     49.4038                53.9912                26.0997

                     94                     95                     96
                      A                      A                      A
 Frequencies --   3093.4855              3107.6489              3109.5394
 Red. masses --      1.1015                 1.0967                 1.0957
 Frc consts  --      6.2108                 6.2405                 6.2421
 IR Inten    --     38.9427                25.3074                53.8477

                     97                     98                     99
                      A                      A                      A
 Frequencies --   3147.2352              3174.1622              3184.7410
 Red. masses --      1.0971                 1.0981                 1.0889
 Frc consts  --      6.4027                 6.5187                 6.5072
 IR Inten    --     25.0757                 3.5343                14.4088

                    100                    101                    102
                      A                      A                      A
 Frequencies --   3201.9917              3220.2775              3281.1964
 Red. masses --      1.0896                 1.0962                 1.0967
 Frc consts  --      6.5822                 6.6978                 6.9567
 IR Inten    --     10.4010                20.0281                 3.3416

 - Thermochemistry -
 -------------------
 Temperature   298.150 Kelvin.  Pressure   1.00000 Atm.
 Atom     1 has atomic number  6 and mass  12.00000

 Molecular mass:   259.13208 amu.
 Principal axes and moments of inertia in atomic units:
                           1         2         3
     Eigenvalues --  2923.322497019.579069171.36016
           X            0.99998   0.00618   0.00256
           Y           -0.00620   0.99997   0.00465
           Z           -0.00253  -0.00466   0.99999
 This molecule is an asymmetric top.
 Rotational symmetry number  1.
 Warning -- assumption of classical behavior for rotation
           may cause significant error
 Rotational temperatures (Kelvin)      0.02963     0.01234     0.00944
 Rotational constants (GHZ):           0.61736     0.25710     0.19678
 Zero-point vibrational energy     791333.6 (Joules/Mol)
                                  189.13328 (Kcal/Mol)
 Warning -- explicit consideration of  25 degrees of freedom as
           vibrations may cause significant error
 Vibrational temperatures:     17.31    72.15    82.98   155.66   158.83
          (Kelvin)            188.17   218.67   261.93   297.91   313.74
                              350.80   365.81   381.32   457.57   503.77
                              555.78   559.73   607.44   634.34   637.87
                              664.86   773.27   794.03   835.71   867.35
                              898.22   951.22  1006.43  1061.07  1121.71
                             1138.88  1169.70  1170.78  1194.92  1235.02
                             1240.63  1255.99  1288.27  1362.02  1382.47
                             1405.33  1470.11  1492.72  1503.31  1530.45
                             1543.34  1550.53  1571.28  1591.07  1643.81
                             1653.29  1677.11  1679.95  1707.69  1732.82
                             1783.55  1805.76  1849.01  1863.23  1911.15
                             1943.23  1961.69  1977.38  1983.58  1994.46
                             2014.16  2020.91  2035.76  2042.13  2059.86
                             2065.72  2106.82  2126.15  2140.22  2150.97
                             2161.65  2172.35  2184.84  2205.39  2207.10
                             2229.62  2261.28  2338.31  2381.40  2556.21
                             4187.02  4289.16  4336.92  4359.36  4368.68
                             4397.56  4414.14  4442.99  4450.84  4471.21
                             4473.93  4528.17  4566.91  4582.13  4606.95
                             4633.26  4720.91

 Zero-point correction=                           0.301403 (Hartree/Particle)
 Thermal correction to Energy=                    0.317661
 Thermal correction to Enthalpy=                  0.318605
 Thermal correction to Gibbs Free Energy=         0.256252
 Sum of electronic and zero-point Energies=           -858.173879
 Sum of electronic and thermal Energies=              -858.157622
 Sum of electronic and thermal Enthalpies=            -858.156677
 Sum of electronic and thermal Free Energies=         -858.219030

                     E (Thermal)             CV                S
                      KCal/Mol        Cal/Mol-Kelvin    Cal/Mol-Kelvin
 Total                  199.335             63.354            131.233
 Electronic               0.000              0.000              0.000
 Translational            0.889              2.981             42.556
 Rotational               0.889              2.981             33.598
 Vibrational            197.558             57.393             55.079
 Vibration     1          0.593              1.987              7.644
 Vibration     2          0.595              1.978              4.811
 Vibration     3          0.596              1.974              4.535
 Vibration     4          0.606              1.943              3.301
 Vibration     5          0.606              1.941              3.262
 Vibration     6          0.612              1.923              2.935
 Vibration     7          0.619              1.900              2.647
 Vibration     8          0.630              1.864              2.307
 Vibration     9          0.641              1.830              2.069
 Vibration    10          0.646              1.814              1.975
 Vibration    11          0.659              1.773              1.775
 Vibration    12          0.665              1.756              1.701
 Vibration    13          0.671              1.737              1.628
 Vibration    14          0.704              1.639              1.320
 Vibration    15          0.727              1.575              1.166
 Vibration    16          0.755              1.499              1.014
 Vibration    17          0.757              1.494              1.004
 Vibration    18          0.785              1.422              0.885
 Vibration    19          0.801              1.381              0.824
 Vibration    20          0.803              1.376              0.816
 Vibration    21          0.820              1.334              0.760
 Vibration    22          0.892              1.167              0.571
 Vibration    23          0.907              1.136              0.540
 Vibration    24          0.938              1.073              0.484
 Vibration    25          0.961              1.026              0.445

 Optimization completed.
    -- Stationary point found.
 Normal termination of Gaussian 16 at Sun Dec 13 13:11:54 2020.

 ----------------------------------------------------------------------
 # B3LYP/6-311++G(d,p) empiricaldispersion=gd3bj scf=xqc pop=npa geom=c
 heck
 ----------------------------------------------------------------------

 --------------------------------------
 CID_79182622_JID_9710_Energie_neutraal
 --------------------------------------
 Structure from the checkpoint file:  "JID_9710.chk"
 Charge =  0 Multiplicity = 1

 SCF Done:  E(RB3LYP) =  -858.704176297     A.U. after   16 cycles
 Normal termination of Gaussian 16 at Sun Dec 13 13:21:36 2020.

 ----------------------------------------------------------------------
 # B3LYP/6-311++G(d,p) empiricaldispersion=gd3bj scf=xqc pop=npa geom=c
 heck
 ----------------------------------------------------------------------

 ------------------------------------
 CID_79182622_JID_9710_Energie_kation
 ------------------------------------
 Structure from the checkpoint file:  "JID_9710.chk"
 Charge =  1 Multiplicity = 2

 SCF Done:  E(UB3LYP) =  -858.425154888     A.U. after   27 cycles
 Normal termination of Gaussian 16 at Sun Dec 13 13:44:48 2020.
 Gaussian 16:  ES64L-G16RevA.03 25-Dec-2016

 ----------------------------------------------------------------------
 # B3LYP/6-311++G(d,p) empiricaldispersion=gd3bj scf=xqc pop=npa geom=c
 heck
 ----------------------------------------------------------------------

 -----------------------------------
 CID_79182622_JID_9710_Energie_anion
 -----------------------------------
 Structure from the checkpoint file:  "JID_9710.chk"
 Charge = -1 Multiplicity = 2

                         Standard orientation:
 ---------------------------------------------------------------------
 Center     Atomic      Atomic             Coordinates (Angstroms)
 Number     Number       Type             X           Y           Z
 ---------------------------------------------------------------------
      1          6           0       -2.631410    1.900405    0.354714
      2          7           0       -2.991163    0.668766    1.043611
      3          6           0       -4.194889    0.023793    0.527239
      4          6           0       -3.906064   -0.797956   -0.726057
      5          8           0       -2.918684   -1.795697   -0.450971
      6          6           0       -1.693539   -1.286679    0.070556
      7          6           0       -1.932807   -0.316415    1.245986
      8          6           0       -0.822640   -0.734645   -1.078749
      9          7           0        0.559620   -0.543437   -0.658544
     10          6           0        1.452562   -1.531778   -0.351895
     11          6           0        2.658745   -0.989354    0.064120
     12          6           0        2.498886    0.443766    0.012278
     13          6           0        1.174434    0.686627   -0.443824
     14          7           0        0.599212    1.866660   -0.646813
     15          6           0        1.378643    2.921076   -0.378655
     16          6           0        2.703604    2.821776    0.080514
     17          6           0        3.282684    1.571362    0.281389
     18          6           0        3.823682   -1.765474    0.457876
     19          8           0        3.870869   -2.986357    0.469969
     20          1           0       -2.480953    1.814539   -0.734545
     21          1           0       -1.700049    2.290262    0.771203
     22          1           0       -3.424922    2.638759    0.522753
     23          1           0       -4.588400   -0.649764    1.301049
     24          1           0       -4.955303    0.787070    0.325188
     25          1           0       -3.579443   -0.145968   -1.550641
     26          1           0       -4.790104   -1.347962   -1.061952
     27          1           0       -1.177636   -2.170669    0.465187
     28          1           0       -1.002610    0.199718    1.504488
     29          1           0       -2.219940   -0.930372    2.110693
     30          1           0       -0.850352   -1.450350   -1.906032
     31          1           0       -1.174747    0.230800   -1.440857
     32          1           0        1.191373   -2.575783   -0.451493
     33          1           0        0.928396    3.898041   -0.537667
     34          1           0        3.268058    3.728020    0.274439
     35          1           0        4.305869    1.480842    0.633799
     36          1           0        4.708256   -1.163694    0.761669
 ---------------------------------------------------------------------

 SCF Done:  E(UB3LYP) =  -858.716704327     A.U. after   33 cycles
 SCF Done:  E(UB3LYP) =  -858.716704326     a.u. after    1 cycles

 The electronic state is 2-A.
 Alpha  occ. eigenvalues --  -19.03567 -18.93576 -14.22460 -14.21507 -14.16530
 Alpha  occ. eigenvalues --  -10.13270 -10.12365 -10.11229 -10.09872 -10.09782
 Alpha  occ. eigenvalues --  -10.09348 -10.09129 -10.07796 -10.06452 -10.04213
 Alpha  occ. eigenvalues --  -10.03972 -10.03971 -10.03861 -10.01388  -0.95047
 Alpha  occ. eigenvalues --   -0.87019  -0.86467  -0.83217  -0.79434  -0.70522
 Alpha  occ. eigenvalues --   -0.67979  -0.64867  -0.62973  -0.60091  -0.59139
 Alpha  occ. eigenvalues --   -0.56762  -0.53771  -0.50561  -0.49412  -0.47206
 Alpha  occ. eigenvalues --   -0.44994  -0.42293  -0.40816  -0.39530  -0.38523
 Alpha  occ. eigenvalues --   -0.38194  -0.37711  -0.35840  -0.35290  -0.34692
 Alpha  occ. eigenvalues --   -0.33065  -0.32314  -0.31381  -0.30621  -0.30125
 Alpha  occ. eigenvalues --   -0.28810  -0.28316  -0.27650  -0.27453  -0.26827
 Alpha  occ. eigenvalues --   -0.26313  -0.25703  -0.25496  -0.23795  -0.23085
 Alpha  occ. eigenvalues --   -0.22462  -0.21460  -0.18317  -0.16900  -0.13692
 Alpha  occ. eigenvalues --   -0.11600  -0.10702  -0.09314  -0.08517   0.04476
 Alpha virt. eigenvalues --    0.06218   0.08141   0.08286   0.08755   0.09485
 Alpha virt. eigenvalues --    0.09671   0.10355   0.10954   0.11255   0.11572
 Alpha virt. eigenvalues --    0.11966   0.12391   0.13374   0.13567   0.13952

  Beta  occ. eigenvalues --  -19.03566 -18.93315 -14.22384 -14.21506 -14.16242
  Beta  occ. eigenvalues --  -10.13269 -10.12357 -10.11229 -10.09872 -10.09782
  Beta  occ. eigenvalues --  -10.09375 -10.09128 -10.07567 -10.06398 -10.04253
  Beta  occ. eigenvalues --  -10.03968 -10.03616 -10.03361 -10.01437  -0.95043
  Beta  occ. eigenvalues --   -0.86600  -0.86086  -0.83215  -0.79036  -0.70425
  Beta  occ. eigenvalues --   -0.67827  -0.64677  -0.62934  -0.59656  -0.58962
  Beta  occ. eigenvalues --   -0.56748  -0.53684  -0.49930  -0.49122  -0.47032
  Beta  occ. eigenvalues --   -0.44796  -0.42178  -0.40674  -0.39445  -0.38511
  Beta  occ. eigenvalues --   -0.38113  -0.37577  -0.35632  -0.35146  -0.34518
  Beta  occ. eigenvalues --   -0.33042  -0.32259  -0.31172  -0.30292  -0.30072
  Beta  occ. eigenvalues --   -0.28534  -0.28278  -0.27421  -0.27312  -0.26714
  Beta  occ. eigenvalues --   -0.26171  -0.25597  -0.25356  -0.22908  -0.22454
  Beta  occ. eigenvalues --   -0.22363  -0.20473  -0.18097  -0.15873  -0.13402
  Beta  occ. eigenvalues --   -0.11558  -0.09943  -0.09086  -0.06871
  Beta virt. eigenvalues --    0.06170   0.08086   0.08192   0.08712   0.09434
  Beta virt. eigenvalues --    0.10258   0.10325   0.10922   0.11208   0.11590
  Beta virt. eigenvalues --    0.11781   0.11951   0.12350   0.13499   0.13638

 Mulliken charges and spin densities:
               1          2
     1  C   -0.468390  -0.007264
     2  N    0.027988   0.000920
     3  C   -0.281847  -0.000261
     4  C   -0.178023  -0.002119
     5  O   -0.062519   0.003447
     6  C   -0.246285  -0.077921
     7  C   -0.300136   0.003708
     8  C   -0.449971  -0.010715
     9  N    0.423108  -0.006315
    10  C   -0.353835   0.515769
    11  C    0.625425   0.008697
    12  C    2.009869  -0.058972
    13  C   -1.513947  -0.067137
    14  N   -0.052971   0.131400
    15  C   -0.244979   0.055242
    16  C    0.006480   0.032297
    17  C   -1.582880   0.158443
    18  C   -0.418700   0.162785
    19  O   -0.371950   0.091647
    20  H    0.137753   0.004986
    21  H    0.220852  -0.001830
    22  H    0.112311   0.001620
    23  H    0.152475   0.001754
    24  H    0.113921   0.003437
    25  H    0.128455   0.001734
    26  H    0.158148   0.005376
    27  H    0.196074   0.023796
    28  H    0.190547   0.003023
    29  H    0.172851  -0.002331
    30  H    0.117797   0.101664
    31  H    0.188894  -0.006439
    32  H    0.138598  -0.038070
    33  H    0.124512  -0.002739
    34  H    0.129560  -0.000077
    35  H    0.096620  -0.016272
    36  H    0.054199  -0.013282
 Sum of Mulliken charges =  -1.00000   1.00000

 Dipole moment (field-independent basis, Debye):
    X=             -9.8731    Y=              4.3122    Z=             -0.2449  Tot=             10.7765
 Quadrupole moment (field-independent basis, Debye-Ang):
   XX=           -160.4030   YY=           -154.1889   ZZ=           -125.4413
   XY=             18.2839   XZ=              1.2081   YZ=              2.0343

 Summary of Natural Population Analysis:

                                       Natural Population
                Natural  -----------------------------------------------
    Atom  No    Charge         Core      Valence    Rydberg      Total
 -----------------------------------------------------------------------
      C    1   -0.17673      0.99965     2.16975    0.00733     3.17673
      N    2   -0.28086      0.99974     2.76733    0.01379     3.78086
      C    3   -0.09682      0.99962     2.08819    0.00901     3.09682
      C    4   -0.02130      0.99958     2.01125    0.01046     3.02130
      O    5   -0.30511      0.99989     3.29517    0.01005     4.30511
      C    6    0.05299      0.99955     1.93193    0.01552     2.94701
      C    7   -0.09818      0.99960     2.08811    0.01047     3.09818
      C    8   -0.09876      0.99959     2.08634    0.01283     3.09876
      N    9   -0.21847      0.99963     2.70620    0.01264     3.71847
      C   10    0.20460      0.99953     1.78429    0.01157     2.79540
      C   11   -0.15258      0.99951     2.13664    0.01643     3.15258
      C   12   -0.05416      0.99947     2.04554    0.00915     3.05416
      C   13    0.18420      0.99948     1.80054    0.01578     2.81580
      N   14   -0.22684      0.99966     2.71424    0.01293     3.72684
      C   15    0.01427      0.99962     1.97135    0.01477     2.98573
      C   16   -0.14302      0.99958     2.13464    0.00880     3.14302
      C   17   -0.04609      0.99954     2.03806    0.00849     3.04609
      C   18    0.23492      0.99966     1.74530    0.02012     2.76508
      O   19   -0.28871      0.99988     3.28003    0.00880     4.28871
      H   20    0.08181      0.00000     0.41668    0.00151     0.41819
      H   21    0.10882      0.00000     0.39024    0.00094     0.39118
      H   22    0.08504      0.00000     0.41407    0.00089     0.41496
      H   23    0.09255      0.00000     0.40621    0.00124     0.40745
      H   24    0.09352      0.00000     0.40543    0.00105     0.40648
      H   25    0.07836      0.00000     0.41983    0.00182     0.42164
      H   26    0.08751      0.00000     0.41133    0.00116     0.41249
      H   27    0.09762      0.00000     0.40124    0.00114     0.40238
      H   28    0.11095      0.00000     0.38815    0.00090     0.38905
      H   29    0.09268      0.00000     0.40635    0.00097     0.40732
      H   30    0.09935      0.00000     0.39892    0.00173     0.40065
      H   31    0.10779      0.00000     0.39047    0.00174     0.39221
      H   32    0.08873      0.00000     0.40943    0.00184     0.41127
      H   33    0.07887      0.00000     0.41996    0.00118     0.42113
      H   34    0.09272      0.00000     0.40624    0.00104     0.40728
      H   35    0.09207      0.00000     0.40627    0.00166     0.40793
      H   36    0.03234      0.00000     0.46507    0.00259     0.46766
 =======================================================================
   * Total *    0.00405     18.99280    49.75080    0.25235    68.99595

 Normal termination of Gaussian 16 at Sun Dec 13 14:12:56 2020.
