 Gaussian 16, Revision A.03,

 -----------------------------------------------------------
 # opt freq B3LYP/6-31G(d) empiricaldispersion=gd3bj scf=xqc
 -----------------------------------------------------------

 ------------------------------
 CID_11521140_JID_2642_neutraal
 ------------------------------
 Symbolic Z-matrix:
 Charge =  0 Multiplicity = 1

 SCF Done:  E(RB3LYP) =  -584.392221677     A.U. after   15 cycles
 SCF Done:  E(RB3LYP) =  -584.396010948     A.U. after   12 cycles
 SCF Done:  E(RB3LYP) =  -584.396290123     A.U. after   12 cycles
 SCF Done:  E(RB3LYP) =  -584.395518045     A.U. after   13 cycles
 SCF Done:  E(RB3LYP) =  -584.396308422     A.U. after   10 cycles
 SCF Done:  E(RB3LYP) =  -584.396309916     A.U. after    9 cycles
 Optimization completed.
    -- Stationary point found.
 Normal termination of Gaussian 16 at Wed Dec  9 17:44:17 2020.

 --------------------------------------------------------------------
 #N Geom=AllCheck Guess=TCheck SCRF=Check GenChk RB3LYP/6-31G(d) Freq
 --------------------------------------------------------------------

 Structure from the checkpoint file:  "JID_2642.chk"
 ------------------------------
 CID_11521140_JID_2642_neutraal
 ------------------------------
 Charge =  0 Multiplicity = 1

 SCF Done:  E(RB3LYP) =  -584.396309916     A.U. after    1 cycles

  Exact polarizability: 158.038  -5.342 100.597   0.002   0.000  34.371
 Approx polarizability: 261.742  -6.239 206.461   0.008  -0.010  54.369

                      1                      2                      3
                      A                      A                      A
 Frequencies --     59.2391               110.5962               212.0721
 Red. masses --     11.4775                 6.2925                 7.8630
 Frc consts  --      0.0237                 0.0453                 0.2084
 IR Inten    --      0.0442                 0.0177                 0.3889

                      4                      5                      6
                      A                      A                      A
 Frequencies --    244.6173               302.6386               359.8614
 Red. masses --      4.3039                 6.5185                10.7699
 Frc consts  --      0.1517                 0.3518                 0.8217
 IR Inten    --      4.0084                14.2398                 0.4256

                      7                      8                      9
                      A                      A                      A
 Frequencies --    417.5897               432.6779               498.4013
 Red. masses --      5.6552                 3.4222                 1.4587
 Frc consts  --      0.5810                 0.3775                 0.2135
 IR Inten    --      4.1105                 6.2713                74.7037

                     10                     11                     12
                      A                      A                      A
 Frequencies --    553.2063               585.1426               613.0899
 Red. masses --      6.3467                 3.0127                 8.0903
 Frc consts  --      1.1444                 0.6078                 1.7917
 IR Inten    --      7.0452                 4.7738                 0.2723

                     13                     14                     15
                      A                      A                      A
 Frequencies --    623.3402               692.8085               737.2963
 Red. masses --      3.0812                 8.8161                 1.4866
 Frc consts  --      0.7054                 2.4932                 0.4761
 IR Inten    --      1.3741                20.5396                40.6811

                     16                     17                     18
                      A                      A                      A
 Frequencies --    760.1777               798.6049               808.1509
 Red. masses --      5.2650                 7.1716                 5.1030
 Frc consts  --      1.7926                 2.6948                 1.9636
 IR Inten    --     41.5056                20.3198                 0.1686

                     19                     20                     21
                      A                      A                      A
 Frequencies --    844.5700               871.3575               910.6503
 Red. masses --      7.3749                 1.2888                 4.1915
 Frc consts  --      3.0994                 0.5765                 2.0479
 IR Inten    --     19.2336                 0.2395                 4.0348

                     22                     23                     24
                      A                      A                      A
 Frequencies --    948.9463               954.5146               985.2287
 Red. masses --      1.3836                 1.4881                 4.9936
 Frc consts  --      0.7341                 0.7988                 2.8559
 IR Inten    --      0.0554                18.3431                 4.0020

                     25                     26                     27
                      A                      A                      A
 Frequencies --   1095.4176              1110.3546              1118.2445
 Red. masses --      1.7728                 2.1725                 1.1942
 Frc consts  --      1.2534                 1.5781                 0.8798
 IR Inten    --     16.5148                42.4411                10.9092

                     28                     29                     30
                      A                      A                      A
 Frequencies --   1228.3874              1272.6367              1321.8691
 Red. masses --      3.5365                 1.4322                 2.1648
 Frc consts  --      3.1441                 1.3667                 2.2286
 IR Inten    --      0.7070                 8.1300                 4.7135

                     31                     32                     33
                      A                      A                      A
 Frequencies --   1374.6683              1378.6945              1395.7834
 Red. masses --      7.6302                 2.4236                11.2009
 Frc consts  --      8.4954                 2.7143                12.8570
 IR Inten    --     72.8790                38.2189               449.2812

                     34                     35                     36
                      A                      A                      A
 Frequencies --   1450.5338              1462.5092              1531.7903
 Red. masses --      3.4842                 3.2664                 4.7942
 Frc consts  --      4.3193                 4.1164                 6.6278
 IR Inten    --     20.8775                25.8569                17.5407

                     37                     38                     39
                      A                      A                      A
 Frequencies --   1554.9785              1616.8726              1647.3604
 Red. masses --      4.7753                 6.4338                 8.7872
 Frc consts  --      6.8030                 9.9099                14.0500
 IR Inten    --      8.2505                27.1262               142.3520

                     40                     41                     42
                      A                      A                      A
 Frequencies --   1664.0809              3239.9009              3249.0866
 Red. masses --      7.7162                 1.0914                 1.0920
 Frc consts  --     12.5894                 6.7500                 6.7921
 IR Inten    --     96.5407                 0.0602                 1.3593

                     43                     44                     45
                      A                      A                      A
 Frequencies --   3269.8370              3288.4797              3661.8261
 Red. masses --      1.0908                 1.1037                 1.0806
 Frc consts  --      6.8716                 7.0319                 8.5368
 IR Inten    --      0.8655                 1.8336                98.3186

 - Thermochemistry -
 -------------------
 Temperature   298.150 Kelvin.  Pressure   1.00000 Atm.
 Atom     1 has atomic number  6 and mass  12.00000

 Molecular mass:   163.03818 amu.
 Principal axes and moments of inertia in atomic units:
                           1         2         3
     Eigenvalues --   656.469232947.589053604.05817
           X            0.99996  -0.00845  -0.00000
           Y            0.00845   0.99996   0.00001
           Z            0.00000  -0.00001   1.00000
 This molecule is an asymmetric top.
 Rotational symmetry number  1.
 Warning -- assumption of classical behavior for rotation
           may cause significant error
 Rotational temperatures (Kelvin)      0.13194     0.02938     0.02403
 Rotational constants (GHZ):           2.74916     0.61228     0.50075
 Zero-point vibrational energy     318554.1 (Joules/Mol)
                                   76.13626 (Kcal/Mol)
 Warning -- explicit consideration of  12 degrees of freedom as
           vibrations may cause significant error
 Vibrational temperatures:     85.23   159.12   305.12   351.95   435.43
          (Kelvin)            517.76   600.82   622.53   717.09   795.94
                              841.89   882.10   896.85   996.80  1060.80
                             1093.73  1149.01  1162.75  1215.15  1253.69
                             1310.22  1365.32  1373.33  1417.52  1576.06
                             1597.55  1608.90  1767.38  1831.04  1901.87
                             1977.84  1983.63  2008.22  2086.99  2104.22
                             2203.90  2237.27  2326.32  2370.18  2394.24
                             4661.49  4674.71  4704.57  4731.39  5268.55

 Zero-point correction=                           0.121331 (Hartree/Particle)
 Thermal correction to Energy=                    0.129879
 Thermal correction to Enthalpy=                  0.130823
 Thermal correction to Gibbs Free Energy=         0.086995
 Sum of electronic and zero-point Energies=           -584.274979
 Sum of electronic and thermal Energies=              -584.266431
 Sum of electronic and thermal Enthalpies=            -584.265487
 Sum of electronic and thermal Free Energies=         -584.309315

                     E (Thermal)             CV                S
                      KCal/Mol        Cal/Mol-Kelvin    Cal/Mol-Kelvin
 Total                   81.500             33.521             92.244
 Electronic               0.000              0.000              0.000
 Translational            0.889              2.981             41.175
 Rotational               0.889              2.981             30.323
 Vibrational             79.723             27.559             20.746
 Vibration     1          0.597              1.974              4.482
 Vibration     2          0.606              1.941              3.258
 Vibration     3          0.643              1.822              2.026
 Vibration     4          0.660              1.772              1.769
 Vibration     5          0.694              1.669              1.402
 Vibration     6          0.734              1.555              1.123
 Vibration     7          0.781              1.432              0.900
 Vibration     8          0.794              1.399              0.850
 Vibration     9          0.854              1.254              0.662
 Vibration    10          0.909              1.133              0.538
 Vibration    11          0.942              1.063              0.476
 Vibration    12          0.972              1.004              0.428

 Optimization completed.
    -- Stationary point found.
 Normal termination of Gaussian 16 at Wed Dec  9 17:47:37 2020.

 ----------------------------------------------------------------------
 # B3LYP/6-311++G(d,p) empiricaldispersion=gd3bj scf=xqc pop=npa geom=c
 heck
 ----------------------------------------------------------------------

 --------------------------------------
 CID_11521140_JID_2642_Energie_neutraal
 --------------------------------------
 Structure from the checkpoint file:  "JID_2642.chk"
 Charge =  0 Multiplicity = 1

 SCF Done:  E(RB3LYP) =  -584.558765939     A.U. after   16 cycles
 Normal termination of Gaussian 16 at Wed Dec  9 17:49:49 2020.

 ----------------------------------------------------------------------
 # B3LYP/6-311++G(d,p) empiricaldispersion=gd3bj scf=xqc pop=npa geom=c
 heck
 ----------------------------------------------------------------------

 ------------------------------------
 CID_11521140_JID_2642_Energie_kation
 ------------------------------------
 Structure from the checkpoint file:  "JID_2642.chk"
 Charge =  1 Multiplicity = 2

 SCF Done:  E(UB3LYP) =  -584.231604791     A.U. after   28 cycles
 Normal termination of Gaussian 16 at Wed Dec  9 17:54:32 2020.
 Gaussian 16:  ES64L-G16RevA.03 25-Dec-2016

 ----------------------------------------------------------------------
 # B3LYP/6-311++G(d,p) empiricaldispersion=gd3bj scf=xqc pop=npa geom=c
 heck
 ----------------------------------------------------------------------

 -----------------------------------
 CID_11521140_JID_2642_Energie_anion
 -----------------------------------
 Structure from the checkpoint file:  "JID_2642.chk"
 Charge = -1 Multiplicity = 2

                         Standard orientation:
 ---------------------------------------------------------------------
 Center     Atomic      Atomic             Coordinates (Angstroms)
 Number     Number       Type             X           Y           Z
 ---------------------------------------------------------------------
      1          6           0        2.336067   -1.435500   -0.000355
      2          6           0        3.340239   -0.503434    0.000028
      3          7           0        2.797283    0.772610   -0.000021
      4          6           0        1.431619    0.681703    0.000028
      5          7           0        0.588114    1.715014    0.000195
      6          6           0       -0.701751    1.384949    0.000226
      7          6           0       -1.145573    0.047420    0.000150
      8          6           0       -0.259139   -1.026007    0.000055
      9          6           0        1.097802   -0.709337   -0.000053
     10          7           0       -2.581880   -0.218223    0.000174
     11          8           0       -2.947308   -1.395124    0.000412
     12          8           0       -3.344819    0.749167   -0.000757
     13          1           0        2.462807   -2.508496   -0.000614
     14          1           0        4.412090   -0.639012    0.000093
     15          1           0        3.306367    1.643929    0.000097
     16          1           0       -1.429135    2.188466    0.000289
     17          1           0       -0.635321   -2.041796   -0.000004
 ---------------------------------------------------------------------

 SCF Done:  E(UB3LYP) =  -584.592129267     A.U. after   23 cycles

 The electronic state is 2-A.
 Alpha  occ. eigenvalues --  -18.93650 -18.93421 -14.31227 -14.24267 -14.17724
 Alpha  occ. eigenvalues --  -10.09545 -10.09226 -10.06899 -10.05424 -10.04842
 Alpha  occ. eigenvalues --  -10.04670 -10.02801  -1.01593  -0.87562  -0.84429
 Alpha  occ. eigenvalues --   -0.79835  -0.69009  -0.64906  -0.61517  -0.54401
 Alpha  occ. eigenvalues --   -0.50715  -0.48265  -0.43608  -0.42062  -0.37055
 Alpha  occ. eigenvalues --   -0.35967  -0.34153  -0.33954  -0.31588  -0.31574
 Alpha  occ. eigenvalues --   -0.30314  -0.28166  -0.26720  -0.25781  -0.23055
 Alpha  occ. eigenvalues --   -0.18032  -0.14231  -0.12808  -0.11201  -0.11092
 Alpha  occ. eigenvalues --   -0.10400  -0.09396   0.03484
 Alpha virt. eigenvalues --    0.07121   0.09245   0.09425   0.10683   0.12570
 Alpha virt. eigenvalues --    0.13594   0.14394   0.14555   0.15484   0.16671
 Alpha virt. eigenvalues --    0.16819   0.18246   0.18344   0.18646   0.19893

  Beta  occ. eigenvalues --  -18.93251 -18.92873 -14.30576 -14.24292 -14.17744
  Beta  occ. eigenvalues --  -10.09352 -10.09202 -10.06892 -10.05389 -10.04781
  Beta  occ. eigenvalues --  -10.04740 -10.02385  -1.00531  -0.87462  -0.83532
  Beta  occ. eigenvalues --   -0.79788  -0.68719  -0.64518  -0.61270  -0.53545
  Beta  occ. eigenvalues --   -0.50512  -0.48151  -0.43138  -0.41793  -0.36934
  Beta  occ. eigenvalues --   -0.35393  -0.33747  -0.31816  -0.31409  -0.30501
  Beta  occ. eigenvalues --   -0.29737  -0.28097  -0.26458  -0.25595  -0.22688
  Beta  occ. eigenvalues --   -0.17160  -0.14165  -0.10795  -0.10266  -0.10015
  Beta  occ. eigenvalues --   -0.09169  -0.08918
  Beta virt. eigenvalues --    0.07100   0.09401   0.09737   0.10663   0.11105
  Beta virt. eigenvalues --    0.12565   0.13605   0.14584   0.14954   0.15467
  Beta virt. eigenvalues --    0.16807   0.18230   0.18282   0.18338   0.18685

 Mulliken charges and spin densities:
               1          2
     1  C   -0.339498   0.071005
     2  C   -0.117820   0.019453
     3  N   -0.165659  -0.010169
     4  C   -0.795657   0.090587
     5  N   -0.159435  -0.007244
     6  C    0.153341   0.034782
     7  C   -0.516360  -0.082798
     8  C   -0.292782   0.420453
     9  C    0.920562  -0.088286
    10  N   -0.264812   0.215847
    11  O   -0.191175   0.161530
    12  O   -0.211784   0.205900
    13  H    0.109195  -0.003679
    14  H    0.128061  -0.002382
    15  H    0.281413   0.000168
    16  H    0.246691  -0.001245
    17  H    0.215718  -0.023920
 Sum of Mulliken charges =  -1.00000   1.00000

 Dipole moment (field-independent basis, Debye):
    X=             10.0469    Y=              0.5937    Z=              0.0008  Tot=             10.0644
 Quadrupole moment (field-independent basis, Debye-Ang):
   XX=           -108.5089   YY=            -80.4766   ZZ=            -74.9549
   XY=             -1.3757   XZ=             -0.0033   YZ=              0.0037

 Summary of Natural Population Analysis:

                                       Natural Population
                Natural  -----------------------------------------------
    Atom  No    Charge         Core      Valence    Rydberg      Total
 -----------------------------------------------------------------------
      C    1   -0.12946      0.99954     2.12081    0.00910     3.12946
      C    2   -0.01555      0.99960     2.00416    0.01179     3.01555
      N    3   -0.28367      0.99965     2.77587    0.00815     3.78367
      C    4    0.21191      0.99950     1.77077    0.01782     2.78809
      N    5   -0.26587      0.99967     2.75465    0.01155     3.76587
      C    6    0.03131      0.99957     1.95426    0.01486     2.96869
      C    7    0.01619      0.99943     1.97365    0.01073     2.98381
      C    8    0.00850      0.99950     1.98230    0.00970     2.99150
      C    9   -0.08284      0.99951     2.07413    0.00920     3.08284
      N   10    0.30802      0.99972     2.16486    0.02740     3.19198
      O   11   -0.20859      0.99990     3.20068    0.00802     4.20859
      O   12   -0.18933      0.99990     3.18156    0.00786     4.18933
      H   13    0.09993      0.00000     0.39915    0.00092     0.40007
      H   14    0.09116      0.00000     0.40793    0.00091     0.40884
      H   15    0.19613      0.00000     0.30185    0.00202     0.30387
      H   16    0.10223      0.00000     0.39628    0.00150     0.39777
      H   17    0.10994      0.00000     0.38877    0.00129     0.39006
 =======================================================================
   * Total *   -0.00000     11.99548    29.85170    0.15282    42.00000

 Normal termination of Gaussian 16 at Wed Dec  9 17:58:59 2020.
