 Gaussian 16, Revision A.03,

 -----------------------------------------------------------
 # opt freq B3LYP/6-31G(d) empiricaldispersion=gd3bj scf=xqc
 -----------------------------------------------------------

 ------------------------------
 CID_87413842_JID_1951_neutraal
 ------------------------------
 Symbolic Z-matrix:
 Charge =  0 Multiplicity = 1

 SCF Done:  E(RB3LYP) =  -509.161192178     A.U. after   16 cycles
 SCF Done:  E(RB3LYP) =  -509.164110140     A.U. after   15 cycles
 SCF Done:  E(RB3LYP) =  -509.165068632     A.U. after   14 cycles
 SCF Done:  E(RB3LYP) =  -509.165163881     A.U. after   14 cycles
 SCF Done:  E(RB3LYP) =  -509.165180645     A.U. after   12 cycles
 SCF Done:  E(RB3LYP) =  -509.165184137     A.U. after    9 cycles
 Optimization completed.
    -- Stationary point found.
 Normal termination of Gaussian 16 at Tue Dec  8 21:37:14 2020.

 --------------------------------------------------------------------
 #N Geom=AllCheck Guess=TCheck SCRF=Check GenChk RB3LYP/6-31G(d) Freq
 --------------------------------------------------------------------

 Structure from the checkpoint file:  "JID_1951.chk"
 ------------------------------
 CID_87413842_JID_1951_neutraal
 ------------------------------
 Charge =  0 Multiplicity = 1

 SCF Done:  E(RB3LYP) =  -509.165184137     A.U. after    1 cycles

  Exact polarizability: 134.134  -2.520 113.229   0.000   0.000  32.982
 Approx polarizability: 260.341 -12.597 208.198   0.002   0.000  52.477

                      1                      2                      3
                      A                      A                      A
 Frequencies --    107.1075               193.8528               197.7927
 Red. masses --      8.2760                 6.4702                 8.5982
 Frc consts  --      0.0559                 0.1433                 0.1982
 IR Inten    --      0.0811                 1.6057                 1.0705

                      4                      5                      6
                      A                      A                      A
 Frequencies --    237.4719               269.2122               383.9642
 Red. masses --      6.9218                 4.2443                 7.2828
 Frc consts  --      0.2300                 0.1812                 0.6326
 IR Inten    --      0.0988                 1.1024                 2.3528

                      7                      8                      9
                      A                      A                      A
 Frequencies --    398.9715               476.3936               516.0881
 Red. masses --      1.3753                 6.1907                 4.1999
 Frc consts  --      0.1290                 0.8278                 0.6591
 IR Inten    --     74.3745                 1.9397                 0.0715

                     10                     11                     12
                      A                      A                      A
 Frequencies --    546.4391               594.9008               653.8746
 Red. masses --      8.3414                 3.9805                 6.4130
 Frc consts  --      1.4675                 0.8300                 1.6155
 IR Inten    --      2.6293                 0.0649                 5.6714

                     13                     14                     15
                      A                      A                      A
 Frequencies --    671.3478               760.9484               801.4117
 Red. masses --      3.2694                 1.9618                 7.6586
 Frc consts  --      0.8682                 0.6693                 2.8981
 IR Inten    --     35.4843                 7.0480                42.9944

                     16                     17                     18
                      A                      A                      A
 Frequencies --    815.5889               862.4935               880.3300
 Red. masses --      1.9025                 5.5027                 1.4295
 Frc consts  --      0.7456                 2.4118                 0.6527
 IR Inten    --     36.0585                 2.4979                16.2989

                     19                     20                     21
                      A                      A                      A
 Frequencies --    928.9377               956.6230               986.8136
 Red. masses --      1.3507                 4.1462                 1.3048
 Frc consts  --      0.6867                 2.2355                 0.7486
 IR Inten    --      0.4288                55.7896                 1.0861

                     22                     23                     24
                      A                      A                      A
 Frequencies --   1029.8199              1085.5214              1117.3777
 Red. masses --      4.8262                 1.8991                 3.6077
 Frc consts  --      3.0156                 1.3185                 2.6539
 IR Inten    --     78.7536                 8.9602                 8.1628

                     25                     26                     27
                      A                      A                      A
 Frequencies --   1192.6788              1218.1174              1241.8484
 Red. masses --      1.2461                 1.7709                 2.5560
 Frc consts  --      1.0444                 1.5482                 2.3224
 IR Inten    --     18.4291                92.1803                28.0427

                     28                     29                     30
                      A                      A                      A
 Frequencies --   1303.1010              1340.3035              1390.8509
 Red. masses --      2.0777                 3.5343                 3.8490
 Frc consts  --      2.0787                 3.7408                 4.3869
 IR Inten    --     34.6946                 8.2919                55.8343

                     31                     32                     33
                      A                      A                      A
 Frequencies --   1435.7869              1458.0261              1518.4003
 Red. masses --      2.6866                 4.2709                 3.6090
 Frc consts  --      3.2631                 5.3494                 4.9024
 IR Inten    --      1.8761                23.1406                63.3162

                     34                     35                     36
                      A                      A                      A
 Frequencies --   1526.0729              1600.7689              1644.2614
 Red. masses --      2.6794                 6.8286                 7.5357
 Frc consts  --      3.6766                10.3096                12.0038
 IR Inten    --      2.7242               131.5991                10.1294

                     37                     38                     39
                      A                      A                      A
 Frequencies --   1676.7756              3199.1115              3213.9930
 Red. masses --      7.7176                 1.0873                 1.0939
 Frc consts  --     12.7845                 6.5565                 6.6578
 IR Inten    --      6.5317                 3.4214                13.1322

                     40                     41                     42
                      A                      A                      A
 Frequencies --   3231.6081              3287.2543              3676.0772
 Red. masses --      1.0918                 1.0967                 1.0812
 Frc consts  --      6.7181                 6.9827                 8.6087
 IR Inten    --      2.8942                 0.9057                89.6565

 - Thermochemistry -
 -------------------
 Temperature   298.150 Kelvin.  Pressure   1.00000 Atm.
 Atom     1 has atomic number  6 and mass  12.00000

 Molecular mass:   147.04326 amu.
 Principal axes and moments of inertia in atomic units:
                           1         2         3
     Eigenvalues --   896.034391744.209632640.24401
           X            0.99995   0.00987  -0.00000
           Y           -0.00987   0.99995   0.00000
           Z            0.00000  -0.00000   1.00000
 This molecule is an asymmetric top.
 Rotational symmetry number  1.
 Warning -- assumption of classical behavior for rotation
           may cause significant error
 Rotational temperatures (Kelvin)      0.09666     0.04966     0.03281
 Rotational constants (GHZ):           2.01414     1.03470     0.68355
 Zero-point vibrational energy     302824.6 (Joules/Mol)
                                   72.37682 (Kcal/Mol)
 Warning -- explicit consideration of  11 degrees of freedom as
           vibrations may cause significant error
 Vibrational temperatures:    154.10   278.91   284.58   341.67   387.34
          (Kelvin)            552.44   574.03   685.42   742.54   786.20
                              855.93   940.78   965.92  1094.84  1153.05
                             1173.45  1240.94  1266.60  1336.53  1376.37
                             1419.80  1481.68  1561.82  1607.66  1716.00
                             1752.60  1786.74  1874.87  1928.40  2001.12
                             2065.78  2097.77  2184.64  2195.68  2303.15
                             2365.73  2412.51  4602.81  4624.22  4649.56
                             4729.63  5289.06

 Zero-point correction=                           0.115340 (Hartree/Particle)
 Thermal correction to Energy=                    0.123376
 Thermal correction to Enthalpy=                  0.124320
 Thermal correction to Gibbs Free Energy=         0.082244
 Sum of electronic and zero-point Energies=           -509.049844
 Sum of electronic and thermal Energies=              -509.041809
 Sum of electronic and thermal Enthalpies=            -509.040864
 Sum of electronic and thermal Free Energies=         -509.082940

                     E (Thermal)             CV                S
                      KCal/Mol        Cal/Mol-Kelvin    Cal/Mol-Kelvin
 Total                   77.419             31.278             88.556
 Electronic               0.000              0.000              0.000
 Translational            0.889              2.981             40.867
 Rotational               0.889              2.981             29.802
 Vibrational             75.642             25.317             17.887
 Vibration     1          0.606              1.944              3.321
 Vibration     2          0.635              1.848              2.191
 Vibration     3          0.637              1.843              2.154
 Vibration     4          0.656              1.783              1.822
 Vibration     5          0.674              1.730              1.601
 Vibration     6          0.753              1.504              1.024
 Vibration     7          0.765              1.472              0.966
 Vibration     8          0.833              1.302              0.720
 Vibration     9          0.871              1.214              0.619
 Vibration    10          0.902              1.147              0.552
 Vibration    11          0.953              1.043              0.459

 Optimization completed.
    -- Stationary point found.
 Normal termination of Gaussian 16 at Tue Dec  8 21:40:22 2020.

 ----------------------------------------------------------------------
 # B3LYP/6-311++G(d,p) empiricaldispersion=gd3bj scf=xqc pop=npa geom=c
 heck
 ----------------------------------------------------------------------

 --------------------------------------
 CID_87413842_JID_1951_Energie_neutraal
 --------------------------------------
 Structure from the checkpoint file:  "JID_1951.chk"
 Charge =  0 Multiplicity = 1

 SCF Done:  E(RB3LYP) =  -509.302051818     A.U. after   16 cycles
 Normal termination of Gaussian 16 at Tue Dec  8 21:41:52 2020.

 ----------------------------------------------------------------------
 # B3LYP/6-311++G(d,p) empiricaldispersion=gd3bj scf=xqc pop=npa geom=c
 heck
 ----------------------------------------------------------------------

 ------------------------------------
 CID_87413842_JID_1951_Energie_kation
 ------------------------------------
 Structure from the checkpoint file:  "JID_1951.chk"
 Charge =  1 Multiplicity = 2

 SCF Done:  E(UB3LYP) =  -508.995125070     A.U. after   26 cycles
 Normal termination of Gaussian 16 at Tue Dec  8 21:45:22 2020.
 Gaussian 16:  ES64L-G16RevA.03 25-Dec-2016

 ----------------------------------------------------------------------
 # B3LYP/6-311++G(d,p) empiricaldispersion=gd3bj scf=xqc pop=npa geom=c
 heck
 ----------------------------------------------------------------------

 -----------------------------------
 CID_87413842_JID_1951_Energie_anion
 -----------------------------------
 Structure from the checkpoint file:  "JID_1951.chk"
 Charge = -1 Multiplicity = 2

                         Standard orientation:
 ---------------------------------------------------------------------
 Center     Atomic      Atomic             Coordinates (Angstroms)
 Number     Number       Type             X           Y           Z
 ---------------------------------------------------------------------
      1          6           0        0.459882    2.210494   -0.000023
      2          6           0       -0.899891    1.907050    0.000001
      3          6           0       -1.261950    0.554060    0.000026
      4          6           0       -0.294731   -0.484479   -0.000047
      5          6           0       -1.057102   -1.689024   -0.000065
      6          7           0       -2.355650   -1.433232    0.000067
      7          7           0       -2.474137   -0.080015    0.000022
      8          6           0        1.073046   -0.140854   -0.000029
      9          6           0        1.438447    1.203716   -0.000020
     10          7           0        2.007839   -1.229534   -0.000172
     11          8           0        3.186168   -0.896849    0.000192
     12          1           0        0.768536    3.251466   -0.000071
     13          1           0       -1.647476    2.694442   -0.000024
     14          1           0       -0.701395   -2.708859   -0.000135
     15          1           0       -3.396973    0.325394    0.000253
     16          1           0        2.495393    1.446049   -0.000029
 ---------------------------------------------------------------------

 SCF Done:  E(UB3LYP) =  -509.354734095     A.U. after   24 cycles

 The electronic state is 2-A.
 Alpha  occ. eigenvalues --  -18.93293 -14.24987 -14.20271 -14.17925 -10.07493
 Alpha  occ. eigenvalues --  -10.05695 -10.04020 -10.03360 -10.03187 -10.02861
 Alpha  occ. eigenvalues --  -10.01357  -0.92446  -0.91250  -0.71588  -0.69389
 Alpha  occ. eigenvalues --   -0.62295  -0.61600  -0.52941  -0.48002  -0.47153
 Alpha  occ. eigenvalues --   -0.45927  -0.37723  -0.35410  -0.32336  -0.31903
 Alpha  occ. eigenvalues --   -0.31551  -0.29676  -0.28312  -0.25970  -0.23437
 Alpha  occ. eigenvalues --   -0.21875  -0.20579  -0.19469  -0.16716  -0.15559
 Alpha  occ. eigenvalues --   -0.11149  -0.08922  -0.01934   0.01662
 Alpha virt. eigenvalues --    0.08254   0.09859   0.11572   0.11636   0.12363
 Alpha virt. eigenvalues --    0.14079   0.15533   0.16191   0.16427   0.16792
 Alpha virt. eigenvalues --    0.18388   0.18860   0.19091   0.19911   0.21112

  Beta  occ. eigenvalues --  -18.92314 -14.24990 -14.20103 -14.17346 -10.07544
  Beta  occ. eigenvalues --  -10.05715 -10.04090 -10.03132 -10.03101 -10.02767
  Beta  occ. eigenvalues --  -10.01189  -0.91142  -0.90773  -0.71332  -0.69249
  Beta  occ. eigenvalues --   -0.61992  -0.61012  -0.51869  -0.47957  -0.46791
  Beta  occ. eigenvalues --   -0.45626  -0.37308  -0.35107  -0.32203  -0.31789
  Beta  occ. eigenvalues --   -0.31196  -0.29139  -0.28009  -0.23248  -0.22759
  Beta  occ. eigenvalues --   -0.21624  -0.18869  -0.18746  -0.16504  -0.14609
  Beta  occ. eigenvalues --   -0.10404  -0.07366  -0.00986
  Beta virt. eigenvalues --    0.08241   0.09195   0.09834   0.11577   0.12361
  Beta virt. eigenvalues --    0.12986   0.14067   0.15707   0.16422   0.16805
  Beta virt. eigenvalues --    0.17488   0.18880   0.18974   0.19427   0.19947

 Mulliken charges and spin densities:
               1          2
     1  C   -0.205884  -0.060663
     2  C   -0.783080   0.215719
     3  C    0.339673  -0.025125
     4  C    1.230028   0.086181
     5  C    0.105707  -0.025075
     6  N   -0.236913   0.082148
     7  N   -0.057642  -0.006006
     8  C   -0.993953  -0.003005
     9  C   -0.665252   0.162632
    10  N   -0.319900   0.267341
    11  O   -0.200114   0.338219
    12  H    0.114492   0.002612
    13  H    0.086217  -0.017059
    14  H    0.165514  -0.002652
    15  H    0.279215   0.000217
    16  H    0.141894  -0.015485
 Sum of Mulliken charges =  -1.00000   1.00000

 Dipole moment (field-independent basis, Debye):
    X=             -6.4250    Y=              4.1664    Z=              0.0001  Tot=              7.6576
 Quadrupole moment (field-independent basis, Debye-Ang):
   XX=            -95.0462   YY=            -77.1109   ZZ=            -70.0512
   XY=              1.3961   XZ=             -0.0019   YZ=             -0.0005

 Summary of Natural Population Analysis:

                                       Natural Population
                Natural  -----------------------------------------------
    Atom  No    Charge         Core      Valence    Rydberg      Total
 -----------------------------------------------------------------------
      C    1   -0.11699      0.99959     2.10828    0.00911     3.11699
      C    2   -0.08231      0.99954     2.07422    0.00855     3.08231
      C    3    0.05987      0.99949     1.93084    0.00980     2.94013
      C    4   -0.04997      0.99945     2.03700    0.01352     3.04997
      C    5   -0.01037      0.99961     1.99510    0.01567     3.01037
      N    6   -0.13078      0.99974     2.61748    0.01356     3.63078
      N    7   -0.18941      0.99966     2.67765    0.01210     3.68941
      C    8    0.06172      0.99942     1.92484    0.01401     2.93828
      C    9   -0.08364      0.99952     2.07352    0.01060     3.08364
      N   10    0.05517      0.99976     2.41367    0.03140     3.44483
      O   11   -0.08348      0.99990     3.07159    0.01199     4.08348
      H   12    0.08947      0.00000     0.40951    0.00102     0.41053
      H   13    0.08814      0.00000     0.41020    0.00166     0.41186
      H   14    0.10019      0.00000     0.39772    0.00209     0.39981
      H   15    0.18894      0.00000     0.30919    0.00187     0.31106
      H   16    0.10346      0.00000     0.39296    0.00357     0.39654
 =======================================================================
   * Total *    0.00000     10.99569    26.84379    0.16052    38.00000

 Normal termination of Gaussian 16 at Tue Dec  8 21:48:52 2020.
