 Gaussian 16, Revision A.03,

 -----------------------------------------------------------
 # opt freq B3LYP/6-31G(d) empiricaldispersion=gd3bj scf=xqc
 -----------------------------------------------------------

 -------------------------------
 CID_135062176_JID_9507_neutraal
 -------------------------------
 Symbolic Z-matrix:
 Charge =  0 Multiplicity = 1

 SCF Done:  E(RB3LYP) =  -768.259522628     A.U. after   15 cycles
 SCF Done:  E(RB3LYP) =  -768.262920190     A.U. after   13 cycles
 SCF Done:  E(RB3LYP) =  -768.262403442     A.U. after   14 cycles
 SCF Done:  E(RB3LYP) =  -768.263419423     A.U. after   13 cycles
 SCF Done:  E(RB3LYP) =  -768.264482280     A.U. after   13 cycles
 SCF Done:  E(RB3LYP) =  -768.265093863     A.U. after   14 cycles
 SCF Done:  E(RB3LYP) =  -768.265168240     A.U. after   12 cycles
 SCF Done:  E(RB3LYP) =  -768.265312539     A.U. after   12 cycles
 SCF Done:  E(RB3LYP) =  -768.265375264     A.U. after   11 cycles
 SCF Done:  E(RB3LYP) =  -768.265442159     A.U. after   11 cycles
 SCF Done:  E(RB3LYP) =  -768.265629125     A.U. after    7 cycles
 SCF Done:  E(RB3LYP) =  -768.265629447     A.U. after    7 cycles
 SCF Done:  E(RB3LYP) =  -768.265629617     A.U. after    7 cycles
 SCF Done:  E(RB3LYP) =  -768.265629669     A.U. after    6 cycles
 Optimization completed.
    -- Stationary point found.
 Normal termination of Gaussian 16 at Thu Dec 17 20:27:43 2020.

 --------------------------------------------------------------------
 #N Geom=AllCheck Guess=TCheck SCRF=Check GenChk RB3LYP/6-31G(d) Freq
 --------------------------------------------------------------------

 Structure from the checkpoint file:  "JID_9507.chk"
 -------------------------------
 CID_135062176_JID_9507_neutraal
 -------------------------------
 Charge =  0 Multiplicity = 1

 SCF Done:  E(RB3LYP) =  -768.265629669     A.U. after    1 cycles

  Exact polarizability: 209.653 -31.700 185.219  36.610  18.611 135.360
 Approx polarizability: 313.544 -60.802 315.522  77.537  46.552 238.436

                      1                      2                      3
                      A                      A                      A
 Frequencies --     29.1400                53.8445                66.5797
 Red. masses --      4.8520                 3.5763                 2.6104
 Frc consts  --      0.0024                 0.0061                 0.0068
 IR Inten    --      0.4505                 0.3045                 1.8696

                      4                      5                      6
                      A                      A                      A
 Frequencies --     70.9367                90.2882               100.0118
 Red. masses --      1.2158                 3.1535                 2.8209
 Frc consts  --      0.0036                 0.0151                 0.0166
 IR Inten    --      0.0068                 0.4164                 0.2770

                      7                      8                      9
                      A                      A                      A
 Frequencies --    111.3099               164.1353               186.9303
 Red. masses --      1.4016                 2.6607                 5.3710
 Frc consts  --      0.0102                 0.0422                 0.1106
 IR Inten    --      0.1375                 6.5858                 0.3194

                     10                     11                     12
                      A                      A                      A
 Frequencies --    225.9127               254.9192               279.3843
 Red. masses --      3.0507                 3.0522                 3.1428
 Frc consts  --      0.0917                 0.1169                 0.1445
 IR Inten    --      1.5487                 1.5026                 0.6889

                     13                     14                     15
                      A                      A                      A
 Frequencies --    285.1801               309.3577               345.7584
 Red. masses --      4.2391                 3.3522                 2.5483
 Frc consts  --      0.2031                 0.1890                 0.1795
 IR Inten    --      0.3649                 0.0917                 0.6858

                     16                     17                     18
                      A                      A                      A
 Frequencies --    395.3714               414.4064               452.1801
 Red. masses --      3.1653                 2.5301                 3.1540
 Frc consts  --      0.2915                 0.2560                 0.3800
 IR Inten    --      2.2966                 0.8705                 5.2975

                     19                     20                     21
                      A                      A                      A
 Frequencies --    467.3145               511.4559               522.2783
 Red. masses --      3.2555                 5.4563                 4.1204
 Frc consts  --      0.4189                 0.8409                 0.6622
 IR Inten    --      2.8739                 0.1431                 1.1448

                     22                     23                     24
                      A                      A                      A
 Frequencies --    538.9990               548.1413               582.9699
 Red. masses --      4.3512                 3.7992                 5.1670
 Frc consts  --      0.7448                 0.6726                 1.0346
 IR Inten    --      0.1940                 0.4319                 3.2409

                     25                     26                     27
                      A                      A                      A
 Frequencies --    591.2546               610.3800               669.9598
 Red. masses --      4.2110                 3.7399                 5.1420
 Frc consts  --      0.8673                 0.8209                 1.3598
 IR Inten    --      0.0695                 0.5981                 3.4200

                     28                     29                     30
                      A                      A                      A
 Frequencies --    715.8951               725.1166               734.1263
 Red. masses --      3.9403                 2.3356                 5.1058
 Frc consts  --      1.1898                 0.7235                 1.6213
 IR Inten    --      1.7374                12.7474                 0.2891

                     31                     32                     33
                      A                      A                      A
 Frequencies --    753.4907               757.6438               775.4102
 Red. masses --      2.3954                 1.7946                 3.8300
 Frc consts  --      0.8013                 0.6070                 1.3568
 IR Inten    --     28.6219                31.2843                 4.9116

                     34                     35                     36
                      A                      A                      A
 Frequencies --    799.7457               858.9096               863.2027
 Red. masses --      1.4524                 1.4839                 3.3233
 Frc consts  --      0.5473                 0.6450                 1.4590
 IR Inten    --     19.5523                 0.2084                 6.1899

                     37                     38                     39
                      A                      A                      A
 Frequencies --    878.4741               906.4074               912.3580
 Red. masses --      2.6911                 1.3987                 4.4517
 Frc consts  --      1.2236                 0.6771                 2.1833
 IR Inten    --      2.3728                 0.2431                 0.6548

                     40                     41                     42
                      A                      A                      A
 Frequencies --    924.5706               932.2384               960.3114
 Red. masses --      1.3525                 1.5792                 2.0230
 Frc consts  --      0.6812                 0.8086                 1.0992
 IR Inten    --      2.5917                 3.2009                 8.8744

                     43                     44                     45
                      A                      A                      A
 Frequencies --    969.6924               972.1922               977.4159
 Red. masses --      1.2322                 1.2882                 2.3676
 Frc consts  --      0.6827                 0.7174                 1.3327
 IR Inten    --      0.0726                 0.0860                 0.3162

                     46                     47                     48
                      A                      A                      A
 Frequencies --   1020.0171              1026.2330              1038.4784
 Red. masses --      2.7844                 2.6851                 2.0069
 Frc consts  --      1.7068                 1.6661                 1.2752
 IR Inten    --      1.3170                 3.2470                 5.5067

                     49                     50                     51
                      A                      A                      A
 Frequencies --   1048.7455              1079.7291              1120.9615
 Red. masses --      1.7409                 1.5169                 2.3287
 Frc consts  --      1.1281                 1.0419                 1.7241
 IR Inten    --      1.1584                 6.5796                 6.7962

                     52                     53                     54
                      A                      A                      A
 Frequencies --   1127.9913              1153.5243              1161.6443
 Red. masses --      1.6469                 1.4005                 1.3001
 Frc consts  --      1.2346                 1.0980                 1.0337
 IR Inten    --      8.4821                15.1195                 2.4060

                     55                     56                     57
                      A                      A                      A
 Frequencies --   1168.4060              1184.8088              1192.2171
 Red. masses --      1.5778                 1.1995                 1.5710
 Frc consts  --      1.2691                 0.9921                 1.3156
 IR Inten    --      1.4054                 1.6249                 0.5747

                     58                     59                     60
                      A                      A                      A
 Frequencies --   1206.8915              1213.2868              1239.3637
 Red. masses --      1.4170                 1.3121                 1.3781
 Frc consts  --      1.2160                 1.1380                 1.2472
 IR Inten    --      0.3457                 3.5392                10.5223

                     61                     62                     63
                      A                      A                      A
 Frequencies --   1274.3032              1282.8813              1321.6163
 Red. masses --      2.8735                 3.2105                 2.0406
 Frc consts  --      2.7492                 3.1131                 2.1000
 IR Inten    --     12.5788                 7.9400                25.8311

                     64                     65                     66
                      A                      A                      A
 Frequencies --   1341.9236              1357.2349              1364.4783
 Red. masses --      1.6194                 1.5104                 2.7747
 Frc consts  --      1.7181                 1.6393                 3.0437
 IR Inten    --      4.9986                 7.4440                 1.5392

                     67                     68                     69
                      A                      A                      A
 Frequencies --   1372.8932              1381.3737              1411.0938
 Red. masses --      2.4499                 1.8385                 4.0171
 Frc consts  --      2.7207                 2.0670                 4.7127
 IR Inten    --     15.9548                 2.5098                 1.3618

                     70                     71                     72
                      A                      A                      A
 Frequencies --   1438.3876              1443.9925              1481.5259
 Red. masses --      2.6767                 1.2469                 2.3752
 Frc consts  --      3.2628                 1.5319                 3.0717
 IR Inten    --     53.7786                 0.9018                 2.3467

                     73                     74                     75
                      A                      A                      A
 Frequencies --   1485.3534              1502.5829              1511.3082
 Red. masses --      1.5292                 1.5939                 1.2878
 Frc consts  --      1.9878                 2.1203                 1.7330
 IR Inten    --     18.4530                43.4047                 9.8823

                     76                     77                     78
                      A                      A                      A
 Frequencies --   1515.2909              1515.5827              1520.5949
 Red. masses --      1.0806                 1.0783                 1.1381
 Frc consts  --      1.4619                 1.4593                 1.5505
 IR Inten    --     16.8113                 5.2939                 2.0900

                     79                     80                     81
                      A                      A                      A
 Frequencies --   1528.6292              1530.0863              1543.4925
 Red. masses --      1.2922                 2.3113                 1.4622
 Frc consts  --      1.7790                 3.1881                 2.0524
 IR Inten    --      9.5668                 3.9137                 1.9057

                     82                     83                     84
                      A                      A                      A
 Frequencies --   1546.0865              1568.2094              1643.1086
 Red. masses --      1.7695                 4.7468                 6.5202
 Frc consts  --      2.4921                 6.8779                10.3715
 IR Inten    --     14.8802                32.0202                 0.4494

                     85                     86                     87
                      A                      A                      A
 Frequencies --   1649.9525              1667.8184              1675.5573
 Red. masses --      5.3611                 5.6813                 7.0331
 Frc consts  --      8.5990                 9.3110                11.6336
 IR Inten    --      5.3381                 9.1386                 6.3977

                     88                     89                     90
                      A                      A                      A
 Frequencies --   3045.9790              3061.7847              3065.6664
 Red. masses --      1.0367                 1.0605                 1.0367
 Frc consts  --      5.6670                 5.8576                 5.7408
 IR Inten    --     20.6280                34.3315                28.9064

                     91                     92                     93
                      A                      A                      A
 Frequencies --   3076.9564              3101.7320              3109.2093
 Red. masses --      1.0610                 1.1009                 1.1025
 Frc consts  --      5.9182                 6.2405                 6.2793
 IR Inten    --     26.5219                11.9526                17.0592

                     94                     95                     96
                      A                      A                      A
 Frequencies --   3125.6892              3126.3300              3127.2654
 Red. masses --      1.1020                 1.1048                 1.1060
 Frc consts  --      6.3437                 6.3624                 6.3726
 IR Inten    --     13.8739                23.5474                 9.6614

                     97                     98                     99
                      A                      A                      A
 Frequencies --   3172.5020              3181.4513              3183.4723
 Red. masses --      1.0860                 1.0901                 1.0912
 Frc consts  --      6.4401                 6.5007                 6.5156
 IR Inten    --      1.8907                22.2519                 4.7459

                    100                    101                    102
                      A                      A                      A
 Frequencies --   3184.2007              3185.5134              3196.3886
 Red. masses --      1.0969                 1.0861                 1.0893
 Frc consts  --      6.5525                 6.4937                 6.5572
 IR Inten    --     13.0980                 1.3324                13.3372

                    103                    104                    105
                      A                      A                      A
 Frequencies --   3200.2898              3207.6603              3216.6743
 Red. masses --      1.0962                 1.0941                 1.0957
 Frc consts  --      6.6147                 6.6329                 6.6795
 IR Inten    --     29.6251                25.7894                19.2287

 - Thermochemistry -
 -------------------
 Temperature   298.150 Kelvin.  Pressure   1.00000 Atm.
 Atom     1 has atomic number  6 and mass  12.00000

 Molecular mass:   250.14700 amu.
 Principal axes and moments of inertia in atomic units:
                           1         2         3
     Eigenvalues --  2831.172155538.922186781.84171
           X            0.99972  -0.02189   0.00886
           Y            0.02190   0.99976  -0.00094
           Z           -0.00883   0.00113   0.99996
 This molecule is an asymmetric top.
 Rotational symmetry number  1.
 Warning -- assumption of classical behavior for rotation
           may cause significant error
 Rotational temperatures (Kelvin)      0.03059     0.01564     0.01277
 Rotational constants (GHZ):           0.63745     0.32583     0.26611
 Zero-point vibrational energy     823760.6 (Joules/Mol)
                                  196.88352 (Kcal/Mol)
 Warning -- explicit consideration of  26 degrees of freedom as
           vibrations may cause significant error
 Vibrational temperatures:     41.93    77.47    95.79   102.06   129.90
          (Kelvin)            143.89   160.15   236.15   268.95   325.04
                              366.77   401.97   410.31   445.10   497.47
                              568.85   596.24   650.59   672.36   735.87
                              751.44   775.50   788.65   838.76   850.68
                              878.20   963.92  1030.01  1043.28  1056.24
                             1084.11  1090.08  1115.64  1150.66  1235.78
                             1241.96  1263.93  1304.12  1312.68  1330.25
                             1341.28  1381.67  1395.17  1398.77  1406.28
                             1467.58  1476.52  1494.14  1508.91  1553.49
                             1612.81  1622.93  1659.66  1671.35  1681.08
                             1704.68  1715.33  1736.45  1745.65  1783.17
                             1833.44  1845.78  1901.51  1930.73  1952.76
                             1963.18  1975.29  1987.49  2030.25  2069.52
                             2077.58  2131.59  2137.09  2161.88  2174.44
                             2180.17  2180.59  2187.80  2199.36  2201.45
                             2220.74  2224.47  2256.30  2364.07  2373.91
                             2399.62  2410.75  4382.48  4405.23  4410.81
                             4427.05  4462.70  4473.46  4497.17  4498.09
                             4499.44  4564.52  4577.40  4580.31  4581.35
                             4583.24  4598.89  4604.50  4615.11  4628.08

 Zero-point correction=                           0.313754 (Hartree/Particle)
 Thermal correction to Energy=                    0.330207
 Thermal correction to Enthalpy=                  0.331151
 Thermal correction to Gibbs Free Energy=         0.269073
 Sum of electronic and zero-point Energies=           -767.951876
 Sum of electronic and thermal Energies=              -767.935423
 Sum of electronic and thermal Enthalpies=            -767.934479
 Sum of electronic and thermal Free Energies=         -767.996557

                     E (Thermal)             CV                S
                      KCal/Mol        Cal/Mol-Kelvin    Cal/Mol-Kelvin
 Total                  207.208             64.568            130.654
 Electronic               0.000              0.000              0.000
 Translational            0.889              2.981             42.451
 Rotational               0.889              2.981             33.030
 Vibrational            205.430             58.607             55.173
 Vibration     1          0.593              1.984              5.887
 Vibration     2          0.596              1.976              4.671
 Vibration     3          0.598              1.970              4.252
 Vibration     4          0.598              1.968              4.127
 Vibration     5          0.602              1.956              3.654
 Vibration     6          0.604              1.949              3.454
 Vibration     7          0.607              1.940              3.246
 Vibration     8          0.623              1.886              2.502
 Vibration     9          0.632              1.858              2.258
 Vibration    10          0.650              1.802              1.911
 Vibration    11          0.665              1.754              1.696
 Vibration    12          0.680              1.712              1.537
 Vibration    13          0.683              1.701              1.502
 Vibration    14          0.699              1.656              1.366
 Vibration    15          0.724              1.584              1.185
 Vibration    16          0.762              1.480              0.980
 Vibration    17          0.778              1.439              0.911
 Vibration    18          0.811              1.356              0.789
 Vibration    19          0.825              1.323              0.745
 Vibration    20          0.867              1.225              0.630
 Vibration    21          0.877              1.201              0.605
 Vibration    22          0.894              1.164              0.567
 Vibration    23          0.903              1.144              0.548
 Vibration    24          0.940              1.068              0.480
 Vibration    25          0.949              1.050              0.465
 Vibration    26          0.969              1.010              0.432

                           ! Non-Optimized Parameters !
 Normal termination of Gaussian 16 at Thu Dec 17 20:49:16 2020.

 ----------------------------------------------------------------------
 # B3LYP/6-311++G(d,p) empiricaldispersion=gd3bj scf=xqc pop=npa geom=c
 heck
 ----------------------------------------------------------------------

 ---------------------------------------
 CID_135062176_JID_9507_Energie_neutraal
 ---------------------------------------
 Structure from the checkpoint file:  "JID_9507.chk"
 Charge =  0 Multiplicity = 1

 SCF Done:  E(RB3LYP) =  -768.458761691     A.U. after   16 cycles
 Normal termination of Gaussian 16 at Thu Dec 17 20:59:02 2020.

 ----------------------------------------------------------------------
 # B3LYP/6-311++G(d,p) empiricaldispersion=gd3bj scf=xqc pop=npa geom=c
 heck
 ----------------------------------------------------------------------

 -------------------------------------
 CID_135062176_JID_9507_Energie_kation
 -------------------------------------
 Structure from the checkpoint file:  "JID_9507.chk"
 Charge =  1 Multiplicity = 2

 SCF Done:  E(UB3LYP) =  -768.169502441     A.U. after   33 cycles
 SCF Done:  E(UB3LYP) =  -768.169502441     a.u. after    1 cycles
 Normal termination of Gaussian 16 at Thu Dec 17 21:27:38 2020.
 Gaussian 16:  ES64L-G16RevA.03 25-Dec-2016

 ----------------------------------------------------------------------
 # B3LYP/6-311++G(d,p) empiricaldispersion=gd3bj scf=xqc pop=npa geom=c
 heck
 ----------------------------------------------------------------------

 ------------------------------------
 CID_135062176_JID_9507_Energie_anion
 ------------------------------------
 Structure from the checkpoint file:  "JID_9507.chk"
 Charge = -1 Multiplicity = 2

                         Standard orientation:
 ---------------------------------------------------------------------
 Center     Atomic      Atomic             Coordinates (Angstroms)
 Number     Number       Type             X           Y           Z
 ---------------------------------------------------------------------
      1          6           0        0.590053    2.809015   -1.085741
      2          6           0        1.581780    1.749401   -0.670221
      3          6           0        1.382598    0.416764   -1.047420
      4          6           0        2.242205   -0.604617   -0.629584
      5          6           0        3.353174   -0.270221    0.154155
      6          6           0        3.583539    1.055566    0.517832
      7          6           0        2.697890    2.057827    0.117008
      8          6           0        1.898932   -2.045193   -0.926340
      9          6           0        0.892634   -2.627598    0.107595
     10          6           0       -0.348403   -1.795431    0.170310
     11          7           0       -1.304276   -1.861374   -0.733802
     12          6           0       -2.171042   -0.820894   -0.431623
     13          6           0       -3.343451   -0.403209   -1.071164
     14          6           0       -4.001076    0.715966   -0.568285
     15          6           0       -3.511929    1.413587    0.553781
     16          6           0       -2.351560    1.009116    1.212112
     17          6           0       -1.700215   -0.114603    0.701741
     18          7           0       -0.541617   -0.770380    1.084818
     19          6           0        0.338699   -0.308444    2.140689
     20          1           0        0.469789    2.836964   -2.175099
     21          1           0       -0.399832    2.605743   -0.658842
     22          1           0        0.904654    3.803895   -0.755521
     23          1           0        0.513527    0.160879   -1.648876
     24          1           0        4.033948   -1.052232    0.482893
     25          1           0        4.450868    1.310025    1.121161
     26          1           0        2.875041    3.088553    0.414250
     27          1           0        1.440009   -2.127148   -1.916921
     28          1           0        2.801775   -2.666602   -0.925047
     29          1           0        0.609934   -3.638836   -0.199117
     30          1           0        1.373446   -2.700456    1.088149
     31          1           0       -3.713640   -0.940147   -1.938843
     32          1           0       -4.909522    1.064486   -1.051088
     33          1           0       -4.049661    2.286022    0.913598
     34          1           0       -1.974554    1.550112    2.074892
     35          1           0        0.868223    0.599073    1.833489
     36          1           0       -0.249843   -0.103267    3.040336
     37          1           0        1.074143   -1.076971    2.374400
 ---------------------------------------------------------------------

 SCF Done:  E(UB3LYP) =  -768.447769510     A.U. after   33 cycles
 SCF Done:  E(UB3LYP) =  -768.447769510     a.u. after    1 cycles

 The electronic state is 2-A.
 Alpha  occ. eigenvalues --  -14.27151 -14.19542 -10.14070 -10.11308 -10.11036
 Alpha  occ. eigenvalues --  -10.09775 -10.08914 -10.08806 -10.08479 -10.08305
 Alpha  occ. eigenvalues --  -10.08266 -10.08018 -10.07933 -10.07798 -10.07710
 Alpha  occ. eigenvalues --  -10.07470 -10.07301 -10.07298 -10.07181  -0.92313
 Alpha  occ. eigenvalues --   -0.79618  -0.76799  -0.75341  -0.70942  -0.67501
 Alpha  occ. eigenvalues --   -0.65947  -0.65334  -0.62791  -0.61558  -0.59153
 Alpha  occ. eigenvalues --   -0.56271  -0.51468  -0.50736  -0.50234  -0.48170
 Alpha  occ. eigenvalues --   -0.46381  -0.42292  -0.41685  -0.40910  -0.38967
 Alpha  occ. eigenvalues --   -0.38015  -0.37128  -0.35857  -0.35177  -0.34244
 Alpha  occ. eigenvalues --   -0.33793  -0.32744  -0.32564  -0.31509  -0.31339
 Alpha  occ. eigenvalues --   -0.31167  -0.30344  -0.29273  -0.28742  -0.27580
 Alpha  occ. eigenvalues --   -0.26563  -0.26152  -0.25321  -0.24406  -0.24206
 Alpha  occ. eigenvalues --   -0.23422  -0.20382  -0.18006  -0.15494  -0.14911
 Alpha  occ. eigenvalues --   -0.13597  -0.13200   0.04125
 Alpha virt. eigenvalues --    0.06141   0.06345   0.06877   0.07267   0.07635
 Alpha virt. eigenvalues --    0.07996   0.08262   0.08531   0.09298   0.09335
 Alpha virt. eigenvalues --    0.10053   0.10200   0.10449   0.11368   0.11637

  Beta  occ. eigenvalues --  -14.27147 -14.19534 -10.14014 -10.11276 -10.11042
  Beta  occ. eigenvalues --  -10.09771 -10.08901 -10.08805 -10.08476 -10.08259
  Beta  occ. eigenvalues --  -10.08247 -10.07997 -10.07932 -10.07752 -10.07695
  Beta  occ. eigenvalues --  -10.07454 -10.07287 -10.07277 -10.07175  -0.92278
  Beta  occ. eigenvalues --   -0.79589  -0.76775  -0.75285  -0.70899  -0.67467
  Beta  occ. eigenvalues --   -0.65896  -0.65269  -0.62743  -0.61508  -0.59119
  Beta  occ. eigenvalues --   -0.56216  -0.51444  -0.50663  -0.50200  -0.48119
  Beta  occ. eigenvalues --   -0.46337  -0.42243  -0.41640  -0.40855  -0.38902
  Beta  occ. eigenvalues --   -0.37978  -0.37090  -0.35820  -0.35132  -0.34218
  Beta  occ. eigenvalues --   -0.33745  -0.32710  -0.32546  -0.31469  -0.31279
  Beta  occ. eigenvalues --   -0.31130  -0.30288  -0.29247  -0.28702  -0.27549
  Beta  occ. eigenvalues --   -0.26531  -0.26117  -0.25262  -0.24339  -0.24165
  Beta  occ. eigenvalues --   -0.23351  -0.20272  -0.17978  -0.15458  -0.14878
  Beta  occ. eigenvalues --   -0.13478  -0.13004
  Beta virt. eigenvalues --    0.06217   0.06629   0.07016   0.07392   0.07518
  Beta virt. eigenvalues --    0.08037   0.08290   0.08581   0.08874   0.09580
  Beta virt. eigenvalues --    0.09692   0.10095   0.10592   0.10664   0.11654

 Mulliken charges and spin densities:
               1          2
     1  C    0.621449  -1.290598
     2  C   -0.937231   1.123532
     3  C   -1.469390   1.109751
     4  C   -0.571377   1.440080
     5  C    1.126240  -1.570574
     6  C    0.893455  -1.094096
     7  C    0.779283  -1.116209
     8  C    0.432356  -1.044402
     9  C    1.233711  -1.282628
    10  C   -0.612446   0.344549
    11  N   -0.030360   0.059675
    12  C   -0.000610  -0.104450
    13  C   -0.591758   0.423866
    14  C    0.006577  -0.302538
    15  C    0.095729  -0.372597
    16  C   -0.607401   0.414499
    17  C    0.052656   0.070141
    18  N    0.036941   0.089620
    19  C    0.546763  -0.933615
    20  H    0.103437   0.049423
    21  H    0.245139  -0.061115
    22  H   -0.146190   0.284980
    23  H    0.193810  -0.013532
    24  H   -0.571081   0.745390
    25  H   -0.681305   0.871206
    26  H   -0.382723   0.540950
    27  H    0.157036   0.014398
    28  H   -0.418843   0.619152
    29  H    0.057789   0.134827
    30  H   -0.135365   0.294439
    31  H    0.117050   0.038153
    32  H    0.112606   0.030832
    33  H   -0.049630   0.213769
    34  H   -0.309195   0.459266
    35  H    0.130273   0.105078
    36  H   -0.057276   0.233867
    37  H   -0.370118   0.474912
 Sum of Mulliken charges =  -1.00000   1.00000

 Dipole moment (field-independent basis, Debye):
    X=             -5.8283    Y=              0.7190    Z=             -3.1442  Tot=              6.6612
 Quadrupole moment (field-independent basis, Debye-Ang):
   XX=           -189.9269   YY=           -165.5481   ZZ=           -148.5071
   XY=              1.7243   XZ=             -7.1648   YZ=             -4.3119

 Summary of Natural Population Analysis:

                                       Natural Population
                Natural  -----------------------------------------------
    Atom  No    Charge         Core      Valence    Rydberg      Total
 -----------------------------------------------------------------------
      C    1   -0.29443      0.99963     2.28900    0.00580     3.29443
      C    2   -0.01556      0.99951     2.00659    0.00946     3.01556
      C    3   -0.10545      0.99946     2.09675    0.00925     3.10545
      C    4   -0.01615      0.99950     2.00534    0.01131     3.01615
      C    5   -0.10468      0.99950     2.09421    0.01098     3.10468
      C    6   -0.09449      0.99956     2.08426    0.01067     3.09449
      C    7   -0.10726      0.99951     2.09734    0.01041     3.10726
      C    8   -0.19008      0.99959     2.18060    0.00989     3.19008
      C    9   -0.20833      0.99957     2.19930    0.00945     3.20833
      C   10    0.23113      0.99959     1.75180    0.01749     2.76887
      N   11   -0.26683      0.99967     2.75876    0.00840     3.76683
      C   12    0.05727      0.99945     1.93095    0.01233     2.94273
      C   13   -0.09469      0.99952     2.08684    0.00833     3.09469
      C   14   -0.11781      0.99958     2.10898    0.00925     3.11781
      C   15   -0.10685      0.99959     2.09667    0.01059     3.10685
      C   16   -0.11424      0.99953     2.10524    0.00947     3.11424
      C   17    0.06748      0.99945     1.92239    0.01069     2.93252
      N   18   -0.21181      0.99958     2.70202    0.01022     3.71181
      C   19   -0.17676      0.99963     2.16875    0.00838     3.17676
      H   20    0.10166      0.00000     0.39756    0.00078     0.39834
      H   21    0.11075      0.00000     0.38818    0.00107     0.38925
      H   22    0.10119      0.00000     0.39800    0.00081     0.39881
      H   23    0.10439      0.00000     0.39389    0.00172     0.39561
      H   24    0.10412      0.00000     0.39349    0.00238     0.39588
      H   25    0.10276      0.00000     0.39568    0.00156     0.39724
      H   26    0.10102      0.00000     0.39766    0.00131     0.39898
      H   27    0.10419      0.00000     0.39463    0.00118     0.39581
      H   28    0.10568      0.00000     0.39281    0.00151     0.39432
      H   29    0.11348      0.00000     0.38531    0.00120     0.38652
      H   30    0.10600      0.00000     0.39228    0.00172     0.39400
      H   31    0.10094      0.00000     0.39774    0.00132     0.39906
      H   32    0.09700      0.00000     0.40227    0.00073     0.40300
      H   33    0.09843      0.00000     0.40079    0.00078     0.40157
      H   34    0.10561      0.00000     0.39321    0.00118     0.39439
      H   35    0.10737      0.00000     0.39035    0.00228     0.39263
      H   36    0.09837      0.00000     0.40056    0.00107     0.40163
      H   37    0.10655      0.00000     0.39194    0.00151     0.39345
 =======================================================================
   * Total *    0.00000     18.99140    47.79214    0.21646    67.00000

 Normal termination of Gaussian 16 at Thu Dec 17 21:55:17 2020.
