 Gaussian 16, Revision A.03,

 -----------------------------------------------------------
 # opt freq B3LYP/6-31G(d) empiricaldispersion=gd3bj scf=xqc
 -----------------------------------------------------------

 -------------------------------
 CID_135998501_JID_2382_neutraal
 -------------------------------
 Symbolic Z-matrix:
 Charge =  0 Multiplicity = 1

 SCF Done:  E(RB3LYP) =  -516.459680613     A.U. after   14 cycles
 SCF Done:  E(RB3LYP) =  -516.465835819     A.U. after   12 cycles
 SCF Done:  E(RB3LYP) =  -516.466601777     A.U. after   11 cycles
 SCF Done:  E(RB3LYP) =  -516.466658771     A.U. after   10 cycles
 SCF Done:  E(RB3LYP) =  -516.466661115     A.U. after    9 cycles
 SCF Done:  E(RB3LYP) =  -516.466661318     A.U. after    8 cycles
 Optimization completed.
    -- Stationary point found.
 Normal termination of Gaussian 16 at Wed Dec  9 17:11:50 2020.

 --------------------------------------------------------------------
 #N Geom=AllCheck Guess=TCheck SCRF=Check GenChk RB3LYP/6-31G(d) Freq
 --------------------------------------------------------------------

 Structure from the checkpoint file:  "JID_2382.chk"
 -------------------------------
 CID_135998501_JID_2382_neutraal
 -------------------------------
 Charge =  0 Multiplicity = 1

 SCF Done:  E(RB3LYP) =  -516.466661318     A.U. after    1 cycles

  Exact polarizability: 194.611   1.347 113.018  -0.001  -0.001  43.611
 Approx polarizability: 292.927  -6.661 206.552  -0.006   0.004  68.428

                      1                      2                      3
                      A                      A                      A
 Frequencies --     61.8814                81.7476               141.9048
 Red. masses --      3.6874                 5.5359                 4.7458
 Frc consts  --      0.0083                 0.0218                 0.0563
 IR Inten    --      4.8498                 0.0191                 4.1237

                      4                      5                      6
                      A                      A                      A
 Frequencies --    204.5978               319.0014               322.5469
 Red. masses --      4.2700                 6.9419                 2.5934
 Frc consts  --      0.1053                 0.4162                 0.1590
 IR Inten    --      0.0000                 1.6861                 0.5214

                      7                      8                      9
                      A                      A                      A
 Frequencies --    380.6163               380.9789               418.0561
 Red. masses --      5.0303                 1.1037                 3.0419
 Frc consts  --      0.4294                 0.0944                 0.3132
 IR Inten    --      3.3995               125.2216                 2.0929

                     10                     11                     12
                      A                      A                      A
 Frequencies --    430.6962               471.5725               535.4747
 Red. masses --      2.5815                 3.8680                 2.6004
 Frc consts  --      0.2821                 0.5068                 0.4393
 IR Inten    --      4.6871                 9.6528                 0.0002

                     13                     14                     15
                      A                      A                      A
 Frequencies --    564.8181               626.3338               654.5960
 Red. masses --      2.8187                 6.8426                 7.0326
 Frc consts  --      0.5298                 1.5815                 1.7755
 IR Inten    --     18.3187                14.4039                 0.5230

                     16                     17                     18
                      A                      A                      A
 Frequencies --    719.3734               730.9509               821.6036
 Red. masses --      1.4455                 2.7994                 1.2844
 Frc consts  --      0.4407                 0.8812                 0.5108
 IR Inten    --     16.2372                 9.4507                 7.9703

                     19                     20                     21
                      A                      A                      A
 Frequencies --    838.5947               840.0835               855.7970
 Red. masses --      5.9985                 1.5967                 6.7551
 Frc consts  --      2.4854                 0.6639                 2.9149
 IR Inten    --     20.6952                36.0548                 8.4525

                     22                     23                     24
                      A                      A                      A
 Frequencies --    880.7777               929.2418               944.2974
 Red. masses --      5.1471                 2.0155                 1.3478
 Frc consts  --      2.3526                 1.0254                 0.7081
 IR Inten    --      4.7830                 1.4540                 3.0469

                     25                     26                     27
                      A                      A                      A
 Frequencies --    958.2448               975.1791               982.8301
 Red. masses --      1.4232                 1.3648                 1.6547
 Frc consts  --      0.7700                 0.7647                 0.9417
 IR Inten    --      0.2301                 2.3266                21.6735

                     28                     29                     30
                      A                      A                      A
 Frequencies --   1026.5132              1044.7124              1083.0315
 Red. masses --      4.4454                 2.6906                 3.2331
 Frc consts  --      2.7599                 1.7302                 2.2343
 IR Inten    --      0.4381                 1.6313                20.5866

                     31                     32                     33
                      A                      A                      A
 Frequencies --   1134.8597              1138.3643              1159.2049
 Red. masses --      1.3387                 1.1604                 1.3351
 Frc consts  --      1.0158                 0.8860                 1.0570
 IR Inten    --     22.9912                 0.3555                17.3309

                     34                     35                     36
                      A                      A                      A
 Frequencies --   1203.6601              1213.1690              1252.4748
 Red. masses --      1.1348                 1.3533                 1.9472
 Frc consts  --      0.9687                 1.1735                 1.7997
 IR Inten    --     60.5783               156.6574                 8.6194

                     37                     38                     39
                      A                      A                      A
 Frequencies --   1316.5305              1339.4650              1358.9381
 Red. masses --      3.5466                 1.8323                 1.9656
 Frc consts  --      3.6218                 1.9370                 2.1387
 IR Inten    --    133.7906                 2.0061                16.0816

                     40                     41                     42
                      A                      A                      A
 Frequencies --   1389.4149              1394.7796              1445.2775
 Red. masses --      3.7814                 2.3096                 1.1395
 Frc consts  --      4.3009                 2.6473                 1.4023
 IR Inten    --     87.7657                 5.9732                11.9969

                     43                     44                     45
                      A                      A                      A
 Frequencies --   1481.9916              1562.7343              1578.9481
 Red. masses --      2.9645                 3.4977                 4.8374
 Frc consts  --      3.8361                 5.0327                 7.1056
 IR Inten    --     94.5185               115.9261                 0.6028

                     46                     47                     48
                      A                      A                      A
 Frequencies --   1630.1609              1648.8552              1675.5434
 Red. masses --      5.7107                 5.9720                 5.9477
 Frc consts  --      8.9413                 9.5661                 9.8381
 IR Inten    --     13.0294                48.2979               109.2284

                     49                     50                     51
                      A                      A                      A
 Frequencies --   3045.7848              3077.4656              3169.2601
 Red. masses --      1.0607                 1.1003                 1.0898
 Frc consts  --      5.7973                 6.1399                 6.4496
 IR Inten    --      4.6175                 5.3904                26.7558

                     52                     53                     54
                      A                      A                      A
 Frequencies --   3197.3855              3221.1428              3228.6723
 Red. masses --      1.0879                 1.0937                 1.0920
 Frc consts  --      6.5529                 6.6863                 6.7072
 IR Inten    --      8.2778                 9.6043                 1.4273

                     55                     56                     57
                      A                      A                      A
 Frequencies --   3232.5872              3261.8013              3748.5795
 Red. masses --      1.0890                 1.1035                 1.0659
 Frc consts  --      6.7050                 6.9172                 8.8246
 IR Inten    --     20.6307                18.8613                63.3801

 - Thermochemistry -
 -------------------
 Temperature   298.150 Kelvin.  Pressure   1.00000 Atm.
 Atom     1 has atomic number  6 and mass  12.00000

 Molecular mass:   159.06841 amu.
 Principal axes and moments of inertia in atomic units:
                           1         2         3
     Eigenvalues --   527.490213748.159524264.48294
           X            0.99994   0.01077   0.00000
           Y           -0.01077   0.99994  -0.00002
           Z           -0.00000   0.00001   1.00000
 This molecule is an asymmetric top.
 Rotational symmetry number  1.
 Warning -- assumption of classical behavior for rotation
           may cause significant error
 Rotational temperatures (Kelvin)      0.16420     0.02311     0.02031
 Rotational constants (GHZ):           3.42137     0.48150     0.42320
 Zero-point vibrational energy     438629.4 (Joules/Mol)
                                  104.83494 (Kcal/Mol)
 Warning -- explicit consideration of  13 degrees of freedom as
           vibrations may cause significant error
 Vibrational temperatures:     89.03   117.62   204.17   294.37   458.97
          (Kelvin)            464.07   547.62   548.14   601.49   619.68
                              678.49   770.43   812.65   901.15   941.82
                             1035.02  1051.68  1182.10  1206.55  1208.69
                             1231.30  1267.24  1336.97  1358.63  1378.70
                             1403.07  1414.07  1476.92  1503.11  1558.24
                             1632.81  1637.85  1667.84  1731.80  1745.48
                             1802.03  1894.19  1927.19  1955.21  1999.06
                             2006.78  2079.43  2132.26  2248.43  2271.75
                             2345.44  2372.33  2410.73  4382.21  4427.79
                             4559.86  4600.32  4634.51  4645.34  4650.97
                             4693.00  5393.37

 Zero-point correction=                           0.167065 (Hartree/Particle)
 Thermal correction to Energy=                    0.176636
 Thermal correction to Enthalpy=                  0.177580
 Thermal correction to Gibbs Free Energy=         0.131776
 Sum of electronic and zero-point Energies=           -516.299596
 Sum of electronic and thermal Energies=              -516.290025
 Sum of electronic and thermal Enthalpies=            -516.289081
 Sum of electronic and thermal Free Energies=         -516.334886

                     E (Thermal)             CV                S
                      KCal/Mol        Cal/Mol-Kelvin    Cal/Mol-Kelvin
 Total                  110.841             38.136             96.403
 Electronic               0.000              0.000              0.000
 Translational            0.889              2.981             41.102
 Rotational               0.889              2.981             30.512
 Vibrational            109.063             32.174             24.790
 Vibration     1          0.597              1.973              4.396
 Vibration     2          0.600              1.962              3.848
 Vibration     3          0.615              1.911              2.778
 Vibration     4          0.640              1.833              2.091
 Vibration     5          0.705              1.637              1.315
 Vibration     6          0.708              1.630              1.297
 Vibration     7          0.750              1.511              1.037
 Vibration     8          0.751              1.511              1.035
 Vibration     9          0.781              1.431              0.899
 Vibration    10          0.792              1.403              0.856
 Vibration    11          0.829              1.313              0.733
 Vibration    12          0.890              1.172              0.575
 Vibration    13          0.921              1.107              0.514

                           ! Non-Optimized Parameters !
 Normal termination of Gaussian 16 at Wed Dec  9 17:16:04 2020.

 ----------------------------------------------------------------------
 # B3LYP/6-311++G(d,p) empiricaldispersion=gd3bj scf=xqc pop=npa geom=c
 heck
 ----------------------------------------------------------------------

 ---------------------------------------
 CID_135998501_JID_2382_Energie_neutraal
 ---------------------------------------
 Structure from the checkpoint file:  "JID_2382.chk"
 Charge =  0 Multiplicity = 1

 SCF Done:  E(RB3LYP) =  -516.610985132     A.U. after   14 cycles
 Normal termination of Gaussian 16 at Wed Dec  9 17:17:43 2020.

 ----------------------------------------------------------------------
 # B3LYP/6-311++G(d,p) empiricaldispersion=gd3bj scf=xqc pop=npa geom=c
 heck
 ----------------------------------------------------------------------

 -------------------------------------
 CID_135998501_JID_2382_Energie_kation
 -------------------------------------
 Structure from the checkpoint file:  "JID_2382.chk"
 Charge =  1 Multiplicity = 2

 SCF Done:  E(UB3LYP) =  -516.332679576     A.U. after   19 cycles
 Normal termination of Gaussian 16 at Wed Dec  9 17:20:41 2020.
 Gaussian 16:  ES64L-G16RevA.03 25-Dec-2016

 ----------------------------------------------------------------------
 # B3LYP/6-311++G(d,p) empiricaldispersion=gd3bj scf=xqc pop=npa geom=c
 heck
 ----------------------------------------------------------------------

 ------------------------------------
 CID_135998501_JID_2382_Energie_anion
 ------------------------------------
 Structure from the checkpoint file:  "JID_2382.chk"
 Charge = -1 Multiplicity = 2

                         Standard orientation:
 ---------------------------------------------------------------------
 Center     Atomic      Atomic             Coordinates (Angstroms)
 Number     Number       Type             X           Y           Z
 ---------------------------------------------------------------------
      1          6           0        2.357771    1.172247    0.000756
      2          6           0        3.714388    0.527224    0.000531
      3          6           0        3.511584   -0.804014   -0.000481
      4          7           0        2.141007   -1.160716   -0.000855
      5          6           0        1.458593   -0.051338   -0.000106
      6          6           0       -0.001650   -0.016251   -0.000065
      7          6           0       -0.735991   -1.214958    0.000435
      8          6           0       -2.123329   -1.201471    0.000480
      9          6           0       -2.812172    0.018925    0.000015
     10          6           0       -2.099252    1.222228   -0.000497
     11          6           0       -0.710659    1.197338   -0.000533
     12          8           0       -4.174479    0.093932    0.000055
     13          1           0        2.183598    1.805222    0.881905
     14          1           0        2.184028    1.806540   -0.879532
     15          1           0        4.658779    1.055447    0.000856
     16          1           0        4.252671   -1.595028   -0.001033
     17          1           0       -0.191004   -2.152585    0.000787
     18          1           0       -2.679072   -2.137428    0.000929
     19          1           0       -2.648023    2.158057   -0.000890
     20          1           0       -0.169172    2.138760   -0.000974
     21          1           0       -4.538726   -0.805004    0.000295
 ---------------------------------------------------------------------

 SCF Done:  E(UB3LYP) =  -516.613844582     A.U. after   33 cycles
 SCF Done:  E(UB3LYP) =  -516.613844582     a.u. after    1 cycles

 The electronic state is 2-A.
 Alpha  occ. eigenvalues --  -19.02806 -14.11207 -10.08061 -10.03371 -10.02885
 Alpha  occ. eigenvalues --  -10.02603 -10.02342 -10.02001 -10.01983 -10.01846
 Alpha  occ. eigenvalues --  -10.01316  -9.99620  -0.93863  -0.77120  -0.70590
 Alpha  occ. eigenvalues --   -0.61143  -0.60791  -0.59377  -0.54298  -0.48834
 Alpha  occ. eigenvalues --   -0.46401  -0.41567  -0.40482  -0.38334  -0.34994
 Alpha  occ. eigenvalues --   -0.32743  -0.30799  -0.29244  -0.28352  -0.28264
 Alpha  occ. eigenvalues --   -0.28193  -0.25739  -0.23674  -0.20980  -0.20873
 Alpha  occ. eigenvalues --   -0.20180  -0.19612  -0.17580  -0.11835  -0.11217
 Alpha  occ. eigenvalues --   -0.09449  -0.05722   0.05645
 Alpha virt. eigenvalues --    0.07949   0.09631   0.10427   0.11285   0.11596
 Alpha virt. eigenvalues --    0.12332   0.12949   0.13078   0.14587   0.15119
 Alpha virt. eigenvalues --    0.16429   0.16804   0.17485   0.17780   0.18435

  Beta  occ. eigenvalues --  -19.02730 -14.10917 -10.07734 -10.03457 -10.02980
  Beta  occ. eigenvalues --  -10.02632 -10.02179 -10.02065 -10.01828 -10.01483
  Beta  occ. eigenvalues --  -10.01249  -9.99327  -0.93657  -0.76549  -0.70344
  Beta  occ. eigenvalues --   -0.60785  -0.60504  -0.58936  -0.53918  -0.48619
  Beta  occ. eigenvalues --   -0.46147  -0.41200  -0.40224  -0.38033  -0.34700
  Beta  occ. eigenvalues --   -0.32563  -0.30669  -0.28418  -0.28309  -0.28019
  Beta  occ. eigenvalues --   -0.27484  -0.25601  -0.23366  -0.20791  -0.20067
  Beta  occ. eigenvalues --   -0.19942  -0.19509  -0.16262  -0.11311  -0.10002
  Beta  occ. eigenvalues --   -0.09055  -0.04069
  Beta virt. eigenvalues --    0.07939   0.09590   0.10376   0.11265   0.11270
  Beta virt. eigenvalues --    0.11546   0.12686   0.12958   0.13296   0.14515
  Beta virt. eigenvalues --    0.16321   0.16341   0.16764   0.17754   0.17816

 Mulliken charges and spin densities:
               1          2
     1  C   -0.345279  -0.071023
     2  C   -0.215621   0.225272
     3  C   -0.114724  -0.014905
     4  N   -0.101296   0.158590
     5  C    0.073143   0.225026
     6  C    1.292611  -0.086633
     7  C    0.055271   0.199012
     8  C   -0.335662  -0.057300
     9  C   -0.518406   0.188738
    10  C   -0.413334  -0.053202
    11  C   -1.188142   0.168828
    12  O   -0.276964   0.015333
    13  H    0.073941   0.064976
    14  H    0.073615   0.065155
    15  H    0.109936  -0.013567
    16  H    0.096202  -0.000293
    17  H    0.160667  -0.010292
    18  H    0.078914   0.003655
    19  H    0.138789   0.004225
    20  H    0.115089  -0.011027
    21  H    0.241250  -0.000566
 Sum of Mulliken charges =  -1.00000   1.00000

 Dipole moment (field-independent basis, Debye):
    X=             -3.7515    Y=              0.4541    Z=              0.0019  Tot=              3.7788
 Quadrupole moment (field-independent basis, Debye-Ang):
   XX=           -106.5302   YY=            -79.6845   ZZ=            -81.5152
   XY=             10.3029   XZ=              0.0001   YZ=             -0.0040

 Summary of Natural Population Analysis:

                                       Natural Population
                Natural  -----------------------------------------------
    Atom  No    Charge         Core      Valence    Rydberg      Total
 -----------------------------------------------------------------------
      C    1   -0.24198      0.99961     2.23614    0.00622     3.24198
      C    2   -0.08100      0.99955     2.07156    0.00989     3.08100
      C    3   -0.02529      0.99953     2.01136    0.01441     3.02529
      N    4   -0.22280      0.99967     2.71142    0.01170     3.72280
      C    5    0.18369      0.99958     1.79880    0.01793     2.81631
      C    6   -0.04974      0.99948     2.03979    0.01046     3.04974
      C    7   -0.04039      0.99955     2.03213    0.00872     3.04039
      C    8   -0.17274      0.99953     2.16414    0.00907     3.17274
      C    9    0.20070      0.99940     1.78801    0.01189     2.79930
      C   10   -0.16039      0.99954     2.15142    0.00942     3.16039
      C   11   -0.05057      0.99955     2.04366    0.00735     3.05057
      O   12   -0.34292      0.99988     3.33707    0.00598     4.34292
      H   13    0.11429      0.00000     0.38441    0.00130     0.38571
      H   14    0.11429      0.00000     0.38441    0.00130     0.38571
      H   15    0.08548      0.00000     0.41340    0.00113     0.41452
      H   16    0.08123      0.00000     0.41773    0.00104     0.41877
      H   17    0.10672      0.00000     0.39220    0.00108     0.39328
      H   18    0.08725      0.00000     0.41147    0.00129     0.41275
      H   19    0.09556      0.00000     0.40288    0.00155     0.40444
      H   20    0.09327      0.00000     0.40559    0.00115     0.40673
      H   21    0.22534      0.00000     0.27220    0.00246     0.27466
 =======================================================================
   * Total *    0.00000     11.99488    29.86979    0.13534    42.00000

 Normal termination of Gaussian 16 at Wed Dec  9 17:25:21 2020.
