 Gaussian 16, Revision A.03,

 -----------------------------------------------------------
 # opt freq B3LYP/6-31G(d) empiricaldispersion=gd3bj scf=xqc
 -----------------------------------------------------------

 ------------------------------
 CID_57258264_JID_8149_neutraal
 ------------------------------
 Symbolic Z-matrix:
 Charge =  0 Multiplicity = 1

 SCF Done:  E(RB3LYP) =  -848.906898312     A.U. after   15 cycles
 SCF Done:  E(RB3LYP) =  -848.913472299     A.U. after   13 cycles
 SCF Done:  E(RB3LYP) =  -848.914758140     A.U. after   13 cycles
 SCF Done:  E(RB3LYP) =  -848.916692390     A.U. after   14 cycles
 SCF Done:  E(RB3LYP) =  -848.918309225     A.U. after   14 cycles
 SCF Done:  E(RB3LYP) =  -848.919593319     A.U. after   14 cycles
 SCF Done:  E(RB3LYP) =  -848.914492718     A.U. after   15 cycles
 SCF Done:  E(RB3LYP) =  -848.917804449     A.U. after   13 cycles
 SCF Done:  E(RB3LYP) =  -848.920240306     A.U. after   11 cycles
 SCF Done:  E(RB3LYP) =  -848.920936681     A.U. after   12 cycles
 SCF Done:  E(RB3LYP) =  -848.927020897     A.U. after    9 cycles
 SCF Done:  E(RB3LYP) =  -848.927021599     A.U. after    7 cycles
 SCF Done:  E(RB3LYP) =  -848.927021749     A.U. after    8 cycles
 SCF Done:  E(RB3LYP) =  -848.927021797     A.U. after    6 cycles
 SCF Done:  E(RB3LYP) =  -848.927021823     A.U. after    6 cycles
 Optimization completed.
    -- Stationary point found.
 Normal termination of Gaussian 16 at Fri Dec 11 19:26:20 2020.

 --------------------------------------------------------------------
 #N Geom=AllCheck Guess=TCheck SCRF=Check GenChk RB3LYP/6-31G(d) Freq
 --------------------------------------------------------------------

 Structure from the checkpoint file:  "JID_8149.chk"
 ------------------------------
 CID_57258264_JID_8149_neutraal
 ------------------------------
 Charge =  0 Multiplicity = 1

 SCF Done:  E(RB3LYP) =  -848.927021823     A.U. after    1 cycles

  Exact polarizability: 177.158   0.401 157.630   8.142  -3.532 136.218
 Approx polarizability: 247.130  -5.148 220.408  11.412  -3.820 196.299

                      1                      2                      3
                      A                      A                      A
 Frequencies --     28.4118                34.2437                46.0500
 Red. masses --      4.0697                 3.4684                 3.5980
 Frc consts  --      0.0019                 0.0024                 0.0045
 IR Inten    --      0.2214                 0.0889                 0.1099

                      4                      5                      6
                      A                      A                      A
 Frequencies --     52.8773                67.3567                72.0638
 Red. masses --      4.8516                 4.0722                 3.9081
 Frc consts  --      0.0080                 0.0109                 0.0120
 IR Inten    --      0.2710                 0.6480                 1.2285

                      7                      8                      9
                      A                      A                      A
 Frequencies --     80.0496                96.7773               108.0085
 Red. masses --      3.3365                 6.3502                 2.2913
 Frc consts  --      0.0126                 0.0350                 0.0157
 IR Inten    --      0.3087                 1.9857                 0.1501

                     10                     11                     12
                      A                      A                      A
 Frequencies --    128.5548               151.0227               160.4654
 Red. masses --      3.1685                 4.5956                 3.4246
 Frc consts  --      0.0309                 0.0618                 0.0520
 IR Inten    --      0.4007                 0.9172                 2.7810

                     13                     14                     15
                      A                      A                      A
 Frequencies --    201.5697               218.9659               235.3261
 Red. masses --      2.8511                 1.0400                 1.6365
 Frc consts  --      0.0683                 0.0294                 0.0534
 IR Inten    --      3.6943                 0.0188                 6.1159

                     16                     17                     18
                      A                      A                      A
 Frequencies --    243.6921               245.6262               266.4008
 Red. masses --      1.2707                 1.6908                 2.0232
 Frc consts  --      0.0445                 0.0601                 0.0846
 IR Inten    --      0.1601                 1.0297                 4.9534

                     19                     20                     21
                      A                      A                      A
 Frequencies --    270.9427               284.4742               293.6214
 Red. masses --      2.7430                 2.2670                 2.3411
 Frc consts  --      0.1186                 0.1081                 0.1189
 IR Inten    --      2.2232                 2.6707                 1.1300

                     22                     23                     24
                      A                      A                      A
 Frequencies --    325.6974               373.5055               409.3476
 Red. masses --      2.7799                 2.1583                 2.4563
 Frc consts  --      0.1737                 0.1774                 0.2425
 IR Inten    --      0.8927                 0.5874                 2.3497

                     25                     26                     27
                      A                      A                      A
 Frequencies --    411.8638               422.0412               426.2547
 Red. masses --      2.1605                 2.2462                 2.2152
 Frc consts  --      0.2159                 0.2357                 0.2371
 IR Inten    --      2.9098                 0.6580                 0.7545

                     28                     29                     30
                      A                      A                      A
 Frequencies --    450.3227               479.5257               515.3246
 Red. masses --      3.2127                 3.4989                 4.4561
 Frc consts  --      0.3839                 0.4740                 0.6972
 IR Inten    --      2.0235                 2.5490                 8.3266

                     31                     32                     33
                      A                      A                      A
 Frequencies --    603.4352               629.6939               702.1374
 Red. masses --      4.3907                 3.9252                 2.9120
 Frc consts  --      0.9420                 0.9170                 0.8458
 IR Inten    --     10.5678                 8.4344                13.9222

                     34                     35                     36
                      A                      A                      A
 Frequencies --    714.3177               751.0954               782.4642
 Red. masses --      3.2434                 2.0095                 1.7048
 Frc consts  --      0.9751                 0.6679                 0.6150
 IR Inten    --      3.6550                26.1043                 2.4663

                     37                     38                     39
                      A                      A                      A
 Frequencies --    785.8575               797.4061               823.0155
 Red. masses --      2.3003                 2.7486                 1.8988
 Frc consts  --      0.8370                 1.0297                 0.7578
 IR Inten    --      5.6696                 9.4554                 0.4782

                     40                     41                     42
                      A                      A                      A
 Frequencies --    881.0663               889.8793               898.6869
 Red. masses --      2.9885                 1.7655                 1.3827
 Frc consts  --      1.3669                 0.8237                 0.6580
 IR Inten    --     17.1473                 2.6753                 1.1347

                     43                     44                     45
                      A                      A                      A
 Frequencies --    921.0001               924.0929               947.0581
 Red. masses --      1.9446                 2.0865                 1.1967
 Frc consts  --      0.9719                 1.0498                 0.6324
 IR Inten    --      3.3345                 0.7809                 1.9889

                     46                     47                     48
                      A                      A                      A
 Frequencies --    959.7601               960.8690               981.9017
 Red. masses --      1.8594                 2.9315                 1.4503
 Frc consts  --      1.0091                 1.5946                 0.8238
 IR Inten    --     14.2708                33.3202                 3.8677

                     49                     50                     51
                      A                      A                      A
 Frequencies --    994.4829               996.4874              1015.6611
 Red. masses --      1.3338                 1.8794                 1.7856
 Frc consts  --      0.7772                 1.0996                 1.0853
 IR Inten    --      3.8275                 6.0719                 0.2105

                     52                     53                     54
                      A                      A                      A
 Frequencies --   1030.1968              1052.2122              1057.9091
 Red. masses --      2.2060                 2.9139                 2.7964
 Frc consts  --      1.3794                 1.9007                 1.8439
 IR Inten    --      7.6856                14.7519                 0.6864

                     55                     56                     57
                      A                      A                      A
 Frequencies --   1106.0854              1127.2374              1148.9259
 Red. masses --      1.9184                 2.0354                 2.9953
 Frc consts  --      1.3828                 1.5238                 2.3296
 IR Inten    --     61.7493                91.4125               219.1160

                     58                     59                     60
                      A                      A                      A
 Frequencies --   1155.5433              1159.6217              1166.0487
 Red. masses --      1.9618                 2.3297                 2.1454
 Frc consts  --      1.5434                 1.8458                 1.7187
 IR Inten    --      2.6248                71.4830                59.9830

                     61                     62                     63
                      A                      A                      A
 Frequencies --   1197.1469              1212.2644              1217.3282
 Red. masses --      2.0340                 1.9886                 1.8022
 Frc consts  --      1.7175                 1.7218                 1.5735
 IR Inten    --    106.1512                48.5008                22.7382

                     64                     65                     66
                      A                      A                      A
 Frequencies --   1264.3865              1269.5706              1280.4589
 Red. masses --      1.4536                 1.4286                 1.4592
 Frc consts  --      1.3692                 1.3567                 1.4096
 IR Inten    --     68.1315                29.0568                52.1579

                     67                     68                     69
                      A                      A                      A
 Frequencies --   1299.3322              1324.4629              1329.7677
 Red. masses --      1.5840                 1.2680                 1.3746
 Frc consts  --      1.5756                 1.3105                 1.4321
 IR Inten    --    187.8603                 2.8048                48.0473

                     70                     71                     72
                      A                      A                      A
 Frequencies --   1360.5292              1367.1402              1372.1394
 Red. masses --      1.2663                 1.4318                 1.2986
 Frc consts  --      1.3810                 1.5767                 1.4405
 IR Inten    --      1.9156                16.8746                37.0892

                     73                     74                     75
                      A                      A                      A
 Frequencies --   1392.6589              1399.9471              1406.6332
 Red. masses --      1.3219                 1.3679                 1.4670
 Frc consts  --      1.5106                 1.5795                 1.7102
 IR Inten    --      1.1123                 6.4575                12.3645

                     76                     77                     78
                      A                      A                      A
 Frequencies --   1415.2377              1417.3093              1429.5019
 Red. masses --      1.4134                 1.4559                 1.2747
 Frc consts  --      1.6679                 1.7231                 1.5347
 IR Inten    --      4.1106                 3.5590                 2.2524

                     79                     80                     81
                      A                      A                      A
 Frequencies --   1441.7210              1443.7075              1449.7336
 Red. masses --      1.2968                 1.2277                 1.2410
 Frc consts  --      1.5882                 1.5077                 1.5368
 IR Inten    --      2.1980                 3.9507                 5.5359

                     82                     83                     84
                      A                      A                      A
 Frequencies --   1502.3095              1504.7998              1510.9168
 Red. masses --      1.0843                 1.1017                 1.0822
 Frc consts  --      1.4418                 1.4698                 1.4556
 IR Inten    --      8.1795                 5.1086                 5.4869

                     85                     86                     87
                      A                      A                      A
 Frequencies --   1517.9472              1522.5921              1527.4879
 Red. masses --      1.0653                 1.0663                 1.0473
 Frc consts  --      1.4462                 1.4564                 1.4397
 IR Inten    --      0.8125                 4.4805                 9.2083

                     88                     89                     90
                      A                      A                      A
 Frequencies --   1530.0348              1530.9807              1534.3345
 Red. masses --      1.0456                 1.0529                 1.0582
 Frc consts  --      1.4422                 1.4541                 1.4678
 IR Inten    --      6.7794                 1.4611                 1.7281

                     91                     92                     93
                      A                      A                      A
 Frequencies --   1537.8863              1542.7735              1547.6930
 Red. masses --      1.0621                 1.0539                 1.0472
 Frc consts  --      1.4800                 1.4780                 1.4780
 IR Inten    --      6.6768                 1.6276                 8.4040

                     94                     95                     96
                      A                      A                      A
 Frequencies --   1760.6803              1841.3695              1844.9610
 Red. masses --      6.8999                11.5411                11.7629
 Frc consts  --     12.6024                23.0558                23.5906
 IR Inten    --     30.2418               214.9719               267.1732

                     97                     98                     99
                      A                      A                      A
 Frequencies --   3028.5412              3034.0766              3035.5456
 Red. masses --      1.0735                 1.0762                 1.0389
 Frc consts  --      5.8011                 5.8372                 5.6404
 IR Inten    --      3.8082                 2.4359                17.4549

                    100                    101                    102
                      A                      A                      A
 Frequencies --   3038.3350              3039.6249              3045.9816
 Red. masses --      1.0478                 1.0670                 1.0471
 Frc consts  --      5.6992                 5.8084                 5.7241
 IR Inten    --     22.9585                12.7687                37.5786

                    103                    104                    105
                      A                      A                      A
 Frequencies --   3049.1142              3050.6397              3071.0523
 Red. masses --      1.0395                 1.0639                 1.0667
 Frc consts  --      5.6938                 5.8334                 5.9275
 IR Inten    --      9.9511                71.1631                14.5635

                    106                    107                    108
                      A                      A                      A
 Frequencies --   3071.5041              3090.5372              3099.2488
 Red. masses --      1.0597                 1.0944                 1.0993
 Frc consts  --      5.8900                 6.1586                 6.2214
 IR Inten    --     16.1898                 2.7418                 2.1761

                    109                    110                    111
                      A                      A                      A
 Frequencies --   3106.1934              3107.2130              3111.2018
 Red. masses --      1.0984                 1.1012                 1.1019
 Frc consts  --      6.2441                 6.2643                 6.2840
 IR Inten    --     69.0771                17.2047                39.3220

                    112                    113                    114
                      A                      A                      A
 Frequencies --   3119.8674              3120.6776              3123.3769
 Red. masses --      1.1014                 1.1007                 1.0973
 Frc consts  --      6.3165                 6.3158                 6.3069
 IR Inten    --     49.6248                25.0534                 5.3323

                    115                    116                    117
                      A                      A                      A
 Frequencies --   3125.8126              3127.9532              3129.7040
 Red. masses --      1.1042                 1.0981                 1.0997
 Frc consts  --      6.3566                 6.3302                 6.3467
 IR Inten    --     35.4664                23.6228                34.3215

                    118                    119                    120
                      A                      A                      A
 Frequencies --   3148.2527              3241.1932              3265.1306
 Red. masses --      1.0969                 1.0877                 1.0995
 Frc consts  --      6.4057                 6.7322                 6.9066
 IR Inten    --     27.5336                10.4979                12.5862

 - Thermochemistry -
 -------------------
 Temperature   298.150 Kelvin.  Pressure   1.00000 Atm.
 Atom     1 has atomic number  6 and mass  12.00000

 Molecular mass:   256.16746 amu.
 Principal axes and moments of inertia in atomic units:
                           1         2         3
     Eigenvalues --  3747.893295820.153796975.44088
           X            0.99972  -0.00518  -0.02296
           Y            0.00513   0.99998  -0.00261
           Z            0.02297   0.00250   0.99973
 This molecule is an asymmetric top.
 Rotational symmetry number  1.
 Warning -- assumption of classical behavior for rotation
           may cause significant error
 Rotational temperatures (Kelvin)      0.02311     0.01488     0.01242
 Rotational constants (GHZ):           0.48153     0.31008     0.25873
 Zero-point vibrational energy     965943.0 (Joules/Mol)
                                  230.86591 (Kcal/Mol)
 Warning -- explicit consideration of  31 degrees of freedom as
           vibrations may cause significant error
 Vibrational temperatures:     40.88    49.27    66.26    76.08    96.91
          (Kelvin)            103.68   115.17   139.24   155.40   184.96
                              217.29   230.87   290.01   315.04   338.58
                              350.62   353.40   383.29   389.83   409.29
                              422.46   468.61   537.39   588.96   592.58
                              607.22   613.29   647.91   689.93   741.44
                              868.21   905.99  1010.22  1027.74  1080.66
                             1125.79  1130.67  1147.29  1184.14  1267.66
                             1280.34  1293.01  1325.11  1329.56  1362.61
                             1380.88  1382.48  1412.74  1430.84  1433.72
                             1461.31  1482.22  1513.90  1522.10  1591.41
                             1621.84  1653.05  1662.57  1668.44  1677.68
                             1722.43  1744.18  1751.46  1819.17  1826.63
                             1842.29  1869.45  1905.61  1913.24  1957.50
                             1967.01  1974.20  2003.73  2014.21  2023.83
                             2036.21  2039.19  2056.73  2074.31  2077.17
                             2085.84  2161.49  2165.07  2173.87  2183.99
                             2190.67  2197.71  2201.38  2202.74  2207.57
                             2212.68  2219.71  2226.78  2533.23  2649.32
                             2654.49  4357.40  4365.36  4367.47  4371.49
                             4373.34  4382.49  4387.00  4389.19  4418.56
                             4419.21  4446.59  4459.13  4469.12  4470.59
                             4476.33  4488.79  4489.96  4493.84  4497.35
                             4500.43  4502.95  4529.63  4663.35  4697.79

 Zero-point correction=                           0.367908 (Hartree/Particle)
 Thermal correction to Energy=                    0.388881
 Thermal correction to Enthalpy=                  0.389825
 Thermal correction to Gibbs Free Energy=         0.317066
 Sum of electronic and zero-point Energies=           -848.559114
 Sum of electronic and thermal Energies=              -848.538141
 Sum of electronic and thermal Enthalpies=            -848.537197
 Sum of electronic and thermal Free Energies=         -848.609956

                     E (Thermal)             CV                S
                      KCal/Mol        Cal/Mol-Kelvin    Cal/Mol-Kelvin
 Total                  244.026             76.344            153.134
 Electronic               0.000              0.000              0.000
 Translational            0.889              2.981             42.522
 Rotational               0.889              2.981             33.386
 Vibrational            242.249             70.382             77.225
 Vibration     1          0.593              1.984              5.937
 Vibration     2          0.594              1.983              5.567
 Vibration     3          0.595              1.979              4.980
 Vibration     4          0.596              1.976              4.707
 Vibration     5          0.598              1.970              4.229
 Vibration     6          0.598              1.967              4.096
 Vibration     7          0.600              1.963              3.890
 Vibration     8          0.603              1.951              3.518
 Vibration     9          0.606              1.943              3.304
 Vibration    10          0.611              1.925              2.968
 Vibration    11          0.618              1.902              2.659
 Vibration    12          0.622              1.891              2.544
 Vibration    13          0.638              1.838              2.119
 Vibration    14          0.647              1.812              1.968
 Vibration    15          0.655              1.787              1.838
 Vibration    16          0.659              1.773              1.776
 Vibration    17          0.660              1.770              1.762
 Vibration    18          0.672              1.735              1.619
 Vibration    19          0.675              1.727              1.590
 Vibration    20          0.683              1.702              1.507
 Vibration    21          0.688              1.686              1.453
 Vibration    22          0.710              1.624              1.281
 Vibration    23          0.745              1.526              1.065
 Vibration    24          0.774              1.450              0.929
 Vibration    25          0.776              1.444              0.920
 Vibration    26          0.784              1.422              0.885
 Vibration    27          0.788              1.413              0.871
 Vibration    28          0.809              1.360              0.795
 Vibration    29          0.836              1.295              0.711
 Vibration    30          0.870              1.216              0.621
 Vibration    31          0.962              1.025              0.444

 Optimization completed.
    -- Stationary point found.
 Normal termination of Gaussian 16 at Fri Dec 11 19:46:41 2020.

 ----------------------------------------------------------------------
 # B3LYP/6-311++G(d,p) empiricaldispersion=gd3bj scf=xqc pop=npa geom=c
 heck
 ----------------------------------------------------------------------

 --------------------------------------
 CID_57258264_JID_8149_Energie_neutraal
 --------------------------------------
 Structure from the checkpoint file:  "JID_8149.chk"
 Charge =  0 Multiplicity = 1

 SCF Done:  E(RB3LYP) =  -849.172872748     A.U. after   14 cycles
 Normal termination of Gaussian 16 at Fri Dec 11 19:54:35 2020.

 ----------------------------------------------------------------------
 # B3LYP/6-311++G(d,p) empiricaldispersion=gd3bj scf=xqc pop=npa geom=c
 heck
 ----------------------------------------------------------------------

 ------------------------------------
 CID_57258264_JID_8149_Energie_kation
 ------------------------------------
 Structure from the checkpoint file:  "JID_8149.chk"
 Charge =  1 Multiplicity = 2

 SCF Done:  E(UB3LYP) =  -848.840634099     A.U. after   29 cycles
 Normal termination of Gaussian 16 at Fri Dec 11 20:16:37 2020.
 Gaussian 16:  ES64L-G16RevA.03 25-Dec-2016

 ----------------------------------------------------------------------
 # B3LYP/6-311++G(d,p) empiricaldispersion=gd3bj scf=xqc pop=npa geom=c
 heck
 ----------------------------------------------------------------------

 -----------------------------------
 CID_57258264_JID_8149_Energie_anion
 -----------------------------------
 Structure from the checkpoint file:  "JID_8149.chk"
 Charge = -1 Multiplicity = 2

                         Standard orientation:
 ---------------------------------------------------------------------
 Center     Atomic      Atomic             Coordinates (Angstroms)
 Number     Number       Type             X           Y           Z
 ---------------------------------------------------------------------
      1          6           0       -1.961050   -1.636953    2.261515
      2          6           0       -2.257858   -0.457136    1.331652
      3          6           0       -2.663639   -0.868691   -0.095402
      4          6           0       -3.977870   -1.656336   -0.127054
      5          6           0       -2.778017    0.368198   -1.016832
      6          6           0       -1.446660    1.064063   -1.162900
      7          8           0       -0.478819    0.606977   -1.719625
      8          8           0       -1.468322    2.290759   -0.542025
      9          6           0       -0.297587    3.029912   -0.457946
     10          6           0        0.802564    2.617740    0.164099
     11          8           0        0.842129    1.376666    0.750004
     12          6           0        2.070698    0.870587    1.110229
     13          8           0        3.092935    1.506175    1.025642
     14          6           0        1.924095   -0.560501    1.556295
     15          6           0        1.416790   -1.459408    0.408614
     16          6           0        2.213546   -1.351009   -0.901804
     17          6           0        3.694834   -1.699568   -0.713722
     18          6           0        1.558854   -2.227839   -1.974753
     19          1           0       -2.847734   -2.253436    2.442510
     20          1           0       -1.603842   -1.283650    3.235268
     21          1           0       -1.185403   -2.285559    1.836710
     22          1           0       -3.057882    0.162499    1.761634
     23          1           0       -1.370569    0.184003    1.283752
     24          1           0       -1.868191   -1.503764   -0.509458
     25          1           0       -4.799573   -1.060585    0.290550
     26          1           0       -4.249346   -1.930692   -1.152734
     27          1           0       -3.905801   -2.580379    0.454509
     28          1           0       -3.088278    0.045459   -2.016745
     29          1           0       -3.526582    1.064985   -0.628413
     30          1           0       -0.369399    4.015461   -0.900647
     31          1           0        1.704292    3.212032    0.235196
     32          1           0        2.899199   -0.885991    1.923730
     33          1           0        1.211723   -0.601470    2.388799
     34          1           0        1.431764   -2.499372    0.762509
     35          1           0        0.374483   -1.204232    0.200832
     36          1           0        2.143589   -0.310769   -1.248055
     37          1           0        3.810612   -2.713212   -0.307123
     38          1           0        4.225559   -1.663870   -1.671797
     39          1           0        4.194396   -0.999734   -0.035757
     40          1           0        0.526428   -1.910190   -2.153342
     41          1           0        2.101873   -2.157051   -2.924085
     42          1           0        1.553107   -3.283449   -1.671753
 ---------------------------------------------------------------------

 SCF Done:  E(UB3LYP) =  -849.161743674     A.U. after   33 cycles
 SCF Done:  E(UB3LYP) =  -849.161743674     a.u. after    1 cycles

 The electronic state is 2-A.
 Alpha  occ. eigenvalues --  -19.07962 -19.07915 -19.01306 -19.00946 -10.20037
 Alpha  occ. eigenvalues --  -10.18976 -10.13082 -10.12738 -10.08166 -10.08126
 Alpha  occ. eigenvalues --  -10.07919 -10.07149 -10.06704 -10.06237 -10.06115
 Alpha  occ. eigenvalues --  -10.05961 -10.05552 -10.05501  -1.02046  -1.00816
 Alpha  occ. eigenvalues --   -0.93149  -0.92651  -0.72610  -0.72035  -0.69153
 Alpha  occ. eigenvalues --   -0.65947  -0.64151  -0.61360  -0.58677  -0.57201
 Alpha  occ. eigenvalues --   -0.54544  -0.53105  -0.50331  -0.46354  -0.46282
 Alpha  occ. eigenvalues --   -0.44183  -0.41225  -0.39874  -0.39176  -0.38460
 Alpha  occ. eigenvalues --   -0.37931  -0.36695  -0.35849  -0.35700  -0.35102
 Alpha  occ. eigenvalues --   -0.33800  -0.33273  -0.32542  -0.31011  -0.30512
 Alpha  occ. eigenvalues --   -0.30095  -0.29385  -0.29037  -0.28347  -0.28173
 Alpha  occ. eigenvalues --   -0.27569  -0.26420  -0.26203  -0.25889  -0.25442
 Alpha  occ. eigenvalues --   -0.23323  -0.23200  -0.22695  -0.22471  -0.22176
 Alpha  occ. eigenvalues --   -0.22039  -0.21918  -0.18492  -0.17899  -0.14976
 Alpha  occ. eigenvalues --    0.04521
 Alpha virt. eigenvalues --    0.06604   0.07024   0.07403   0.07593   0.08542
 Alpha virt. eigenvalues --    0.08868   0.09165   0.09517   0.09734   0.10441
 Alpha virt. eigenvalues --    0.11133   0.11373   0.11559   0.11609   0.12074

  Beta  occ. eigenvalues --  -19.07972 -19.07951 -19.01272 -19.00839 -10.19946
  Beta  occ. eigenvalues --  -10.18764 -10.13022 -10.12649 -10.08160 -10.08115
  Beta  occ. eigenvalues --  -10.07929 -10.07148 -10.06675 -10.06224 -10.06109
  Beta  occ. eigenvalues --  -10.05923 -10.05545 -10.05465  -1.01966  -1.00727
  Beta  occ. eigenvalues --   -0.93063  -0.92524  -0.72551  -0.71982  -0.69019
  Beta  occ. eigenvalues --   -0.65853  -0.64097  -0.61276  -0.58661  -0.57052
  Beta  occ. eigenvalues --   -0.54457  -0.53027  -0.50239  -0.46302  -0.46206
  Beta  occ. eigenvalues --   -0.44105  -0.41117  -0.39721  -0.39039  -0.38295
  Beta  occ. eigenvalues --   -0.37742  -0.36546  -0.35772  -0.35585  -0.35020
  Beta  occ. eigenvalues --   -0.33730  -0.33232  -0.32490  -0.30921  -0.30421
  Beta  occ. eigenvalues --   -0.30067  -0.29329  -0.29013  -0.28302  -0.28130
  Beta  occ. eigenvalues --   -0.27475  -0.26351  -0.26129  -0.25843  -0.25084
  Beta  occ. eigenvalues --   -0.23286  -0.23138  -0.22662  -0.22422  -0.22118
  Beta  occ. eigenvalues --   -0.21968  -0.21832  -0.18429  -0.17822  -0.14612
  Beta virt. eigenvalues --    0.06770   0.07392   0.07562   0.07899   0.08183
  Beta virt. eigenvalues --    0.08871   0.09219   0.09592   0.09702   0.10295
  Beta virt. eigenvalues --    0.10524   0.11358   0.11503   0.11766   0.11835

 Mulliken charges and spin densities:
               1          2
     1  C    0.921179  -1.630445
     2  C   -0.694473   0.494994
     3  C   -0.590218   1.243780
     4  C    0.908942  -1.678138
     5  C   -0.041793  -0.676555
     6  C   -0.441037   0.298851
     7  O   -0.138740   0.016253
     8  O    0.065010  -0.003248
     9  C   -0.497291   0.102248
    10  C    0.383043  -0.000167
    11  O    0.026698  -0.017799
    12  C   -0.251193   0.148109
    13  O   -0.248118   0.044174
    14  C   -0.003393  -0.488766
    15  C    0.275519   0.071080
    16  C   -0.015211   0.140954
    17  C   -0.519186  -0.168002
    18  C   -0.428634  -0.169536
    19  H   -0.125364   0.270472
    20  H   -0.167820   0.307833
    21  H   -0.389449   0.563002
    22  H   -0.067588   0.226453
    23  H    0.319741  -0.127375
    24  H    0.470675  -0.198901
    25  H   -0.177939   0.319568
    26  H   -0.315182   0.452417
    27  H   -0.192744   0.328660
    28  H   -0.105197   0.281554
    29  H    0.108674   0.084066
    30  H    0.114349   0.048608
    31  H    0.169344   0.004500
    32  H    0.007345   0.187581
    33  H   -0.032553   0.222954
    34  H   -0.152415   0.348759
    35  H    0.153072  -0.413884
    36  H    0.206738  -0.003925
    37  H    0.045522   0.092647
    38  H    0.098306   0.019593
    39  H    0.177229  -0.004128
    40  H    0.029337   0.127736
    41  H    0.056461   0.065568
    42  H    0.058357   0.068455
 Sum of Mulliken charges =  -1.00000   1.00000

 Dipole moment (field-independent basis, Debye):
    X=              2.7997    Y=              4.1154    Z=             -2.1011  Tot=              5.4027
 Quadrupole moment (field-independent basis, Debye-Ang):
   XX=           -181.5891   YY=           -151.3593   ZZ=           -152.2427
   XY=            -12.7599   XZ=             -2.5659   YZ=              3.0103

 Summary of Natural Population Analysis:

                                       Natural Population
                Natural  -----------------------------------------------
    Atom  No    Charge         Core      Valence    Rydberg      Total
 -----------------------------------------------------------------------
      C    1   -0.28529      0.99966     2.28033    0.00530     3.28529
      C    2   -0.19564      0.99961     2.18741    0.00862     3.19564
      C    3   -0.10805      0.99960     2.09914    0.00932     3.10805
      C    4   -0.28385      0.99965     2.27826    0.00594     3.28385
      C    5   -0.23315      0.99956     2.22443    0.00916     3.23315
      C    6    0.42381      0.99967     1.55043    0.02609     2.57619
      O    7   -0.29781      0.99986     3.29211    0.00584     4.29781
      O    8   -0.28309      0.99985     3.27437    0.00887     4.28309
      C    9    0.05161      0.99943     1.93614    0.01282     2.94839
      C   10    0.05605      0.99942     1.93286    0.01166     2.94395
      O   11   -0.28327      0.99984     3.27344    0.00999     4.28327
      C   12    0.43696      0.99968     1.53810    0.02527     2.56304
      O   13   -0.29750      0.99986     3.29249    0.00514     4.29750
      C   14   -0.23734      0.99958     2.22923    0.00852     3.23734
      C   15   -0.18569      0.99960     2.17595    0.01014     3.18569
      C   16   -0.11963      0.99961     2.11225    0.00777     3.11963
      C   17   -0.28657      0.99965     2.28237    0.00455     3.28657
      C   18   -0.28247      0.99965     2.27710    0.00571     3.28247
      H   19    0.09639      0.00000     0.40253    0.00108     0.40361
      H   20    0.09948      0.00000     0.39951    0.00102     0.40052
      H   21    0.09836      0.00000     0.40029    0.00135     0.40164
      H   22    0.09286      0.00000     0.40602    0.00112     0.40714
      H   23    0.10371      0.00000     0.39389    0.00240     0.39629
      H   24    0.09760      0.00000     0.39980    0.00260     0.40240
      H   25    0.09641      0.00000     0.40235    0.00124     0.40359
      H   26    0.10004      0.00000     0.39872    0.00124     0.39996
      H   27    0.10220      0.00000     0.39686    0.00094     0.39780
      H   28    0.11242      0.00000     0.38659    0.00099     0.38758
      H   29    0.10659      0.00000     0.39206    0.00135     0.39341
      H   30    0.08903      0.00000     0.41020    0.00078     0.41097
      H   31    0.10259      0.00000     0.39627    0.00113     0.39741
      H   32    0.10666      0.00000     0.39244    0.00090     0.39334
      H   33    0.11598      0.00000     0.38255    0.00147     0.38402
      H   34    0.09675      0.00000     0.40181    0.00144     0.40325
      H   35    0.10533      0.00000     0.39175    0.00293     0.39467
      H   36    0.10069      0.00000     0.39733    0.00198     0.39931
      H   37    0.09349      0.00000     0.40573    0.00078     0.40651
      H   38    0.09535      0.00000     0.40392    0.00073     0.40465
      H   39    0.10358      0.00000     0.39563    0.00079     0.39642
      H   40    0.10853      0.00000     0.39046    0.00101     0.39147
      H   41    0.09413      0.00000     0.40520    0.00067     0.40587
      H   42    0.09278      0.00000     0.40645    0.00077     0.40722
 =======================================================================
   * Total *    0.00000     17.99380    51.79476    0.21144    70.00000

 Normal termination of Gaussian 16 at Fri Dec 11 20:41:56 2020.
