 Gaussian 16, Revision A.03,

 -----------------------------------------------------------
 # opt freq B3LYP/6-31G(d) empiricaldispersion=gd3bj scf=xqc
 -----------------------------------------------------------

 ------------------------------
 CID_21484140_JID_2014_neutraal
 ------------------------------
 Symbolic Z-matrix:
 Charge =  0 Multiplicity = 1

 SCF Done:  E(RB3LYP) =  -536.159008287     A.U. after   14 cycles
 SCF Done:  E(RB3LYP) =  -536.163035366     A.U. after   12 cycles
 SCF Done:  E(RB3LYP) =  -536.162525881     A.U. after   12 cycles
 SCF Done:  E(RB3LYP) =  -536.163693094     A.U. after   11 cycles
 SCF Done:  E(RB3LYP) =  -536.163714276     A.U. after   11 cycles
 SCF Done:  E(RB3LYP) =  -536.163763790     A.U. after   10 cycles
 SCF Done:  E(RB3LYP) =  -536.163783068     A.U. after   10 cycles
 SCF Done:  E(RB3LYP) =  -536.163792845     A.U. after   10 cycles
 SCF Done:  E(RB3LYP) =  -536.163797922     A.U. after   10 cycles
 SCF Done:  E(RB3LYP) =  -536.163799669     A.U. after    9 cycles
 SCF Done:  E(RB3LYP) =  -536.163799822     A.U. after    7 cycles
 SCF Done:  E(RB3LYP) =  -536.163799869     A.U. after    7 cycles
 SCF Done:  E(RB3LYP) =  -536.163799900     A.U. after    7 cycles
 SCF Done:  E(RB3LYP) =  -536.163799917     A.U. after    7 cycles
 Optimization completed.
    -- Stationary point found.
 Normal termination of Gaussian 16 at Wed Dec  9 16:46:06 2020.

 --------------------------------------------------------------------
 #N Geom=AllCheck Guess=TCheck SCRF=Check GenChk RB3LYP/6-31G(d) Freq
 --------------------------------------------------------------------

 Structure from the checkpoint file:  "JID_2014.chk"
 ------------------------------
 CID_21484140_JID_2014_neutraal
 ------------------------------
 Charge =  0 Multiplicity = 1

 SCF Done:  E(RB3LYP) =  -536.163799916     A.U. after    1 cycles

  Exact polarizability: 159.739   2.266 108.460  -0.711   0.022  67.244
 Approx polarizability: 217.643   7.008 184.000   0.600   0.466  95.217

                      1                      2                      3
                      A                      A                      A
 Frequencies --     39.0819                74.3837               137.7325
 Red. masses --      4.1173                 3.0578                 3.9851
 Frc consts  --      0.0037                 0.0100                 0.0445
 IR Inten    --      3.9175                 0.3656                 2.5933

                      4                      5                      6
                      A                      A                      A
 Frequencies --    152.9033               207.5686               225.5142
 Red. masses --      3.2681                 1.1286                 1.0443
 Frc consts  --      0.0450                 0.0286                 0.0313
 IR Inten    --      0.7185                 0.1409                28.9743

                      7                      8                      9
                      A                      A                      A
 Frequencies --    248.0867               271.9437               278.5832
 Red. masses --      1.0650                 1.0641                 2.9731
 Frc consts  --      0.0386                 0.0464                 0.1359
 IR Inten    --      0.2088                 0.0553                 0.6746

                     10                     11                     12
                      A                      A                      A
 Frequencies --    303.3546               342.7259               368.4727
 Red. masses --      3.0554                 2.9678                 3.3459
 Frc consts  --      0.1657                 0.2054                 0.2677
 IR Inten    --      1.4924                 1.3649                 6.7550

                     13                     14                     15
                      A                      A                      A
 Frequencies --    375.4128               420.0567               437.1424
 Red. masses --      2.9121                 2.6415                 3.8302
 Frc consts  --      0.2418                 0.2746                 0.4312
 IR Inten    --      3.7147                 0.5508                 3.6008

                     16                     17                     18
                      A                      A                      A
 Frequencies --    460.8207               480.0547               531.3035
 Red. masses --      3.1442                 2.9612                 2.3844
 Frc consts  --      0.3934                 0.4021                 0.3966
 IR Inten    --      7.6796                 1.8821                14.5891

                     19                     20                     21
                      A                      A                      A
 Frequencies --    600.2381               651.5524               687.0776
 Red. masses --      4.9323                 7.2744                 1.5156
 Frc consts  --      1.0470                 1.8195                 0.4215
 IR Inten    --      2.9839                 0.7634               389.8910

                     22                     23                     24
                      A                      A                      A
 Frequencies --    746.9948               757.0533               809.3625
 Red. masses --      5.9246                 4.6544                 3.4167
 Frc consts  --      1.9478                 1.5717                 1.3187
 IR Inten    --     12.7386                 8.5454                 2.7529

                     25                     26                     27
                      A                      A                      A
 Frequencies --    840.3502               866.3167               899.7743
 Red. masses --      1.5907                 4.3311                 1.4097
 Frc consts  --      0.6619                 1.9151                 0.6724
 IR Inten    --     46.1535                 2.7124                10.5690

                     28                     29                     30
                      A                      A                      A
 Frequencies --    932.3308               934.3330               954.3291
 Red. masses --      1.7710                 1.6477                 1.3017
 Frc consts  --      0.9070                 0.8475                 0.6985
 IR Inten    --      4.4910                 0.0386                 2.6694

                     31                     32                     33
                      A                      A                      A
 Frequencies --    962.0923               979.0454              1037.3029
 Red. masses --      3.8522                 1.1976                 2.6588
 Frc consts  --      2.1008                 0.6764                 1.6856
 IR Inten    --     68.7479                 0.3039                 7.5277

                     34                     35                     36
                      A                      A                      A
 Frequencies --   1063.2987              1070.0412              1122.1768
 Red. masses --      1.4036                 1.4134                 1.4482
 Frc consts  --      0.9350                 0.9535                 1.0745
 IR Inten    --      0.2208                 1.6099                 0.6703

                     37                     38                     39
                      A                      A                      A
 Frequencies --   1165.7082              1231.6974              1280.8723
 Red. masses --      1.1765                 2.2812                 2.6660
 Frc consts  --      0.9420                 2.0391                 2.5771
 IR Inten    --     12.1254               277.2644                15.5675

                     40                     41                     42
                      A                      A                      A
 Frequencies --   1288.1582              1310.2945              1323.5728
 Red. masses --      2.6341                 2.2474                 4.4945
 Frc consts  --      2.5753                 2.2734                 4.6391
 IR Inten    --     68.6455               111.7896                 3.2188

                     43                     44                     45
                      A                      A                      A
 Frequencies --   1340.2405              1363.6861              1419.3103
 Red. masses --      1.6642                 6.5963                 1.2848
 Frc consts  --      1.7613                 7.2273                 1.5249
 IR Inten    --     19.2390               101.1692                17.4423

                     46                     47                     48
                      A                      A                      A
 Frequencies --   1424.0099              1449.2832              1467.2031
 Red. masses --      1.2899                 1.2449                 2.9513
 Frc consts  --      1.5412                 1.5406                 3.7432
 IR Inten    --     14.1947                27.8805                91.9991

                     49                     50                     51
                      A                      A                      A
 Frequencies --   1498.9096              1519.4940              1520.3763
 Red. masses --      1.0476                 1.0516                 1.0530
 Frc consts  --      1.3867                 1.4305                 1.4341
 IR Inten    --      0.7274                 0.3820                 3.3377

                     52                     53                     54
                      A                      A                      A
 Frequencies --   1522.7876              1535.9526              1541.7573
 Red. masses --      1.1382                 1.0519                 2.2185
 Frc consts  --      1.5550                 1.4622                 3.1071
 IR Inten    --     27.2571                 0.5875               291.3882

                     55                     56                     57
                      A                      A                      A
 Frequencies --   1558.8588              1628.4146              1674.2290
 Red. masses --      1.1114                 6.4505                 3.1862
 Frc consts  --      1.5912                10.0780                 5.2620
 IR Inten    --     47.8335                17.4417                34.0481

                     58                     59                     60
                      A                      A                      A
 Frequencies --   1696.4863              3056.1801              3056.4955
 Red. masses --      1.3559                 1.0367                 1.0380
 Frc consts  --      2.2993                 5.7049                 5.7135
 IR Inten    --     40.0522                13.6972                22.4404

                     61                     62                     63
                      A                      A                      A
 Frequencies --   3064.5391              3118.4413              3120.3920
 Red. masses --      1.0381                 1.1023                 1.1022
 Frc consts  --      5.7438                 6.3158                 6.3228
 IR Inten    --     33.7317                 9.7618                21.5486

                     64                     65                     66
                      A                      A                      A
 Frequencies --   3133.9593              3135.6657              3150.0649
 Red. masses --      1.1031                 1.1026                 1.0897
 Frc consts  --      6.3834                 6.3874                 6.3711
 IR Inten    --     32.8588                50.3968                42.9072

                     67                     68                     69
                      A                      A                      A
 Frequencies --   3173.0026              3175.4413              3182.9101
 Red. masses --      1.0989                 1.0984                 1.0897
 Frc consts  --      6.5182                 6.5254                 6.5043
 IR Inten    --      0.4553                15.1502                18.5639

                     70                     71                     72
                      A                      A                      A
 Frequencies --   3226.1690              3532.2734              3627.6763
 Red. masses --      1.0937                 1.0483                 1.0969
 Frc consts  --      6.7067                 7.7062                 8.5049
 IR Inten    --      5.8702                 6.4410                 6.1395

 - Thermochemistry -
 -------------------
 Temperature   298.150 Kelvin.  Pressure   1.00000 Atm.
 Atom     1 has atomic number  6 and mass  12.00000

 Molecular mass:   166.11061 amu.
 Principal axes and moments of inertia in atomic units:
                           1         2         3
     Eigenvalues --   734.813753613.793213942.28085
           X            0.99999  -0.00330  -0.00305
           Y            0.00329   0.99999  -0.00357
           Z            0.00306   0.00356   0.99999
 This molecule is an asymmetric top.
 Rotational symmetry number  1.
 Warning -- assumption of classical behavior for rotation
           may cause significant error
 Rotational temperatures (Kelvin)      0.11787     0.02397     0.02197
 Rotational constants (GHZ):           2.45605     0.49940     0.45779
 Zero-point vibrational energy     584874.2 (Joules/Mol)
                                  139.78828 (Kcal/Mol)
 Warning -- explicit consideration of  19 degrees of freedom as
           vibrations may cause significant error
 Vibrational temperatures:     56.23   107.02   198.17   219.99   298.64
          (Kelvin)            324.46   356.94   391.27   400.82   436.46
                              493.11   530.15   540.14   604.37   628.95
                              663.02   690.69   764.43   863.61   937.44
                              988.55  1074.76  1089.23  1164.49  1209.08
                             1246.44  1294.57  1341.42  1344.30  1373.07
                             1384.24  1408.63  1492.45  1529.85  1539.55
                             1614.56  1677.19  1772.14  1842.89  1853.37
                             1885.22  1904.33  1928.31  1962.04  2042.07
                             2048.83  2085.20  2110.98  2156.60  2186.21
                             2187.48  2190.95  2209.89  2218.24  2242.85
                             2342.93  2408.84  2440.87  4397.16  4397.62
                             4409.19  4486.74  4489.55  4509.07  4511.52
                             4532.24  4565.24  4568.75  4579.50  4641.74
                             5082.15  5219.42

 Zero-point correction=                           0.222767 (Hartree/Particle)
 Thermal correction to Energy=                    0.235082
 Thermal correction to Enthalpy=                  0.236026
 Thermal correction to Gibbs Free Energy=         0.184856
 Sum of electronic and zero-point Energies=           -535.941033
 Sum of electronic and thermal Energies=              -535.928718
 Sum of electronic and thermal Enthalpies=            -535.927774
 Sum of electronic and thermal Free Energies=         -535.978944

                     E (Thermal)             CV                S
                      KCal/Mol        Cal/Mol-Kelvin    Cal/Mol-Kelvin
 Total                  147.516             47.659            107.697
 Electronic               0.000              0.000              0.000
 Translational            0.889              2.981             41.231
 Rotational               0.889              2.981             30.727
 Vibrational            145.739             41.697             35.739
 Vibration     1          0.594              1.981              5.305
 Vibration     2          0.599              1.966              4.034
 Vibration     3          0.614              1.916              2.835
 Vibration     4          0.619              1.899              2.636
 Vibration     5          0.641              1.829              2.065
 Vibration     6          0.650              1.802              1.914
 Vibration     7          0.662              1.766              1.744
 Vibration     8          0.675              1.725              1.584
 Vibration     9          0.679              1.713              1.542
 Vibration    10          0.695              1.667              1.398
 Vibration    11          0.722              1.590              1.199
 Vibration    12          0.741              1.537              1.086
 Vibration    13          0.746              1.522              1.058
 Vibration    14          0.783              1.427              0.892
 Vibration    15          0.797              1.389              0.836
 Vibration    16          0.819              1.337              0.764
 Vibration    17          0.836              1.294              0.710
 Vibration    18          0.886              1.181              0.584
 Vibration    19          0.958              1.031              0.449

 Optimization completed.
    -- Stationary point found.
 Normal termination of Gaussian 16 at Wed Dec  9 16:51:34 2020.

 ----------------------------------------------------------------------
 # B3LYP/6-311++G(d,p) empiricaldispersion=gd3bj scf=xqc pop=npa geom=c
 heck
 ----------------------------------------------------------------------

 --------------------------------------
 CID_21484140_JID_2014_Energie_neutraal
 --------------------------------------
 Structure from the checkpoint file:  "JID_2014.chk"
 Charge =  0 Multiplicity = 1

 SCF Done:  E(RB3LYP) =  -536.317435905     A.U. after   13 cycles
 Normal termination of Gaussian 16 at Wed Dec  9 16:53:21 2020.

 ----------------------------------------------------------------------
 # B3LYP/6-311++G(d,p) empiricaldispersion=gd3bj scf=xqc pop=npa geom=c
 heck
 ----------------------------------------------------------------------

 ------------------------------------
 CID_21484140_JID_2014_Energie_kation
 ------------------------------------
 Structure from the checkpoint file:  "JID_2014.chk"
 Charge =  1 Multiplicity = 2

 SCF Done:  E(UB3LYP) =  -536.043739538     A.U. after   19 cycles
 Normal termination of Gaussian 16 at Wed Dec  9 16:56:45 2020.
 Gaussian 16:  ES64L-G16RevA.03 25-Dec-2016

 ----------------------------------------------------------------------
 # B3LYP/6-311++G(d,p) empiricaldispersion=gd3bj scf=xqc pop=npa geom=c
 heck
 ----------------------------------------------------------------------

 -----------------------------------
 CID_21484140_JID_2014_Energie_anion
 -----------------------------------
 Structure from the checkpoint file:  "JID_2014.chk"
 Charge = -1 Multiplicity = 2

                         Standard orientation:
 ---------------------------------------------------------------------
 Center     Atomic      Atomic             Coordinates (Angstroms)
 Number     Number       Type             X           Y           Z
 ---------------------------------------------------------------------
      1          6           0        3.509499    0.834774    0.006343
      2          6           0        2.291906   -0.092192    0.000950
      3          6           0        2.271078   -0.934675   -1.278271
      4          6           0        2.278042   -0.958445    1.264382
      5          8           0        1.181204    0.854356    0.013134
      6          6           0       -0.119861    0.473894    0.004117
      7          7           0       -0.482512   -0.802633    0.000779
      8          6           0       -1.791596   -1.095378   -0.003024
      9          6           0       -2.808668   -0.139793   -0.008840
     10          6           0       -2.405120    1.208244   -0.006205
     11          6           0       -1.058750    1.522460    0.003378
     12          7           0       -4.164243   -0.499979   -0.083092
     13          1           0        4.432940    0.246739   -0.000845
     14          1           0        3.504682    1.467490    0.899543
     15          1           0        3.500684    1.483001   -0.875596
     16          1           0        3.188509   -1.530899   -1.339636
     17          1           0        1.411887   -1.605866   -1.292228
     18          1           0        2.227244   -0.282498   -2.157120
     19          1           0        2.239582   -0.322642    2.155466
     20          1           0        1.418358   -1.629093    1.270137
     21          1           0        3.195465   -1.556157    1.309605
     22          1           0       -2.041745   -2.156343   -0.005065
     23          1           0       -3.152191    1.998500   -0.016795
     24          1           0       -0.711624    2.549581    0.008665
     25          1           0       -4.349605   -1.444072    0.236564
     26          1           0       -4.785719    0.152366    0.381451
 ---------------------------------------------------------------------

 SCF Done:  E(UB3LYP) =  -536.303078801     A.U. after   33 cycles
 SCF Done:  E(UB3LYP) =  -536.303078801     a.u. after    1 cycles

 The electronic state is 2-A.
 Alpha  occ. eigenvalues --  -19.04346 -14.20552 -14.20207 -10.15212 -10.14357
 Alpha  occ. eigenvalues --  -10.10717 -10.09491 -10.07986 -10.07503 -10.06827
 Alpha  occ. eigenvalues --  -10.06156 -10.06036  -0.96595  -0.83894  -0.79880
 Alpha  occ. eigenvalues --   -0.71705  -0.68781  -0.63062  -0.59859  -0.59719
 Alpha  occ. eigenvalues --   -0.54522  -0.52338  -0.47472  -0.42300  -0.41226
 Alpha  occ. eigenvalues --   -0.39960  -0.36527  -0.36388  -0.34684  -0.34105
 Alpha  occ. eigenvalues --   -0.32962  -0.32131  -0.31278  -0.29384  -0.29208
 Alpha  occ. eigenvalues --   -0.28443  -0.27398  -0.26645  -0.26371  -0.23961
 Alpha  occ. eigenvalues --   -0.22346  -0.19772  -0.17272  -0.16169  -0.09704
 Alpha  occ. eigenvalues --    0.04544
 Alpha virt. eigenvalues --    0.05828   0.07232   0.07567   0.08501   0.08510
 Alpha virt. eigenvalues --    0.08650   0.10045   0.10708   0.10874   0.11018
 Alpha virt. eigenvalues --    0.11779   0.12719   0.13313   0.14059   0.14721

  Beta  occ. eigenvalues --  -19.04342 -14.20470 -14.20201 -10.15210 -10.14356
  Beta  occ. eigenvalues --  -10.10712 -10.09473 -10.07958 -10.07497 -10.06807
  Beta  occ. eigenvalues --  -10.06142 -10.06018  -0.96589  -0.83871  -0.79787
  Beta  occ. eigenvalues --   -0.71692  -0.68738  -0.63007  -0.59823  -0.59689
  Beta  occ. eigenvalues --   -0.54477  -0.52288  -0.47428  -0.42255  -0.41162
  Beta  occ. eigenvalues --   -0.39890  -0.36506  -0.36324  -0.34635  -0.34070
  Beta  occ. eigenvalues --   -0.32943  -0.32084  -0.31250  -0.29356  -0.29173
  Beta  occ. eigenvalues --   -0.28403  -0.27380  -0.26620  -0.26352  -0.23929
  Beta  occ. eigenvalues --   -0.22331  -0.19742  -0.17233  -0.16149  -0.09655
  Beta virt. eigenvalues --    0.06324   0.07294   0.07707   0.08156   0.08639
  Beta virt. eigenvalues --    0.09078   0.09390   0.10466   0.10783   0.10964
  Beta virt. eigenvalues --    0.11612   0.12123   0.12769   0.13962   0.14253

 Mulliken charges and spin densities:
               1          2
     1  C   -0.000487  -0.412943
     2  C   -0.890294   0.789363
     3  C    0.259574  -0.668297
     4  C    0.336412  -0.743420
     5  O    0.007439  -0.001080
     6  C    0.648153  -0.987749
     7  N    0.013092   0.023822
     8  C   -0.965689   0.982264
     9  C    1.748312  -2.070292
    10  C    0.305253  -0.314972
    11  C   -0.240317   0.111743
    12  N   -0.281321  -0.046164
    13  H   -0.047649   0.191562
    14  H   -0.037613   0.186144
    15  H   -0.036788   0.184040
    16  H   -0.050542   0.197992
    17  H    0.073662   0.101549
    18  H    0.080858   0.058085
    19  H    0.062678   0.076874
    20  H    0.033442   0.141120
    21  H   -0.094356   0.242640
    22  H   -0.413373   0.594666
    23  H   -0.785809   0.976877
    24  H   -0.006244   0.174468
    25  H   -0.349250   0.590634
    26  H   -0.369143   0.621074
 Sum of Mulliken charges =  -1.00000   1.00000

 Dipole moment (field-independent basis, Debye):
    X=              7.9541    Y=              1.0043    Z=             -1.0175  Tot=              8.0816
 Quadrupole moment (field-independent basis, Debye-Ang):
   XX=           -175.1198   YY=           -107.8290   ZZ=            -98.2858
   XY=             -0.1934   XZ=              3.6772   YZ=              0.3231

 Summary of Natural Population Analysis:

                                       Natural Population
                Natural  -----------------------------------------------
    Atom  No    Charge         Core      Valence    Rydberg      Total
 -----------------------------------------------------------------------
      C    1   -0.28587      0.99960     2.28019    0.00608     3.28587
      C    2    0.13354      0.99954     1.85066    0.01626     2.86646
      C    3   -0.30134      0.99960     2.29620    0.00554     3.30134
      C    4   -0.30128      0.99960     2.29604    0.00563     3.30128
      O    5   -0.29476      0.99985     3.28413    0.01078     4.29476
      C    6    0.25480      0.99944     1.72847    0.01729     2.74520
      N    7   -0.26472      0.99966     2.75456    0.01051     3.76472
      C    8    0.01051      0.99953     1.97580    0.01416     2.98949
      C    9    0.05399      0.99948     1.93465    0.01187     2.94601
      C   10   -0.09417      0.99953     2.08431    0.01034     3.09417
      C   11   -0.12631      0.99953     2.11737    0.00941     3.12631
      N   12   -0.39752      0.99972     2.88654    0.01126     3.89752
      H   13    0.09943      0.00000     0.39953    0.00104     0.40057
      H   14    0.10234      0.00000     0.39655    0.00111     0.39766
      H   15    0.10198      0.00000     0.39692    0.00110     0.39802
      H   16    0.09906      0.00000     0.39992    0.00101     0.40094
      H   17    0.11570      0.00000     0.38297    0.00133     0.38430
      H   18    0.10040      0.00000     0.39865    0.00095     0.39960
      H   19    0.10076      0.00000     0.39825    0.00099     0.39924
      H   20    0.11596      0.00000     0.38258    0.00146     0.38404
      H   21    0.09906      0.00000     0.39986    0.00108     0.40094
      H   22    0.08981      0.00000     0.40880    0.00140     0.41019
      H   23    0.10468      0.00000     0.39386    0.00146     0.39532
      H   24    0.10606      0.00000     0.39290    0.00104     0.39394
      H   25    0.18767      0.00000     0.30490    0.00743     0.31233
      H   26    0.19023      0.00000     0.29656    0.01321     0.30977
 =======================================================================
   * Total *    0.00000     11.99508    32.84117    0.16374    45.00000

 Normal termination of Gaussian 16 at Wed Dec  9 17:03:14 2020.
