 Gaussian 16, Revision A.03,

 -----------------------------------------------------------
 # opt freq B3LYP/6-31G(d) empiricaldispersion=gd3bj scf=xqc
 -----------------------------------------------------------

 -----------------------------
 CID_57246004_JID_376_neutraal
 -----------------------------
 Symbolic Z-matrix:
 Charge =  0 Multiplicity = 1

 SCF Done:  E(RB3LYP) =  -390.572926096     A.U. after   16 cycles
 SCF Done:  E(RB3LYP) =  -390.589443871     A.U. after   14 cycles
 SCF Done:  E(RB3LYP) =  -390.592148673     A.U. after   13 cycles
 SCF Done:  E(RB3LYP) =  -390.592950725     A.U. after   13 cycles
 SCF Done:  E(RB3LYP) =  -390.593200216     A.U. after   12 cycles
 SCF Done:  E(RB3LYP) =  -390.593246257     A.U. after   11 cycles
 SCF Done:  E(RB3LYP) =  -390.593264490     A.U. after   11 cycles
 SCF Done:  E(RB3LYP) =  -390.593269688     A.U. after    8 cycles
 SCF Done:  E(RB3LYP) =  -390.593270152     A.U. after    8 cycles
 SCF Done:  E(RB3LYP) =  -390.593270289     A.U. after    7 cycles
 SCF Done:  E(RB3LYP) =  -390.593270352     A.U. after    7 cycles
 SCF Done:  E(RB3LYP) =  -390.593270372     A.U. after    7 cycles
 SCF Done:  E(RB3LYP) =  -390.593270366     A.U. after    7 cycles
 Optimization completed.
    -- Stationary point found.
 Normal termination of Gaussian 16 at Tue Dec  8 10:30:14 2020.

 --------------------------------------------------------------------
 #N Geom=AllCheck Guess=TCheck SCRF=Check GenChk RB3LYP/6-31G(d) Freq
 --------------------------------------------------------------------

 Structure from the checkpoint file:  "JID_376.chk"
 -----------------------------
 CID_57246004_JID_376_neutraal
 -----------------------------
 Charge =  0 Multiplicity = 1

 SCF Done:  E(RB3LYP) =  -390.593270366     A.U. after    1 cycles

  Exact polarizability: 108.418  -1.985  97.235   4.849  -1.742  95.992
 Approx polarizability: 148.576  -3.910 143.729  18.213 -13.910 177.402

                      1                      2                      3
                      A                      A                      A
 Frequencies --     55.5617               150.0402               182.0336
 Red. masses --      2.1226                 1.6605                 2.3159
 Frc consts  --      0.0039                 0.0220                 0.0452
 IR Inten    --      0.1397                 0.0413                 1.2059

                      4                      5                      6
                      A                      A                      A
 Frequencies --    205.9948               239.4681               250.7531
 Red. masses --      2.1335                 1.1232                 1.6236
 Frc consts  --      0.0533                 0.0379                 0.0601
 IR Inten    --      2.5290                 0.7872                 0.5293

                      7                      8                      9
                      A                      A                      A
 Frequencies --    262.3536               293.7215               358.9258
 Red. masses --      1.9401                 2.2249                 3.2997
 Frc consts  --      0.0787                 0.1131                 0.2505
 IR Inten    --      4.1793                 0.2187                10.6046

                     10                     11                     12
                      A                      A                      A
 Frequencies --    396.8933               442.9923               455.3561
 Red. masses --      2.3869                 3.9002                 2.4007
 Frc consts  --      0.2215                 0.4509                 0.2933
 IR Inten    --      2.0849                73.8588                 1.4190

                     13                     14                     15
                      A                      A                      A
 Frequencies --    604.2016               623.1516               686.7831
 Red. masses --      3.2465                 3.1193                 3.2882
 Frc consts  --      0.6983                 0.7137                 0.9138
 IR Inten    --      2.3029                 1.4888                14.8658

                     16                     17                     18
                      A                      A                      A
 Frequencies --    709.1259               776.8727               798.1675
 Red. masses --      2.4886                 1.8436                 1.9078
 Frc consts  --      0.7373                 0.6556                 0.7161
 IR Inten    --      0.7976                 1.0179                 9.6561

                     19                     20                     21
                      A                      A                      A
 Frequencies --    829.3197               854.0356               899.4351
 Red. masses --      1.3899                 2.5449                 3.4053
 Frc consts  --      0.5632                 1.0936                 1.6231
 IR Inten    --      3.8052                 4.4016                 2.1378

                     22                     23                     24
                      A                      A                      A
 Frequencies --    919.9111               930.4345               980.9441
 Red. masses --      1.7008                 2.4051                 2.1777
 Frc consts  --      0.8480                 1.2268                 1.2346
 IR Inten    --     14.7259                 2.4824                 1.7082

                     25                     26                     27
                      A                      A                      A
 Frequencies --   1006.6333              1010.3109              1028.7122
 Red. masses --      2.0750                 1.8047                 1.8590
 Frc consts  --      1.2388                 1.0853                 1.1591
 IR Inten    --      4.9555                 2.3395                 1.2194

                     28                     29                     30
                      A                      A                      A
 Frequencies --   1044.0468              1057.0446              1084.9780
 Red. masses --      1.9658                 1.6030                 1.6407
 Frc consts  --      1.2625                 1.0553                 1.1380
 IR Inten    --      7.9265                 3.5211                 3.1950

                     31                     32                     33
                      A                      A                      A
 Frequencies --   1098.9487              1138.7506              1141.8613
 Red. masses --      1.7131                 2.2554                 1.8217
 Frc consts  --      1.2189                 1.7232                 1.3995
 IR Inten    --      0.4462                 8.9997                 8.8261

                     34                     35                     36
                      A                      A                      A
 Frequencies --   1179.4869              1184.4004              1221.4591
 Red. masses --      1.4645                 1.4259                 1.3759
 Frc consts  --      1.2004                 1.1785                 1.2095
 IR Inten    --      1.9314                 4.3069                 1.7338

                     37                     38                     39
                      A                      A                      A
 Frequencies --   1237.3313              1255.5426              1273.5608
 Red. masses --      1.3626                 1.2782                 1.3465
 Frc consts  --      1.2291                 1.1871                 1.2867
 IR Inten    --      1.6132                 1.2039                 1.9332

                     40                     41                     42
                      A                      A                      A
 Frequencies --   1279.2222              1300.1551              1307.7656
 Red. masses --      1.2744                 1.5325                 1.3171
 Frc consts  --      1.2287                 1.5263                 1.3272
 IR Inten    --      0.5151                 0.0878                 1.6177

                     43                     44                     45
                      A                      A                      A
 Frequencies --   1329.1975              1365.0967              1384.4807
 Red. masses --      1.4668                 1.3946                 1.7188
 Frc consts  --      1.5269                 1.5311                 1.9412
 IR Inten    --      1.7820                 5.1746                 2.9829

                     46                     47                     48
                      A                      A                      A
 Frequencies --   1429.3380              1434.7260              1456.4103
 Red. masses --      1.3934                 1.2707                 1.8032
 Frc consts  --      1.6773                 1.5411                 2.2535
 IR Inten    --      9.8110                 6.6055                24.5327

                     49                     50                     51
                      A                      A                      A
 Frequencies --   1493.2454              1504.5957              1519.2429
 Red. masses --      1.2188                 1.1756                 1.0666
 Frc consts  --      1.6012                 1.5681                 1.4505
 IR Inten    --      0.5771                 1.0712                 4.4290

                     52                     53                     54
                      A                      A                      A
 Frequencies --   1521.3133              1526.7946              1528.8432
 Red. masses --      1.0666                 1.0490                 1.0919
 Frc consts  --      1.4544                 1.4408                 1.5037
 IR Inten    --     11.8534                 1.4920                 1.2232

                     55                     56                     57
                      A                      A                      A
 Frequencies --   1538.8649              1540.3695              2970.1757
 Red. masses --      1.0931                 1.0685                 1.0742
 Frc consts  --      1.5251                 1.4938                 5.5832
 IR Inten    --      5.7492                 1.9838                13.4666

                     58                     59                     60
                      A                      A                      A
 Frequencies --   3021.3871              3037.8171              3042.7732
 Red. masses --      1.0849                 1.0659                 1.0531
 Frc consts  --      5.8353                 5.7954                 5.7445
 IR Inten    --     24.9175                 2.9683                38.9186

                     61                     62                     63
                      A                      A                      A
 Frequencies --   3059.5068              3060.4377              3064.0537
 Red. masses --      1.0568                 1.0397                 1.0600
 Frc consts  --      5.8284                 5.7374                 5.8636
 IR Inten    --     16.1503                17.0550                69.1535

                     64                     65                     66
                      A                      A                      A
 Frequencies --   3068.8391              3087.4860              3093.0656
 Red. masses --      1.0619                 1.0853                 1.1064
 Frc consts  --      5.8923                 6.0958                 6.2365
 IR Inten    --     58.5354                42.1006                 7.3719

                     67                     68                     69
                      A                      A                      A
 Frequencies --   3102.0466              3114.3351              3115.0471
 Red. masses --      1.1011                 1.1030                 1.1047
 Frc consts  --      6.2430                 6.3030                 6.3158
 IR Inten    --     34.9867                 8.6966                52.1757

                     70                     71                     72
                      A                      A                      A
 Frequencies --   3122.8886              3131.4891              3131.8518
 Red. masses --      1.1029                 1.1030                 1.1005
 Frc consts  --      6.3370                 6.3728                 6.3595
 IR Inten    --     60.2760                19.1693                22.3242

 - Thermochemistry -
 -------------------
 Temperature   298.150 Kelvin.  Pressure   1.00000 Atm.
 Atom     1 has atomic number  6 and mass  12.00000

 Molecular mass:   136.12520 amu.
 Principal axes and moments of inertia in atomic units:
                           1         2         3
     Eigenvalues --  1033.925571386.858491760.61832
           X            0.99997  -0.00786  -0.00070
           Y            0.00786   0.99996   0.00416
           Z            0.00067  -0.00417   0.99999
 This molecule is an asymmetric top.
 Rotational symmetry number  1.
 Warning -- assumption of classical behavior for rotation
           may cause significant error
 Rotational temperatures (Kelvin)      0.08377     0.06245     0.04920
 Rotational constants (GHZ):           1.74552     1.30132     1.02506
 Zero-point vibrational energy     619380.9 (Joules/Mol)
                                  148.03560 (Kcal/Mol)
 Warning -- explicit consideration of  13 degrees of freedom as
           vibrations may cause significant error
 Vibrational temperatures:     79.94   215.87   261.91   296.38   344.54
          (Kelvin)            360.78   377.47   422.60   516.41   571.04
                              637.37   655.16   869.31   896.58   988.13
                             1020.27  1117.75  1148.39  1193.21  1228.77
                             1294.09  1323.55  1338.69  1411.36  1448.32
                             1453.61  1480.09  1502.15  1520.85  1561.04
                             1581.14  1638.41  1642.88  1697.02  1704.09
                             1757.41  1780.24  1806.45  1832.37  1840.52
                             1870.63  1881.58  1912.42  1964.07  1991.96
                             2056.50  2064.25  2095.45  2148.45  2164.78
                             2185.85  2188.83  2196.72  2199.66  2214.08
                             2216.25  4273.42  4347.10  4370.74  4377.87
                             4401.95  4403.29  4408.49  4415.38  4442.20
                             4450.23  4463.15  4480.83  4481.86  4493.14
                             4505.51  4506.04

 Zero-point correction=                           0.235910 (Hartree/Particle)
 Thermal correction to Energy=                    0.245916
 Thermal correction to Enthalpy=                  0.246860
 Thermal correction to Gibbs Free Energy=         0.201316
 Sum of electronic and zero-point Energies=           -390.357361
 Sum of electronic and thermal Energies=              -390.347354
 Sum of electronic and thermal Enthalpies=            -390.346410
 Sum of electronic and thermal Free Energies=         -390.391954

                     E (Thermal)             CV                S
                      KCal/Mol        Cal/Mol-Kelvin    Cal/Mol-Kelvin
 Total                  154.315             39.874             95.856
 Electronic               0.000              0.000              0.000
 Translational            0.889              2.981             40.637
 Rotational               0.889              2.981             29.314
 Vibrational            152.537             33.912             25.905
 Vibration     1          0.596              1.975              4.609
 Vibration     2          0.618              1.903              2.672
 Vibration     3          0.630              1.864              2.307
 Vibration     4          0.640              1.831              2.079
 Vibration     5          0.657              1.780              1.807
 Vibration     6          0.663              1.761              1.725
 Vibration     7          0.670              1.742              1.646
 Vibration     8          0.689              1.685              1.452
 Vibration     9          0.734              1.557              1.127
 Vibration    10          0.763              1.477              0.974
 Vibration    11          0.803              1.376              0.817
 Vibration    12          0.814              1.349              0.780
 Vibration    13          0.963              1.023              0.442

 Optimization completed.
    -- Stationary point found.
 Normal termination of Gaussian 16 at Tue Dec  8 10:35:35 2020.

 ----------------------------------------------------------------------
 # B3LYP/6-311++G(d,p) empiricaldispersion=gd3bj scf=xqc pop=npa geom=c
 heck
 ----------------------------------------------------------------------

 -------------------------------------
 CID_57246004_JID_376_Energie_neutraal
 -------------------------------------
 Structure from the checkpoint file:  "JID_376.chk"
 Charge =  0 Multiplicity = 1

 SCF Done:  E(RB3LYP) =  -390.697894565     A.U. after   15 cycles
 Normal termination of Gaussian 16 at Tue Dec  8 10:39:24 2020.

 ----------------------------------------------------------------------
 # B3LYP/6-311++G(d,p) empiricaldispersion=gd3bj scf=xqc pop=npa geom=c
 heck
 ----------------------------------------------------------------------

 -----------------------------------
 CID_57246004_JID_376_Energie_kation
 -----------------------------------
 Structure from the checkpoint file:  "JID_376.chk"
 Charge =  1 Multiplicity = 2

 SCF Done:  E(UB3LYP) =  -390.458549668     A.U. after   18 cycles
 Normal termination of Gaussian 16 at Tue Dec  8 10:44:55 2020.
 Gaussian 16:  ES64L-G16RevA.03 25-Dec-2016

 ----------------------------------------------------------------------
 # B3LYP/6-311++G(d,p) empiricaldispersion=gd3bj scf=xqc pop=npa geom=c
 heck
 ----------------------------------------------------------------------

 ----------------------------------
 CID_57246004_JID_376_Energie_anion
 ----------------------------------
 Structure from the checkpoint file:  "JID_376.chk"
 Charge = -1 Multiplicity = 2

                         Standard orientation:
 ---------------------------------------------------------------------
 Center     Atomic      Atomic             Coordinates (Angstroms)
 Number     Number       Type             X           Y           Z
 ---------------------------------------------------------------------
      1          6           0       -2.832497   -0.675432    0.227150
      2          6           0       -1.790835   -0.415366   -0.865681
      3          6           0       -0.367218   -0.663736   -0.488476
      4          6           0        0.132164   -1.037020    0.766208
      5          6           0        1.608645   -1.428708    0.569471
      6          6           0        2.011556   -0.738595   -0.771970
      7          6           0        0.794634    0.163507   -1.002838
      8          6           0        0.762285    1.233374    0.214121
      9          6           0        0.076206    0.371927    1.407758
     10          6           0        0.016035    2.531677   -0.074511
     11          1           0       -2.575515   -1.583900    0.782014
     12          1           0       -3.830826   -0.791863   -0.205774
     13          1           0       -2.875281    0.146418    0.948096
     14          1           0       -1.990520   -1.102425   -1.707767
     15          1           0       -1.911902    0.583568   -1.308165
     16          1           0        1.714486   -2.516926    0.510096
     17          1           0        2.230829   -1.094749    1.406899
     18          1           0        2.940844   -0.166565   -0.690820
     19          1           0        2.128286   -1.454983   -1.591704
     20          1           0        0.724711    0.630738   -1.991017
     21          1           0        1.803548    1.494277    0.452140
     22          1           0       -0.932957    0.751322    1.588831
     23          1           0        0.636595    0.436690    2.347034
     24          1           0        0.033744    3.187837    0.804579
     25          1           0        0.473256    3.080029   -0.906987
     26          1           0       -1.035145    2.350758   -0.324850
 ---------------------------------------------------------------------

 SCF Done:  E(UB3LYP) =  -390.711247572     A.U. after   27 cycles

 The electronic state is 2-A.
 Alpha  occ. eigenvalues --  -10.02520 -10.01734 -10.01655 -10.01387 -10.00940
 Alpha  occ. eigenvalues --  -10.00504  -9.99937  -9.98954  -9.97202  -9.93624
 Alpha  occ. eigenvalues --   -0.70583  -0.61970  -0.60673  -0.55557  -0.52984
 Alpha  occ. eigenvalues --   -0.49944  -0.45563  -0.42815  -0.37539  -0.33367
 Alpha  occ. eigenvalues --   -0.31716  -0.30781  -0.28713  -0.28438  -0.26594
 Alpha  occ. eigenvalues --   -0.25809  -0.24422  -0.23109  -0.22013  -0.21244
 Alpha  occ. eigenvalues --   -0.20194  -0.18603  -0.17214  -0.16429  -0.15645
 Alpha  occ. eigenvalues --   -0.13726  -0.11796   0.00238   0.04871
 Alpha virt. eigenvalues --    0.09118   0.09971   0.10468   0.11064   0.12162
 Alpha virt. eigenvalues --    0.12566   0.13044   0.13142   0.13491   0.14819
 Alpha virt. eigenvalues --    0.15306   0.15600   0.15872   0.16137   0.17490

  Beta  occ. eigenvalues --  -10.02519 -10.01722 -10.01659 -10.01367 -10.00938
  Beta  occ. eigenvalues --  -10.00439  -9.99741  -9.98963  -9.96188  -9.93438
  Beta  occ. eigenvalues --   -0.69917  -0.61730  -0.60548  -0.55178  -0.52522
  Beta  occ. eigenvalues --   -0.49556  -0.45294  -0.42621  -0.37306  -0.32849
  Beta  occ. eigenvalues --   -0.31274  -0.30344  -0.28465  -0.28273  -0.26362
  Beta  occ. eigenvalues --   -0.25660  -0.24215  -0.22506  -0.21762  -0.21117
  Beta  occ. eigenvalues --   -0.19901  -0.18473  -0.17020  -0.15954  -0.15338
  Beta  occ. eigenvalues --   -0.13383  -0.11349   0.03142
  Beta virt. eigenvalues --    0.09056   0.09942   0.10238   0.10918   0.12036
  Beta virt. eigenvalues --    0.12267   0.12851   0.13025   0.13300   0.14697
  Beta virt. eigenvalues --    0.14814   0.15275   0.15607   0.15802   0.16128

 Mulliken charges and spin densities:
               1          2
     1  C   -0.414785  -0.051627
     2  C   -0.636675  -0.063390
     3  C   -0.053829   0.763945
     4  C    0.403218   0.156569
     5  C   -0.324916   0.070698
     6  C   -0.503577  -0.239201
     7  C    0.398436   0.040563
     8  C    0.020985   0.166098
     9  C   -0.420071  -0.184607
    10  C   -0.778024  -0.041845
    11  H    0.045304   0.007582
    12  H    0.039015   0.041356
    13  H    0.127318   0.013494
    14  H    0.145260   0.048952
    15  H    0.064183   0.012474
    16  H    0.130915   0.002035
    17  H    0.043179  -0.002790
    18  H    0.034965   0.040143
    19  H    0.038685   0.056240
    20  H    0.104575   0.040071
    21  H    0.120869   0.006487
    22  H    0.074752  -0.026617
    23  H    0.002013   0.131631
    24  H    0.106881   0.005882
    25  H    0.099957   0.005041
    26  H    0.131366   0.000819
 Sum of Mulliken charges =  -1.00000   1.00000

 Dipole moment (field-independent basis, Debye):
    X=             -0.2573    Y=              3.4494    Z=             -1.7244  Tot=              3.8650
 Quadrupole moment (field-independent basis, Debye-Ang):
   XX=            -83.8091   YY=            -85.2080   ZZ=            -81.6495
   XY=             -1.6041   XZ=              1.7435   YZ=              3.5645

 Summary of Natural Population Analysis:

                                       Natural Population
                Natural  -----------------------------------------------
    Atom  No    Charge         Core      Valence    Rydberg      Total
 -----------------------------------------------------------------------
      C    1   -0.28552      0.99967     2.28037    0.00548     3.28552
      C    2   -0.22422      0.99957     2.21723    0.00742     3.22422
      C    3    0.29797      0.99930     1.68617    0.01657     2.70203
      C    4   -0.13692      0.99930     2.11194    0.02568     3.13692
      C    5   -0.20632      0.99963     2.19510    0.01159     3.20632
      C    6   -0.19723      0.99963     2.18389    0.01371     3.19723
      C    7   -0.14460      0.99955     2.12946    0.01560     3.14460
      C    8   -0.10298      0.99963     2.09064    0.01271     3.10298
      C    9   -0.17992      0.99960     2.16561    0.01471     3.17992
      C   10   -0.28553      0.99964     2.28090    0.00499     3.28553
      H   11    0.10815      0.00000     0.38877    0.00308     0.39185
      H   12    0.08452      0.00000     0.41423    0.00125     0.41548
      H   13    0.09029      0.00000     0.40848    0.00123     0.40971
      H   14    0.11079      0.00000     0.38759    0.00163     0.38921
      H   15    0.09363      0.00000     0.40483    0.00154     0.40637
      H   16    0.09309      0.00000     0.40572    0.00119     0.40691
      H   17    0.08418      0.00000     0.41450    0.00131     0.41582
      H   18    0.08574      0.00000     0.41180    0.00246     0.41426
      H   19    0.08927      0.00000     0.40902    0.00170     0.41073
      H   20    0.08655      0.00000     0.41139    0.00206     0.41345
      H   21    0.08375      0.00000     0.41461    0.00164     0.41625
      H   22    0.08784      0.00000     0.41062    0.00154     0.41216
      H   23    0.09079      0.00000     0.40752    0.00169     0.40921
      H   24    0.09235      0.00000     0.40675    0.00090     0.40765
      H   25    0.09107      0.00000     0.40796    0.00098     0.40893
      H   26    0.09326      0.00000     0.40562    0.00112     0.40674
 =======================================================================
   * Total *    0.00000      9.99551    27.85069    0.15380    38.00000

 Normal termination of Gaussian 16 at Tue Dec  8 10:51:18 2020.
