 Gaussian 16, Revision A.03,

 -----------------------------------------------------------
 # opt freq B3LYP/6-31G(d) empiricaldispersion=gd3bj scf=xqc
 -----------------------------------------------------------

 ------------------------------
 CID_82408073_JID_2606_neutraal
 ------------------------------
 Symbolic Z-matrix:
 Charge =  0 Multiplicity = 1

 SCF Done:  E(RB3LYP) =  -843.082526827     A.U. after   15 cycles
 SCF Done:  E(RB3LYP) =  -843.086608649     A.U. after   12 cycles
 SCF Done:  E(RB3LYP) =  -843.087093196     A.U. after   12 cycles
 SCF Done:  E(RB3LYP) =  -843.087159361     A.U. after   11 cycles
 SCF Done:  E(RB3LYP) =  -843.087174053     A.U. after   10 cycles
 SCF Done:  E(RB3LYP) =  -843.087181112     A.U. after    9 cycles
 SCF Done:  E(RB3LYP) =  -843.087185321     A.U. after    9 cycles
 SCF Done:  E(RB3LYP) =  -843.087185998     A.U. after    7 cycles
 SCF Done:  E(RB3LYP) =  -843.087186517     A.U. after    7 cycles
 SCF Done:  E(RB3LYP) =  -843.087186733     A.U. after    7 cycles
 SCF Done:  E(RB3LYP) =  -843.087187001     A.U. after    7 cycles
 SCF Done:  E(RB3LYP) =  -843.087187221     A.U. after    7 cycles
 SCF Done:  E(RB3LYP) =  -843.087187393     A.U. after    7 cycles
 SCF Done:  E(RB3LYP) =  -843.087187465     A.U. after    7 cycles
 Optimization completed.
    -- Stationary point found.
 Normal termination of Gaussian 16 at Wed Dec  9 17:41:31 2020.

 --------------------------------------------------------------------
 #N Geom=AllCheck Guess=TCheck SCRF=Check GenChk RB3LYP/6-31G(d) Freq
 --------------------------------------------------------------------

 Structure from the checkpoint file:  "JID_2606.chk"
 ------------------------------
 CID_82408073_JID_2606_neutraal
 ------------------------------
 Charge =  0 Multiplicity = 1

 SCF Done:  E(RB3LYP) =  -843.087187464     A.U. after    1 cycles

  Exact polarizability: 155.634  -1.466 123.875   7.298   0.993  87.811
 Approx polarizability: 207.373  -5.922 213.301  14.255   3.364 132.709

                      1                      2                      3
                      A                      A                      A
 Frequencies --     54.5707                95.2168               111.6073
 Red. masses --      3.8464                 3.0155                 1.1342
 Frc consts  --      0.0067                 0.0161                 0.0083
 IR Inten    --      0.2406                 1.2458                 0.6831

                      4                      5                      6
                      A                      A                      A
 Frequencies --    131.5680               175.4256               226.5569
 Red. masses --      3.5055                 2.3255                 3.1110
 Frc consts  --      0.0358                 0.0422                 0.0941
 IR Inten    --      1.5542                12.0929                 1.6454

                      7                      8                      9
                      A                      A                      A
 Frequencies --    236.1506               268.1727               281.0636
 Red. masses --      1.7119                 2.6116                 1.5228
 Frc consts  --      0.0562                 0.1107                 0.0709
 IR Inten    --     12.1136                13.9982                29.6388

                     10                     11                     12
                      A                      A                      A
 Frequencies --    309.3527               334.5623               369.3297
 Red. masses --      2.6905                 4.0694                 2.2660
 Frc consts  --      0.1517                 0.2684                 0.1821
 IR Inten    --      0.8624                 0.8808                 0.8576

                     13                     14                     15
                      A                      A                      A
 Frequencies --    416.6972               492.9181               499.8214
 Red. masses --      3.1634                 4.5622                 5.3116
 Frc consts  --      0.3236                 0.6531                 0.7818
 IR Inten    --      0.0869                 2.9191                 1.4505

                     16                     17                     18
                      A                      A                      A
 Frequencies --    512.4825               587.7909               612.3306
 Red. masses --      3.2642                 3.2174                 3.7685
 Frc consts  --      0.5051                 0.6549                 0.8325
 IR Inten    --     11.5857                 1.2901                 0.2281

                     19                     20                     21
                      A                      A                      A
 Frequencies --    639.4130               679.9426               747.1571
 Red. masses --      3.7292                 4.9581                 2.8557
 Frc consts  --      0.8983                 1.3506                 0.9393
 IR Inten    --      0.2746                 3.9652                 2.2755

                     22                     23                     24
                      A                      A                      A
 Frequencies --    802.1737               838.3966               872.1596
 Red. masses --      2.2067                 1.3386                 1.5187
 Frc consts  --      0.8366                 0.5544                 0.6806
 IR Inten    --      0.2334                10.1537                36.2268

                     25                     26                     27
                      A                      A                      A
 Frequencies --    881.2031               899.6395               970.1608
 Red. masses --      1.8887                 1.9796                 2.1874
 Frc consts  --      0.8641                 0.9440                 1.2130
 IR Inten    --     85.2357                23.2893                 3.9550

                     28                     29                     30
                      A                      A                      A
 Frequencies --    976.3514               992.1807              1018.2873
 Red. masses --      1.8791                 1.8254                 1.5910
 Frc consts  --      1.0554                 1.0587                 0.9720
 IR Inten    --      1.6167                 1.6041                 0.4993

                     31                     32                     33
                      A                      A                      A
 Frequencies --   1053.9631              1071.8015              1082.4447
 Red. masses --      2.9647                 1.3960                 2.8606
 Frc consts  --      1.9404                 0.9449                 1.9748
 IR Inten    --     15.5837                 0.9423                 7.2368

                     34                     35                     36
                      A                      A                      A
 Frequencies --   1090.5023              1137.8539              1147.1914
 Red. masses --      1.7328                 1.8709                 2.5025
 Frc consts  --      1.2141                 1.4271                 1.9404
 IR Inten    --      6.7930                 2.4814                12.3381

                     37                     38                     39
                      A                      A                      A
 Frequencies --   1169.0715              1184.0099              1206.8123
 Red. masses --      1.1891                 1.6021                 1.3983
 Frc consts  --      0.9575                 1.3233                 1.1999
 IR Inten    --      1.9342                 0.7646                 0.0690

                     40                     41                     42
                      A                      A                      A
 Frequencies --   1224.4892              1256.0064              1260.6879
 Red. masses --      2.1363                 1.4276                 1.2689
 Frc consts  --      1.8872                 1.3269                 1.1882
 IR Inten    --      4.4254                 6.5902                 4.1733

                     43                     44                     45
                      A                      A                      A
 Frequencies --   1320.2118              1345.3205              1352.5656
 Red. masses --      1.5103                 1.5131                 1.4047
 Frc consts  --      1.5510                 1.6135                 1.5141
 IR Inten    --      8.3767                 0.4453                 1.1827

                     46                     47                     48
                      A                      A                      A
 Frequencies --   1376.6068              1393.7727              1408.4672
 Red. masses --      1.3085                 1.5000                 1.4577
 Frc consts  --      1.4610                 1.7169                 1.7038
 IR Inten    --      7.3307                 6.1892                 0.9558

                     49                     50                     51
                      A                      A                      A
 Frequencies --   1432.1408              1445.2635              1453.9589
 Red. masses --      2.6097                 1.3648                 1.4679
 Frc consts  --      3.1536                 1.6797                 1.8284
 IR Inten    --      3.9038                 1.4617                 5.9271

                     52                     53                     54
                      A                      A                      A
 Frequencies --   1507.8427              1509.3670              1514.7354
 Red. masses --      1.0431                 1.1511                 1.0860
 Frc consts  --      1.3973                 1.5451                 1.4681
 IR Inten    --      6.6186                 4.8412                 2.6180

                     55                     56                     57
                      A                      A                      A
 Frequencies --   1521.3919              1532.4038              1544.1702
 Red. masses --      1.1521                 1.1005                 1.0818
 Frc consts  --      1.5711                 1.5226                 1.5198
 IR Inten    --      6.2896                 4.7455                 5.0209

                     58                     59                     60
                      A                      A                      A
 Frequencies --   1568.4644              1641.7940              1701.4607
 Red. masses --      4.2645                 5.9735                 1.0869
 Frc consts  --      6.1811                 9.4868                 1.8539
 IR Inten    --      2.0658                 3.2672                32.2331

                     61                     62                     63
                      A                      A                      A
 Frequencies --   2980.4060              3007.6596              3021.9368
 Red. masses --      1.0713                 1.0705                 1.0639
 Frc consts  --      5.6067                 5.7055                 5.7244
 IR Inten    --     61.0399                37.6704                27.9637

                     64                     65                     66
                      A                      A                      A
 Frequencies --   3041.8842              3044.5960              3054.1196
 Red. masses --      1.0365                 1.0692                 1.0952
 Frc consts  --      5.6505                 5.8393                 6.0191
 IR Inten    --     46.6730                 6.1579                11.5273

                     67                     68                     69
                      A                      A                      A
 Frequencies --   3059.2098              3063.4811              3074.7318
 Red. masses --      1.0892                 1.0853                 1.0908
 Frc consts  --      6.0059                 6.0013                 6.0758
 IR Inten    --     19.0253                87.3659                59.6589

                     70                     71                     72
                      A                      A                      A
 Frequencies --   3092.3258              3094.1456              3125.3931
 Red. masses --      1.1017                 1.0999                 1.1007
 Frc consts  --      6.2069                 6.2042                 6.3346
 IR Inten    --     18.1008                43.0048                14.2202

                     73                     74                     75
                      A                      A                      A
 Frequencies --   3197.6759              3470.5994              3551.9339
 Red. masses --      1.0924                 1.0500                 1.0919
 Frc consts  --      6.5814                 7.4518                 8.1166
 IR Inten    --     13.9888                 2.1042                 0.8369

 - Thermochemistry -
 -------------------
 Temperature   298.150 Kelvin.  Pressure   1.00000 Atm.
 Atom     1 has atomic number  6 and mass  12.00000

 Molecular mass:   181.09252 amu.
 Principal axes and moments of inertia in atomic units:
                           1         2         3
     Eigenvalues --   999.712323762.931784134.61948
           X            0.99994   0.01091   0.00214
           Y           -0.01092   0.99993   0.00493
           Z           -0.00209  -0.00495   0.99999
 This molecule is an asymmetric top.
 Rotational symmetry number  1.
 Warning -- assumption of classical behavior for rotation
           may cause significant error
 Rotational temperatures (Kelvin)      0.08664     0.02302     0.02095
 Rotational constants (GHZ):           1.80526     0.47961     0.43650
 Zero-point vibrational energy     618275.3 (Joules/Mol)
                                  147.77134 (Kcal/Mol)
 Warning -- explicit consideration of  18 degrees of freedom as
           vibrations may cause significant error
 Vibrational temperatures:     78.52   137.00   160.58   189.30   252.40
          (Kelvin)            325.96   339.77   385.84   404.39   445.09
                              481.36   531.38   599.53   709.20   719.13
                              737.35   845.70   881.01   919.97   978.29
                             1074.99  1154.15  1206.27  1254.84  1267.85
                             1294.38  1395.85  1404.75  1427.53  1465.09
                             1516.42  1542.08  1557.40  1568.99  1637.12
                             1650.55  1682.03  1703.53  1736.33  1761.77
                             1807.11  1813.85  1899.49  1935.62  1946.04
                             1980.63  2005.33  2026.47  2060.53  2079.41
                             2091.92  2169.45  2171.64  2179.37  2188.94
                             2204.79  2221.72  2256.67  2362.18  2448.02
                             4288.14  4327.35  4347.89  4376.59  4380.49
                             4394.20  4401.52  4407.67  4423.85  4449.17
                             4451.79  4496.74  4600.74  4993.42  5110.44

 Zero-point correction=                           0.235489 (Hartree/Particle)
 Thermal correction to Energy=                    0.247402
 Thermal correction to Enthalpy=                  0.248346
 Thermal correction to Gibbs Free Energy=         0.197634
 Sum of electronic and zero-point Energies=           -842.851699
 Sum of electronic and thermal Energies=              -842.839786
 Sum of electronic and thermal Enthalpies=            -842.838841
 Sum of electronic and thermal Free Energies=         -842.889553

                     E (Thermal)             CV                S
                      KCal/Mol        Cal/Mol-Kelvin    Cal/Mol-Kelvin
 Total                  155.247             46.025            106.732
 Electronic               0.000              0.000              0.000
 Translational            0.889              2.981             41.488
 Rotational               0.889              2.981             31.120
 Vibrational            153.470             40.064             34.124
 Vibration     1          0.596              1.976              4.644
 Vibration     2          0.603              1.953              3.550
 Vibration     3          0.607              1.940              3.241
 Vibration     4          0.612              1.922              2.923
 Vibration     5          0.627              1.873              2.377
 Vibration     6          0.650              1.801              1.906
 Vibration     7          0.655              1.785              1.832
 Vibration     8          0.673              1.732              1.608
 Vibration     9          0.681              1.709              1.527
 Vibration    10          0.699              1.656              1.366
 Vibration    11          0.716              1.606              1.238
 Vibration    12          0.742              1.535              1.083
 Vibration    13          0.780              1.434              0.903
 Vibration    14          0.849              1.266              0.676
 Vibration    15          0.855              1.250              0.659
 Vibration    16          0.868              1.222              0.628
 Vibration    17          0.945              1.058              0.471
 Vibration    18          0.972              1.006              0.429

 Optimization completed.
    -- Stationary point found.
 Normal termination of Gaussian 16 at Wed Dec  9 17:49:11 2020.

 ----------------------------------------------------------------------
 # B3LYP/6-311++G(d,p) empiricaldispersion=gd3bj scf=xqc pop=npa geom=c
 heck
 ----------------------------------------------------------------------

 --------------------------------------
 CID_82408073_JID_2606_Energie_neutraal
 --------------------------------------
 Structure from the checkpoint file:  "JID_2606.chk"
 Charge =  0 Multiplicity = 1

 SCF Done:  E(RB3LYP) =  -843.238914038     A.U. after   15 cycles
 Normal termination of Gaussian 16 at Wed Dec  9 17:51:55 2020.

 ----------------------------------------------------------------------
 # B3LYP/6-311++G(d,p) empiricaldispersion=gd3bj scf=xqc pop=npa geom=c
 heck
 ----------------------------------------------------------------------

 ------------------------------------
 CID_82408073_JID_2606_Energie_kation
 ------------------------------------
 Structure from the checkpoint file:  "JID_2606.chk"
 Charge =  1 Multiplicity = 2

 SCF Done:  E(UB3LYP) =  -842.959775612     A.U. after   24 cycles
 Normal termination of Gaussian 16 at Wed Dec  9 18:00:09 2020.
 Gaussian 16:  ES64L-G16RevA.03 25-Dec-2016

 ----------------------------------------------------------------------
 # B3LYP/6-311++G(d,p) empiricaldispersion=gd3bj scf=xqc pop=npa geom=c
 heck
 ----------------------------------------------------------------------

 -----------------------------------
 CID_82408073_JID_2606_Energie_anion
 -----------------------------------
 Structure from the checkpoint file:  "JID_2606.chk"
 Charge = -1 Multiplicity = 2

                         Standard orientation:
 ---------------------------------------------------------------------
 Center     Atomic      Atomic             Coordinates (Angstroms)
 Number     Number       Type             X           Y           Z
 ---------------------------------------------------------------------
      1          6           0        4.070117    0.504358    0.579598
      2          6           0        2.621278    0.336839    0.239491
      3          6           0        1.667365    1.301250    0.077455
      4          6           0        0.367877    0.790217   -0.252696
      5          6           0        0.345269   -0.576418   -0.335887
      6         16           0        1.925422   -1.253698   -0.013298
      7          6           0       -0.853700   -1.416250   -0.676954
      8          6           0       -2.153127   -0.599704   -0.510918
      9          6           0       -1.977221    0.788929   -1.154399
     10          6           0       -0.873873    1.615638   -0.473422
     11          6           0       -2.560650   -0.521872    0.968467
     12          7           0       -3.800965    0.246213    1.138853
     13          1           0        4.300181    1.567712    0.699514
     14          1           0        4.724726    0.105234   -0.204880
     15          1           0        4.333352   -0.004187    1.515212
     16          1           0        1.882422    2.360256    0.188582
     17          1           0       -0.890537   -2.315122   -0.047291
     18          1           0       -0.777355   -1.773723   -1.713810
     19          1           0       -2.962671   -1.117697   -1.038855
     20          1           0       -1.716262    0.650018   -2.211496
     21          1           0       -2.928362    1.331972   -1.136724
     22          1           0       -0.640607    2.499950   -1.080139
     23          1           0       -1.232251    2.004574    0.492253
     24          1           0       -2.753962   -1.541488    1.322886
     25          1           0       -1.712577   -0.141130    1.562676
     26          1           0       -4.142038    0.131013    2.091520
     27          1           0       -3.604075    1.240362    1.036943
 ---------------------------------------------------------------------

 SCF Done:  E(UB3LYP) =  -843.223494937     A.U. after   33 cycles
 SCF Done:  E(UB3LYP) =  -843.223494937     a.u. after    1 cycles

 The electronic state is 2-A.
 Alpha  occ. eigenvalues --  -88.76541 -14.18709 -10.10195 -10.09278 -10.08530
 Alpha  occ. eigenvalues --  -10.08150 -10.07903 -10.07398 -10.07193 -10.07073
 Alpha  occ. eigenvalues --  -10.06664 -10.06569  -7.85193  -5.81482  -5.81129
 Alpha  occ. eigenvalues --   -5.80772  -0.78678  -0.77617  -0.71861  -0.66487
 Alpha  occ. eigenvalues --   -0.65755  -0.60895  -0.59484  -0.55129  -0.51870
 Alpha  occ. eigenvalues --   -0.46523  -0.44190  -0.41059  -0.38637  -0.38317
 Alpha  occ. eigenvalues --   -0.36402  -0.34195  -0.33789  -0.32886  -0.32046
 Alpha  occ. eigenvalues --   -0.31749  -0.29883  -0.28533  -0.28105  -0.27879
 Alpha  occ. eigenvalues --   -0.26079  -0.24034  -0.23882  -0.22629  -0.21809
 Alpha  occ. eigenvalues --   -0.21386  -0.14356  -0.14215  -0.11558   0.04510
 Alpha virt. eigenvalues --    0.06071   0.07125   0.07559   0.08036   0.08926
 Alpha virt. eigenvalues --    0.09521   0.09882   0.10269   0.10711   0.10944
 Alpha virt. eigenvalues --    0.11546   0.11995   0.12715   0.13528   0.13769

  Beta  occ. eigenvalues --  -88.76536 -14.18658 -10.10191 -10.09271 -10.08508
  Beta  occ. eigenvalues --  -10.08141 -10.07868 -10.07395 -10.07192 -10.07044
  Beta  occ. eigenvalues --  -10.06651 -10.06553  -7.85187  -5.81474  -5.81124
  Beta  occ. eigenvalues --   -5.80766  -0.78643  -0.77562  -0.71827  -0.66458
  Beta  occ. eigenvalues --   -0.65717  -0.60866  -0.59431  -0.55057  -0.51815
  Beta  occ. eigenvalues --   -0.46483  -0.44152  -0.41017  -0.38592  -0.38277
  Beta  occ. eigenvalues --   -0.36338  -0.34164  -0.33750  -0.32850  -0.32012
  Beta  occ. eigenvalues --   -0.31690  -0.29846  -0.28501  -0.28064  -0.27839
  Beta  occ. eigenvalues --   -0.26050  -0.24012  -0.23855  -0.22599  -0.21782
  Beta  occ. eigenvalues --   -0.21355  -0.14338  -0.14165  -0.11525
  Beta virt. eigenvalues --    0.06664   0.07028   0.07571   0.08074   0.08545
  Beta virt. eigenvalues --    0.09320   0.09909   0.10397   0.10591   0.11107
  Beta virt. eigenvalues --    0.11242   0.11919   0.12283   0.12981   0.13632

 Mulliken charges and spin densities:
               1          2
     1  C    2.869471  -3.023703
     2  C   -2.333401   2.620478
     3  C    0.384716  -0.279784
     4  C   -0.090936   0.272831
     5  C   -0.248869   0.439265
     6  S   -0.089835  -0.644276
     7  C   -0.481578  -0.190988
     8  C   -0.754663   1.613253
     9  C    0.065289  -0.823458
    10  C    0.777633  -1.441585
    11  C    1.656530  -2.534334
    12  N   -0.555569   0.205723
    13  H   -0.515207   0.682174
    14  H   -0.182213   0.340191
    15  H   -0.110483   0.266803
    16  H   -0.375372   0.530087
    17  H    0.014280   0.122850
    18  H   -0.047318   0.211303
    19  H   -0.035993   0.242622
    20  H    0.148280  -0.023153
    21  H   -0.196727   0.386153
    22  H   -0.280197   0.453851
    23  H   -0.136769   0.310234
    24  H   -0.120715   0.287593
    25  H   -0.128121   0.283659
    26  H   -0.195975   0.435093
    27  H   -0.036257   0.257116
 Sum of Mulliken charges =  -1.00000   1.00000

 Dipole moment (field-independent basis, Debye):
    X=              1.1463    Y=             -3.8099    Z=             -2.7436  Tot=              4.8329
 Quadrupole moment (field-independent basis, Debye-Ang):
   XX=           -169.8971   YY=           -118.6466   ZZ=           -114.5469
   XY=             -3.6636   XZ=              6.9664   YZ=             -1.2858

 Summary of Natural Population Analysis:

                                       Natural Population
                Natural  -----------------------------------------------
    Atom  No    Charge         Core      Valence    Rydberg      Total
 -----------------------------------------------------------------------
      C    1   -0.29854      0.99961     2.29208    0.00685     3.29854
      C    2   -0.09188      0.99951     2.07986    0.01251     3.09188
      C    3   -0.12216      0.99941     2.11105    0.01170     3.12216
      C    4   -0.04370      0.99942     2.03278    0.01150     3.04370
      C    5   -0.09413      0.99939     2.08325    0.01149     3.09413
      S    6    0.19123      4.99937     2.79025    0.01914     7.80877
      C    7   -0.20041      0.99956     2.19154    0.00932     3.20041
      C    8   -0.10763      0.99959     2.09688    0.01116     3.10763
      C    9   -0.18909      0.99962     2.18016    0.00930     3.18909
      C   10   -0.19625      0.99959     2.18726    0.00939     3.19625
      C   11   -0.09006      0.99960     2.07821    0.01225     3.09006
      N   12   -0.42390      0.99977     2.91343    0.01070     3.92390
      H   13    0.10981      0.00000     0.38854    0.00165     0.39019
      H   14    0.10471      0.00000     0.39394    0.00135     0.39529
      H   15    0.10410      0.00000     0.39477    0.00113     0.39590
      H   16    0.10659      0.00000     0.39215    0.00126     0.39341
      H   17    0.10308      0.00000     0.39555    0.00137     0.39692
      H   18    0.10329      0.00000     0.39534    0.00137     0.39671
      H   19    0.09993      0.00000     0.39845    0.00162     0.40007
      H   20    0.09659      0.00000     0.40213    0.00128     0.40341
      H   21    0.10431      0.00000     0.39452    0.00117     0.39569
      H   22    0.10498      0.00000     0.39373    0.00129     0.39502
      H   23    0.10334      0.00000     0.39471    0.00195     0.39666
      H   24    0.09013      0.00000     0.40862    0.00125     0.40987
      H   25    0.08375      0.00000     0.41409    0.00216     0.41625
      H   26    0.17757      0.00000     0.31951    0.00292     0.32243
      H   27    0.17434      0.00000     0.32280    0.00286     0.32566
 =======================================================================
   * Total *    0.00000     15.99445    32.84561    0.15994    49.00000

 Normal termination of Gaussian 16 at Wed Dec  9 18:11:31 2020.
