 Gaussian 16, Revision A.03,

 -----------------------------------------------------------
 # opt freq B3LYP/6-31G(d) empiricaldispersion=gd3bj scf=xqc
 -----------------------------------------------------------

 -------------------------------
 CID_154282899_JID_1590_neutraal
 -------------------------------
 Symbolic Z-matrix:
 Charge =  0 Multiplicity = 1

 SCF Done:  E(RB3LYP) =  -503.041610294     A.U. after   14 cycles
 SCF Done:  E(RB3LYP) =  -503.045049112     A.U. after   11 cycles
 SCF Done:  E(RB3LYP) =  -503.045482414     A.U. after   11 cycles
 SCF Done:  E(RB3LYP) =  -503.046032930     A.U. after   11 cycles
 SCF Done:  E(RB3LYP) =  -503.046992368     A.U. after   12 cycles
 SCF Done:  E(RB3LYP) =  -503.047500793     A.U. after   14 cycles
 SCF Done:  E(RB3LYP) =  -503.039499175     A.U. after   13 cycles
 SCF Done:  E(RB3LYP) =  -503.048273232     A.U. after   11 cycles
 SCF Done:  E(RB3LYP) =  -503.049050586     A.U. after   11 cycles
 SCF Done:  E(RB3LYP) =  -503.050379952     A.U. after   13 cycles
 SCF Done:  E(RB3LYP) =  -503.058781224     A.U. after   10 cycles
 SCF Done:  E(RB3LYP) =  -503.058787312     A.U. after    8 cycles
 SCF Done:  E(RB3LYP) =  -503.058788550     A.U. after    8 cycles
 SCF Done:  E(RB3LYP) =  -503.058788840     A.U. after    7 cycles
 SCF Done:  E(RB3LYP) =  -503.058788881     A.U. after    6 cycles
 Optimization completed.
    -- Stationary point found.

 1\1\GINC-NODE201\FOpt\RB3LYP\6-31G(d)\C9H16O2\VSC10255\08-Dec-2020\0\\
 # opt freq B3LYP/6-31G(d) empiricaldispersion=gd3bj scf=xqc\\CID_15428
 2899_JID_1590_neutraal\\0,1\C,1.0074943827,0.0780468855,-0.4332231209\
 C,0.716094008,0.7572720792,0.9082263674\C,1.168552577,2.2242534717,0.9
 537178141\C,0.3883781147,3.1203319192,-0.0237879289\C,0.6667354924,4.5
 729221034,0.2384189192\C,1.2798305985,4.9724372964,1.355820031\O,1.659
 1168215,4.1580301732,2.3810259159\C,1.1189797721,2.8111162812,2.378897
 9209\C,-0.2867458668,2.8784695592,2.9789498216\O,2.0052074835,2.037060

 Normal termination of Gaussian 16 at Tue Dec  8 20:34:50 2020.

 --------------------------------------------------------------------
 #N Geom=AllCheck Guess=TCheck SCRF=Check GenChk RB3LYP/6-31G(d) Freq
 --------------------------------------------------------------------

 Structure from the checkpoint file:  "JID_1590.chk"
 -------------------------------
 CID_154282899_JID_1590_neutraal
 -------------------------------
 Charge =  0 Multiplicity = 1

 SCF Done:  E(RB3LYP) =  -503.058788881     A.U. after    1 cycles

  Exact polarizability: 110.030  -3.504 103.887   3.065   0.986  77.372
 Approx polarizability: 153.286  -8.861 138.178  10.394  -0.738 116.358

                      1                      2                      3
                      A                      A                      A
 Frequencies --     79.8132                95.2184               109.6524
 Red. masses --      2.1110                 2.1555                 2.9647
 Frc consts  --      0.0079                 0.0115                 0.0210
 IR Inten    --      0.2272                 3.8240                 0.6544

                      4                      5                      6
                      A                      A                      A
 Frequencies --    143.3704               168.6868               195.9567
 Red. masses --      2.2653                 1.4075                 1.6302
 Frc consts  --      0.0274                 0.0236                 0.0369
 IR Inten    --      0.8448                 1.9577                 1.3190

                      7                      8                      9
                      A                      A                      A
 Frequencies --    219.2318               238.4400               269.0690
 Red. masses --      2.6376                 1.2036                 1.4131
 Frc consts  --      0.0747                 0.0403                 0.0603
 IR Inten    --      0.4581                 0.6383                 1.6574

                     10                     11                     12
                      A                      A                      A
 Frequencies --    318.8650               349.9345               368.1231
 Red. masses --      2.8979                 2.4221                 3.5730
 Frc consts  --      0.1736                 0.1747                 0.2853
 IR Inten    --      0.5874                 1.6299                 0.7480

                     13                     14                     15
                      A                      A                      A
 Frequencies --    417.5675               444.5457               468.9694
 Red. masses --      2.6063                 3.1208                 3.8294
 Frc consts  --      0.2678                 0.3634                 0.4962
 IR Inten    --      1.8820                 7.8378                 1.5964

                     16                     17                     18
                      A                      A                      A
 Frequencies --    520.1741               521.7042               593.2317
 Red. masses --      4.3562                 4.1167                 3.0125
 Frc consts  --      0.6945                 0.6602                 0.6246
 IR Inten    --      1.2213                12.8953                 2.8979

                     19                     20                     21
                      A                      A                      A
 Frequencies --    722.5120               753.4299               789.4382
 Red. masses --      2.4090                 1.4406                 1.6721
 Frc consts  --      0.7409                 0.4818                 0.6140
 IR Inten    --     13.0965                10.1369                 2.8121

                     22                     23                     24
                      A                      A                      A
 Frequencies --    819.6533               892.2598               935.3853
 Red. masses --      2.0175                 3.0491                 1.8070
 Frc consts  --      0.7986                 1.4302                 0.9315
 IR Inten    --      4.4548                70.1525                 2.2056

                     25                     26                     27
                      A                      A                      A
 Frequencies --    938.0775               950.8590               961.7379
 Red. masses --      1.4471                 1.6340                 2.0943
 Frc consts  --      0.7503                 0.8704                 1.1413
 IR Inten    --      1.7002                 2.2160                 2.5242

                     28                     29                     30
                      A                      A                      A
 Frequencies --    990.5689              1024.7702              1051.2770
 Red. masses --      2.1337                 2.0834                 2.5146
 Frc consts  --      1.2335                 1.2891                 1.6374
 IR Inten    --      6.6951                20.1334                10.3975

                     31                     32                     33
                      A                      A                      A
 Frequencies --   1096.5344              1105.3250              1106.7682
 Red. masses --      2.5644                 2.1324                 2.2144
 Frc consts  --      1.8167                 1.5350                 1.5981
 IR Inten    --    192.1485                15.3126                20.3253

                     34                     35                     36
                      A                      A                      A
 Frequencies --   1150.0782              1168.0734              1185.7362
 Red. masses --      1.6086                 2.3075                 1.3972
 Frc consts  --      1.2535                 1.8549                 1.1574
 IR Inten    --     21.9035                23.7576                13.7607

                     37                     38                     39
                      A                      A                      A
 Frequencies --   1194.1084              1228.8177              1252.8191
 Red. masses --      1.9751                 1.6050                 1.7137
 Frc consts  --      1.6593                 1.4279                 1.5848
 IR Inten    --     30.2856                64.5674               129.8993

                     40                     41                     42
                      A                      A                      A
 Frequencies --   1281.5554              1294.3289              1313.1737
 Red. masses --      2.3197                 1.5681                 1.3651
 Frc consts  --      2.2447                 1.5478                 1.3869
 IR Inten    --     21.0412                31.4967                14.7475

                     43                     44                     45
                      A                      A                      A
 Frequencies --   1346.1291              1364.7651              1393.2558
 Red. masses --      1.2347                 1.5057                 1.5162
 Frc consts  --      1.3182                 1.6523                 1.7341
 IR Inten    --      5.6525                11.3994                 0.0924

                     46                     47                     48
                      A                      A                      A
 Frequencies --   1414.6375              1431.2346              1437.0663
 Red. masses --      1.5316                 1.4417                 1.3753
 Frc consts  --      1.8058                 1.7400                 1.6735
 IR Inten    --      4.8189                11.8646                23.9053

                     49                     50                     51
                      A                      A                      A
 Frequencies --   1442.1983              1494.4717              1512.4792
 Red. masses --      1.2545                 1.1462                 1.0740
 Frc consts  --      1.5374                 1.5083                 1.4476
 IR Inten    --      2.0695                 0.2701                 1.9731

                     52                     53                     54
                      A                      A                      A
 Frequencies --   1516.0062              1522.0842              1524.5520
 Red. masses --      1.0553                 1.0707                 1.0574
 Frc consts  --      1.4290                 1.4615                 1.4480
 IR Inten    --      0.4268                 1.1747                 1.9426

                     55                     56                     57
                      A                      A                      A
 Frequencies --   1531.5806              1538.2354              1539.6578
 Red. masses --      1.0481                 1.0579                 1.0660
 Frc consts  --      1.4485                 1.4748                 1.4889
 IR Inten    --      5.8140                 6.1626                 7.0180

                     58                     59                     60
                      A                      A                      A
 Frequencies --   1544.7591              1735.9726              2997.6377
 Red. masses --      1.0516                 6.1143                 1.0726
 Frc consts  --      1.4785                10.8563                 5.6788
 IR Inten    --      2.5353                72.3999                30.9934

                     61                     62                     63
                      A                      A                      A
 Frequencies --   3035.5353              3035.8763              3046.4309
 Red. masses --      1.0396                 1.0708                 1.0379
 Frc consts  --      5.6440                 5.8145                 5.6755
 IR Inten    --     61.1631                 4.4883                20.0006

                     64                     65                     66
                      A                      A                      A
 Frequencies --   3050.4898              3068.8866              3079.9707
 Red. masses --      1.0773                 1.0883                 1.0353
 Frc consts  --      5.9063                 6.0390                 5.7867
 IR Inten    --     26.6761                46.0669                11.6852

                     67                     68                     69
                      A                      A                      A
 Frequencies --   3098.5443              3108.8434              3113.1713
 Red. masses --      1.0957                 1.0964                 1.1023
 Frc consts  --      6.1981                 6.2431                 6.2941
 IR Inten    --      0.8004                37.8420                42.7562

                     70                     71                     72
                      A                      A                      A
 Frequencies --   3121.9577              3148.8350              3154.2527
 Red. masses --      1.1004                 1.1044                 1.1027
 Frc consts  --      6.3192                 6.4519                 6.4637
 IR Inten    --     50.1442                27.1322                17.9726

                     73                     74                     75
                      A                      A                      A
 Frequencies --   3155.8060              3196.1619              3217.8706
 Red. masses --      1.1026                 1.0855                 1.0996
 Frc consts  --      6.4696                 6.5331                 6.7082
 IR Inten    --     13.5604                 2.9766                38.8112

 - Thermochemistry -
 -------------------
 Temperature   298.150 Kelvin.  Pressure   1.00000 Atm.
 Atom     1 has atomic number  6 and mass  12.00000

 Molecular mass:   156.11503 amu.
 Principal axes and moments of inertia in atomic units:
                           1         2         3
     Eigenvalues --  1350.653421716.854302579.22905
           X            0.99986  -0.01258  -0.01090
           Y            0.01258   0.99992  -0.00022
           Z            0.01090   0.00008   0.99994
 This molecule is an asymmetric top.
 Rotational symmetry number  1.
 Warning -- assumption of classical behavior for rotation
           may cause significant error
 Rotational temperatures (Kelvin)      0.06413     0.05045     0.03358
 Rotational constants (GHZ):           1.33620     1.05119     0.69972
 Zero-point vibrational energy     631922.5 (Joules/Mol)
                                  151.03311 (Kcal/Mol)
 Warning -- explicit consideration of  18 degrees of freedom as
           vibrations may cause significant error
 Vibrational temperatures:    114.83   137.00   157.77   206.28   242.70
          (Kelvin)            281.94   315.43   343.06   387.13   458.78
                              503.48   529.65   600.79   639.60   674.74
                              748.41   750.62   853.53  1039.53  1084.02
                             1135.83  1179.30  1283.76  1345.81  1349.68
                             1368.07  1383.73  1425.21  1474.42  1512.55
                             1577.67  1590.32  1592.39  1654.71  1680.60
                             1706.01  1718.06  1767.99  1802.53  1843.87
                             1862.25  1889.36  1936.78  1963.59  2004.58
                             2035.35  2059.23  2067.62  2075.00  2150.21
                             2176.12  2181.19  2189.94  2193.49  2203.60
                             2213.18  2215.22  2222.56  2497.68  4312.93
                             4367.46  4367.95  4383.13  4388.97  4415.44
                             4431.39  4458.11  4472.93  4479.16  4491.80
                             4530.47  4538.27  4540.50  4598.56  4629.80

 Zero-point correction=                           0.240687 (Hartree/Particle)
 Thermal correction to Energy=                    0.252567
 Thermal correction to Enthalpy=                  0.253511
 Thermal correction to Gibbs Free Energy=         0.203646
 Sum of electronic and zero-point Energies=           -502.818102
 Sum of electronic and thermal Energies=              -502.806222
 Sum of electronic and thermal Enthalpies=            -502.805278
 Sum of electronic and thermal Free Energies=         -502.855142

                     E (Thermal)             CV                S
                      KCal/Mol        Cal/Mol-Kelvin    Cal/Mol-Kelvin
 Total                  158.488             45.163            104.949
 Electronic               0.000              0.000              0.000
 Translational            0.889              2.981             41.046
 Rotational               0.889              2.981             30.171
 Vibrational            156.711             39.201             33.732
 Vibration     1          0.600              1.963              3.895
 Vibration     2          0.603              1.953              3.550
 Vibration     3          0.606              1.941              3.275
 Vibration     4          0.616              1.910              2.758
 Vibration     5          0.625              1.881              2.450
 Vibration     6          0.636              1.846              2.171
 Vibration     7          0.647              1.812              1.965
 Vibration     8          0.656              1.782              1.814
 Vibration     9          0.673              1.730              1.602
 Vibration    10          0.705              1.638              1.316
 Vibration    11          0.727              1.575              1.166
 Vibration    12          0.741              1.538              1.088
 Vibration    13          0.781              1.432              0.900
 Vibration    14          0.804              1.373              0.812
 Vibration    15          0.826              1.319              0.740
 Vibration    16          0.875              1.205              0.610
 Vibration    17          0.877              1.202              0.606
 Vibration    18          0.951              1.046              0.461

 Optimization completed.
    -- Stationary point found.

 1\1\GINC-NODE201\Freq\RB3LYP\6-31G(d)\C9H16O2\VSC10255\08-Dec-2020\0\\
 #N Geom=AllCheck Guess=TCheck SCRF=Check GenChk RB3LYP/6-31G(d) Freq\\
 CID_154282899_JID_1590_neutraal\\0,1\C,1.0074943827,0.0780468855,-0.43
 32231209\C,0.716094008,0.7572720792,0.9082263674\C,1.168552577,2.22425
 34717,0.9537178141\C,0.3883781147,3.1203319192,-0.0237879289\C,0.66673
 54924,4.5729221034,0.2384189192\C,1.2798305985,4.9724372964,1.35582003
 1\O,1.6591168215,4.1580301732,2.3810259159\C,1.1189797721,2.8111162812
 ,2.3788979209\C,-0.2867458668,2.8784695592,2.9789498216\O,2.0052074835

 Normal termination of Gaussian 16 at Tue Dec  8 20:40:57 2020.

 ----------------------------------------------------------------------
 # B3LYP/6-311++G(d,p) empiricaldispersion=gd3bj scf=xqc pop=npa geom=c
 heck
 ----------------------------------------------------------------------

 ---------------------------------------
 CID_154282899_JID_1590_Energie_neutraal
 ---------------------------------------
 Structure from the checkpoint file:  "JID_1590.chk"
 Charge =  0 Multiplicity = 1

 SCF Done:  E(RB3LYP) =  -503.203350406     A.U. after   14 cycles
 Normal termination of Gaussian 16 at Tue Dec  8 20:45:57 2020.

 ----------------------------------------------------------------------
 # B3LYP/6-311++G(d,p) empiricaldispersion=gd3bj scf=xqc pop=npa geom=c
 heck
 ----------------------------------------------------------------------

 -------------------------------------
 CID_154282899_JID_1590_Energie_kation
 -------------------------------------
 Structure from the checkpoint file:  "JID_1590.chk"
 Charge =  1 Multiplicity = 2

 SCF Done:  E(UB3LYP) =  -502.900429341     A.U. after   21 cycles
 Normal termination of Gaussian 16 at Tue Dec  8 20:53:58 2020.
 Gaussian 16:  ES64L-G16RevA.03 25-Dec-2016

 ------------------------------------
 CID_154282899_JID_1590_Energie_anion
 ------------------------------------
 Structure from the checkpoint file:  "JID_1590.chk"
 Charge = -1 Multiplicity = 2

                         Standard orientation:
 ---------------------------------------------------------------------
 Center     Atomic      Atomic             Coordinates (Angstroms)
 Number     Number       Type             X           Y           Z
 ---------------------------------------------------------------------
      1          6           0        3.104274    1.212488   -0.347199
      2          6           0        1.689389    1.208256    0.239172
      3          6           0        0.830112    0.039015   -0.264156
      4          6           0        1.359625   -1.331278    0.193075
      5          6           0        0.358507   -2.415707   -0.086262
      6          6           0       -0.903701   -2.128378   -0.415439
      7          8           0       -1.436194   -0.875090   -0.477755
      8          6           0       -0.656418    0.195730    0.114887
      9          6           0       -0.922799    0.179120    1.621349
     10          8           0       -1.084205    1.376228   -0.506464
     11          6           0       -2.453059    1.727433   -0.352100
     12          1           0        3.674446    0.325903   -0.048566
     13          1           0        3.663684    2.092079   -0.010163
     14          1           0        3.074202    1.235661   -1.443297
     15          1           0        1.753268    1.170745    1.335186
     16          1           0        1.184568    2.144951   -0.016677
     17          1           0        0.834053    0.057667   -1.361951
     18          1           0        2.297806   -1.546754   -0.332459
     19          1           0        1.621665   -1.296837    1.262888
     20          1           0        0.664895   -3.456432   -0.054493
     21          1           0       -1.645208   -2.877726   -0.676013
     22          1           0       -0.451243    1.038996    2.104672
     23          1           0       -1.997247    0.206741    1.817564
     24          1           0       -0.528456   -0.737988    2.065512
     25          1           0       -3.111397    0.888314   -0.598486
     26          1           0       -2.675180    2.080176    0.663715
     27          1           0       -2.632233    2.545336   -1.053639
 ---------------------------------------------------------------------

 SCF Done:  E(UB3LYP) =  -503.185862963     A.U. after   33 cycles
 SCF Done:  E(UB3LYP) =  -503.185862963     a.u. after    1 cycles

 The electronic state is 2-A.
 Alpha  occ. eigenvalues --  -19.04321 -19.02938 -10.17916 -10.11768 -10.10788
 Alpha  occ. eigenvalues --  -10.07356 -10.06968 -10.06220 -10.05937 -10.05828
 Alpha  occ. eigenvalues --  -10.05716  -0.98285  -0.92381  -0.72293  -0.67890
 Alpha  occ. eigenvalues --   -0.65172  -0.60630  -0.59284  -0.55239  -0.51568
 Alpha  occ. eigenvalues --   -0.48564  -0.42938  -0.41278  -0.39662  -0.36971
 Alpha  occ. eigenvalues --   -0.36425  -0.34419  -0.33217  -0.32881  -0.31747
 Alpha  occ. eigenvalues --   -0.31111  -0.29257  -0.28217  -0.27617  -0.27153
 Alpha  occ. eigenvalues --   -0.26572  -0.25390  -0.23917  -0.22267  -0.21756
 Alpha  occ. eigenvalues --   -0.19810  -0.17440  -0.12185   0.04636
 Alpha virt. eigenvalues --    0.06711   0.07036   0.08053   0.08852   0.09476
 Alpha virt. eigenvalues --    0.09956   0.10233   0.10777   0.11843   0.12218
 Alpha virt. eigenvalues --    0.12446   0.12724   0.13401   0.13878   0.14166

  Beta  occ. eigenvalues --  -19.04318 -19.02934 -10.17915 -10.11758 -10.10752
  Beta  occ. eigenvalues --  -10.07353 -10.06944 -10.06206 -10.05905 -10.05799
  Beta  occ. eigenvalues --  -10.05703  -0.98275  -0.92370  -0.72270  -0.67858
  Beta  occ. eigenvalues --   -0.65138  -0.60581  -0.59235  -0.55195  -0.51523
  Beta  occ. eigenvalues --   -0.48513  -0.42900  -0.41241  -0.39628  -0.36936
  Beta  occ. eigenvalues --   -0.36393  -0.34391  -0.33181  -0.32850  -0.31716
  Beta  occ. eigenvalues --   -0.31079  -0.29227  -0.28181  -0.27589  -0.27110
  Beta  occ. eigenvalues --   -0.26544  -0.25365  -0.23886  -0.22235  -0.21731
  Beta  occ. eigenvalues --   -0.19792  -0.17424  -0.12170
  Beta virt. eigenvalues --    0.06850   0.07695   0.07880   0.08704   0.09554
  Beta virt. eigenvalues --    0.10079   0.10399   0.10838   0.11308   0.12237
  Beta virt. eigenvalues --    0.12348   0.12858   0.13198   0.13734   0.14360

 Mulliken charges and spin densities:
               1          2
     1  C    1.247516  -1.868772
     2  C   -0.343238   0.129447
     3  C   -0.608444   1.183547
     4  C    1.193245  -1.743684
     5  C    0.407523  -0.526939
     6  C    0.252182  -0.371577
     7  O   -0.051329   0.007782
     8  C   -2.121035   1.209117
     9  C    1.014629  -1.390940
    10  O   -0.049714   0.007410
    11  C    1.196025  -1.389438
    12  H   -0.407631   0.562331
    13  H   -0.236550   0.379346
    14  H   -0.021018   0.152038
    15  H    0.020614   0.102490
    16  H   -0.027971   0.192867
    17  H    0.025392   0.210767
    18  H    0.015102   0.125646
    19  H   -0.226963   0.406252
    20  H   -0.712732   0.900481
    21  H   -0.396458   0.567647
    22  H   -0.337157   0.530884
    23  H   -0.310269   0.491225
    24  H    0.191118  -0.023066
    25  H   -0.133863   0.299347
    26  H   -0.356014   0.492137
    27  H   -0.222959   0.363653
 Sum of Mulliken charges =  -1.00000   1.00000

 Dipole moment (field-independent basis, Debye):
    X=             -0.3725    Y=              0.4020    Z=             -1.7006  Tot=              1.7867
 Quadrupole moment (field-independent basis, Debye-Ang):
   XX=           -129.3502   YY=           -121.1342   ZZ=           -102.8507
   XY=              4.6245   XZ=              1.1606   YZ=             -1.9893

 Summary of Natural Population Analysis:

                                       Natural Population
                Natural  -----------------------------------------------
    Atom  No    Charge         Core      Valence    Rydberg      Total
 -----------------------------------------------------------------------
      C    1   -0.28373      0.99967     2.27932    0.00474     3.28373
      C    2   -0.18995      0.99961     2.18118    0.00915     3.18995
      C    3   -0.12417      0.99952     2.11197    0.01268     3.12417
      C    4   -0.20757      0.99960     2.19779    0.01017     3.20757
      C    5   -0.15039      0.99954     2.14082    0.01003     3.15039
      C    6    0.07977      0.99941     1.90587    0.01495     2.92023
      O    7   -0.29685      0.99986     3.28622    0.01077     4.29685
      C    8    0.31014      0.99948     1.66911    0.02127     2.68986
      C    9   -0.31519      0.99959     2.30882    0.00677     3.31519
      O   10   -0.30411      0.99985     3.29410    0.01016     4.30411
      C   11   -0.10215      0.99959     2.09343    0.00914     3.10215
      H   12    0.09735      0.00000     0.40138    0.00126     0.40265
      H   13    0.09901      0.00000     0.40009    0.00091     0.40099
      H   14    0.09476      0.00000     0.40421    0.00103     0.40524
      H   15    0.09442      0.00000     0.40415    0.00143     0.40558
      H   16    0.10524      0.00000     0.39316    0.00159     0.39476
      H   17    0.10397      0.00000     0.39413    0.00191     0.39603
      H   18    0.10848      0.00000     0.39006    0.00146     0.39152
      H   19    0.10135      0.00000     0.39700    0.00165     0.39865
      H   20    0.10451      0.00000     0.39409    0.00140     0.39549
      H   21    0.09049      0.00000     0.40834    0.00117     0.40951
      H   22    0.10674      0.00000     0.39189    0.00137     0.39326
      H   23    0.10770      0.00000     0.39088    0.00142     0.39230
      H   24    0.10902      0.00000     0.38977    0.00122     0.39098
      H   25    0.08902      0.00000     0.40902    0.00197     0.41098
      H   26    0.08216      0.00000     0.41612    0.00172     0.41784
      H   27    0.09000      0.00000     0.40896    0.00104     0.41000
 =======================================================================
   * Total *    0.00000     10.99573    31.86188    0.14239    43.00000

 Normal termination of Gaussian 16 at Tue Dec  8 21:08:06 2020.
