 Gaussian 16, Revision A.03,

 -----------------------------------------------------------
 # opt freq B3LYP/6-31G(d) empiricaldispersion=gd3bj scf=xqc
 -----------------------------------------------------------

 -------------------------------
 CID_116924326_JID_6705_neutraal
 -------------------------------
 Symbolic Z-matrix:
 Charge =  0 Multiplicity = 1

 SCF Done:  E(RB3LYP) =  -674.943264792     A.U. after   15 cycles
 SCF Done:  E(RB3LYP) =  -674.947402306     A.U. after   13 cycles
 SCF Done:  E(RB3LYP) =  -674.947226625     A.U. after   13 cycles
 SCF Done:  E(RB3LYP) =  -674.948610349     A.U. after   11 cycles
 SCF Done:  E(RB3LYP) =  -674.948785096     A.U. after   12 cycles
 SCF Done:  E(RB3LYP) =  -674.948705703     A.U. after   12 cycles
 SCF Done:  E(RB3LYP) =  -674.949122885     A.U. after   12 cycles
 SCF Done:  E(RB3LYP) =  -674.949236277     A.U. after   12 cycles
 SCF Done:  E(RB3LYP) =  -674.949280306     A.U. after   12 cycles
 SCF Done:  E(RB3LYP) =  -674.949296713     A.U. after   11 cycles
 SCF Done:  E(RB3LYP) =  -674.949335122     A.U. after   10 cycles
 SCF Done:  E(RB3LYP) =  -674.949335796     A.U. after    8 cycles
 SCF Done:  E(RB3LYP) =  -674.949336087     A.U. after    8 cycles
 SCF Done:  E(RB3LYP) =  -674.949336289     A.U. after    8 cycles
 SCF Done:  E(RB3LYP) =  -674.949336325     A.U. after    8 cycles
 Optimization completed.
    -- Stationary point found.
 Normal termination of Gaussian 16 at Fri Dec 11 00:20:48 2020.

 --------------------------------------------------------------------
 #N Geom=AllCheck Guess=TCheck SCRF=Check GenChk RB3LYP/6-31G(d) Freq
 --------------------------------------------------------------------

 Structure from the checkpoint file:  "JID_6705.chk"
 -------------------------------
 CID_116924326_JID_6705_neutraal
 -------------------------------
 Charge =  0 Multiplicity = 1

 SCF Done:  E(RB3LYP) =  -674.949336325     A.U. after    1 cycles

  Exact polarizability: 192.459  -3.275 152.804   7.287   5.982 108.815
 Approx polarizability: 258.602  -2.506 240.975  15.994  20.159 170.606

                      1                      2                      3
                      A                      A                      A
 Frequencies --     14.6970                33.4095                53.1393
 Red. masses --      4.7605                 2.6880                 2.9902
 Frc consts  --      0.0006                 0.0018                 0.0050
 IR Inten    --      0.3169                 0.0815                 0.3104

                      4                      5                      6
                      A                      A                      A
 Frequencies --     80.5508                88.2534               102.2844
 Red. masses --      1.4404                 2.7133                 2.9960
 Frc consts  --      0.0055                 0.0125                 0.0185
 IR Inten    --      0.3862                 0.7971                 0.2337

                      7                      8                      9
                      A                      A                      A
 Frequencies --    123.6741               191.8231               195.9030
 Red. masses --      3.9275                 2.8641                 2.7968
 Frc consts  --      0.0354                 0.0621                 0.0632
 IR Inten    --      1.0554                 5.4226                 3.9680

                     10                     11                     12
                      A                      A                      A
 Frequencies --    222.0925               236.9253               256.5663
 Red. masses --      1.3892                 1.0777                 1.1931
 Frc consts  --      0.0404                 0.0356                 0.0463
 IR Inten    --     23.0897                 0.4687                 0.0545

                     13                     14                     15
                      A                      A                      A
 Frequencies --    264.6154               278.3333               289.0344
 Red. masses --      2.8518                 2.4249                 2.6479
 Frc consts  --      0.1177                 0.1107                 0.1303
 IR Inten    --      9.0179                 4.1260                 0.7903

                     16                     17                     18
                      A                      A                      A
 Frequencies --    303.0637               344.9171               382.3508
 Red. masses --      2.9914                 4.1307                 2.6524
 Frc consts  --      0.1619                 0.2895                 0.2285
 IR Inten    --      1.1345                 4.6540                 6.6670

                     19                     20                     21
                      A                      A                      A
 Frequencies --    389.1772               416.9490               425.3253
 Red. masses --      3.2524                 3.4786                 2.8481
 Frc consts  --      0.2902                 0.3563                 0.3036
 IR Inten    --      1.4285                 6.6900                 4.1567

                     22                     23                     24
                      A                      A                      A
 Frequencies --    456.2107               505.7720               543.9217
 Red. masses --      3.1214                 3.3525                 2.9263
 Frc consts  --      0.3828                 0.5053                 0.5101
 IR Inten    --      0.8564                 6.5357                 1.9097

                     25                     26                     27
                      A                      A                      A
 Frequencies --    599.5553               648.9711               693.5656
 Red. masses --      4.5254                 5.3319                 4.0731
 Frc consts  --      0.9584                 1.3231                 1.1544
 IR Inten    --      2.9960                12.4987                 1.0442

                     28                     29                     30
                      A                      A                      A
 Frequencies --    709.8996               740.4044               786.9347
 Red. masses --      5.0798                 3.3916                 4.1733
 Frc consts  --      1.5083                 1.0955                 1.5227
 IR Inten    --      0.9449                 1.7587                12.3119

                     31                     32                     33
                      A                      A                      A
 Frequencies --    807.3745               819.7172               845.5713
 Red. masses --      1.4362                 1.8724                 1.3804
 Frc consts  --      0.5516                 0.7413                 0.5815
 IR Inten    --      1.9688                17.9834                24.3900

                     34                     35                     36
                      A                      A                      A
 Frequencies --    863.8544               869.8396               886.2227
 Red. masses --      2.2937                 4.4818                 2.0049
 Frc consts  --      1.0085                 1.9980                 0.9277
 IR Inten    --    160.8344                 6.3715                84.2528

                     37                     38                     39
                      A                      A                      A
 Frequencies --    913.8066               921.6202               942.9007
 Red. masses --      1.5671                 2.3630                 1.1758
 Frc consts  --      0.7710                 1.1826                 0.6159
 IR Inten    --      2.6317                10.4127                 0.5841

                     40                     41                     42
                      A                      A                      A
 Frequencies --    957.8036               973.4595               975.2489
 Red. masses --      1.3075                 1.2096                 1.4985
 Frc consts  --      0.7067                 0.6754                 0.8397
 IR Inten    --      0.2382                 0.5073                 0.1179

                     43                     44                     45
                      A                      A                      A
 Frequencies --   1011.6668              1030.8949              1054.8552
 Red. masses --      1.7250                 1.6056                 3.0191
 Frc consts  --      1.0402                 1.0053                 1.9793
 IR Inten    --     61.3256                 9.6224                 8.4352

                     46                     47                     48
                      A                      A                      A
 Frequencies --   1074.6408              1077.9336              1095.7337
 Red. masses --      1.3078                 1.4874                 1.3535
 Frc consts  --      0.8898                 1.0182                 0.9575
 IR Inten    --     18.1852                 4.9628                 3.3185

                     49                     50                     51
                      A                      A                      A
 Frequencies --   1099.6874              1135.4150              1162.3741
 Red. masses --      1.6009                 2.3003                 1.9999
 Frc consts  --      1.1406                 1.7472                 1.5921
 IR Inten    --      8.6098                 0.7525                34.4577

                     52                     53                     54
                      A                      A                      A
 Frequencies --   1171.6578              1212.1283              1218.8670
 Red. masses --      1.9973                 1.7850                 1.2696
 Frc consts  --      1.6154                 1.5452                 1.1113
 IR Inten    --     16.4206                26.5715                 0.1889

                     55                     56                     57
                      A                      A                      A
 Frequencies --   1242.6934              1265.5704              1286.9523
 Red. masses --      1.9348                 2.8294                 1.3650
 Frc consts  --      1.7604                 2.6701                 1.3320
 IR Inten    --      1.1818                 2.0961                 4.1899

                     58                     59                     60
                      A                      A                      A
 Frequencies --   1310.1302              1320.1479              1342.0636
 Red. masses --      1.6191                 3.4360                 3.2602
 Frc consts  --      1.6374                 3.5282                 3.4597
 IR Inten    --      4.9497                72.5544                 7.6602

                     61                     62                     63
                      A                      A                      A
 Frequencies --   1346.7390              1363.0050              1389.2598
 Red. masses --      3.4609                 1.3275                 2.1445
 Frc consts  --      3.6983                 1.4530                 2.4386
 IR Inten    --     21.1760                 2.5318                 9.2124

                     64                     65                     66
                      A                      A                      A
 Frequencies --   1426.8621              1445.9479              1451.7331
 Red. masses --      1.2280                 1.2813                 1.2321
 Frc consts  --      1.4731                 1.5784                 1.5300
 IR Inten    --      2.9732                 4.0725                 0.3430

                     67                     68                     69
                      A                      A                      A
 Frequencies --   1464.3109              1465.0603              1505.2164
 Red. masses --      1.6661                 1.3235                 1.3695
 Frc consts  --      2.1049                 1.6737                 1.8282
 IR Inten    --      7.2553                 7.8421                 6.7556

                     70                     71                     72
                      A                      A                      A
 Frequencies --   1515.0195              1517.3253              1521.4053
 Red. masses --      1.0688                 1.0442                 1.0493
 Frc consts  --      1.4454                 1.4165                 1.4310
 IR Inten    --     12.2202                 0.1144                 2.7082

                     73                     74                     75
                      A                      A                      A
 Frequencies --   1522.2466              1532.9895              1535.4305
 Red. masses --      1.1444                 1.0705                 1.2703
 Frc consts  --      1.5624                 1.4823                 1.7644
 IR Inten    --     14.2148                 6.2374                 0.0456

                     76                     77                     78
                      A                      A                      A
 Frequencies --   1544.9939              1628.1832              1668.7493
 Red. masses --      1.7285                 5.5670                 5.8651
 Frc consts  --      2.4309                 8.6952                 9.6229
 IR Inten    --     13.8720                 3.1174                 2.2415

                     79                     80                     81
                      A                      A                      A
 Frequencies --   1702.8412              1769.5945              3034.3510
 Red. masses --      1.1032                11.6811                 1.0843
 Frc consts  --      1.8847                21.5516                 5.8821
 IR Inten    --     15.5128               106.4708                18.9076

                     82                     83                     84
                      A                      A                      A
 Frequencies --   3045.5768              3049.7488              3050.1319
 Red. masses --      1.0346                 1.0363                 1.0366
 Frc consts  --      5.6539                 5.6788                 5.6817
 IR Inten    --     25.1895                49.3511                 4.6225

                     85                     86                     87
                      A                      A                      A
 Frequencies --   3100.9986              3110.8798              3117.2521
 Red. masses --      1.0998                 1.1026                 1.1018
 Frc consts  --      6.2314                 6.2870                 6.3081
 IR Inten    --     16.4419                 0.9659                84.8150

                     88                     89                     90
                      A                      A                      A
 Frequencies --   3120.5425              3124.9046              3132.0343
 Red. masses --      1.1029                 1.1025                 1.1013
 Frc consts  --      6.3278                 6.3432                 6.3653
 IR Inten    --     27.7584                27.5165                19.2622

                     91                     92                     93
                      A                      A                      A
 Frequencies --   3158.9722              3168.0260              3174.1562
 Red. masses --      1.0526                 1.0533                 1.0868
 Frc consts  --      6.1886                 6.2286                 6.4514
 IR Inten    --      7.7369                 7.0688                12.5205

                     94                     95                     96
                      A                      A                      A
 Frequencies --   3188.4113              3191.6071              3248.3160
 Red. masses --      1.0895                 1.0941                 1.1210
 Frc consts  --      6.5254                 6.5662                 6.9690
 IR Inten    --     13.1128                22.0750                 1.1647

                     97                     98                     99
                      A                      A                      A
 Frequencies --   3264.7852              3478.6427              3559.0233
 Red. masses --      1.1188                 1.0493                 1.0922
 Frc consts  --      7.0260                 7.4813                 8.1508
 IR Inten    --      3.0386                 1.1602                 0.2093

 - Thermochemistry -
 -------------------
 Temperature   298.150 Kelvin.  Pressure   1.00000 Atm.
 Atom     1 has atomic number  6 and mass  12.00000

 Molecular mass:   217.14666 amu.
 Principal axes and moments of inertia in atomic units:
                           1         2         3
     Eigenvalues --  2022.110265513.532966291.33751
           X            0.99975  -0.02208  -0.00256
           Y            0.02203   0.99963  -0.01619
           Z            0.00292   0.01613   0.99987
 This molecule is an asymmetric top.
 Rotational symmetry number  1.
 Warning -- assumption of classical behavior for rotation
           may cause significant error
 Rotational temperatures (Kelvin)      0.04283     0.01571     0.01377
 Rotational constants (GHZ):           0.89250     0.32733     0.28686
 Zero-point vibrational energy     794945.0 (Joules/Mol)
                                  189.99641 (Kcal/Mol)
 Warning -- explicit consideration of  25 degrees of freedom as
           vibrations may cause significant error
 Vibrational temperatures:     21.15    48.07    76.46   115.89   126.98
          (Kelvin)            147.16   177.94   275.99   281.86   319.54
                              340.88   369.14   380.72   400.46   415.86
                              436.04   496.26   550.12   559.94   599.90
                              611.95   656.39   727.69   782.58   862.63
                              933.72   997.89  1021.39  1065.28  1132.22
                             1161.63  1179.39  1216.59  1242.89  1251.51
                             1275.08  1314.76  1326.01  1356.62  1378.07
                             1400.59  1403.17  1455.56  1483.23  1517.70
                             1546.17  1550.91  1576.52  1582.20  1633.61
                             1672.40  1685.75  1743.98  1753.68  1787.96
                             1820.87  1851.64  1884.99  1899.40  1930.93
                             1937.66  1961.06  1998.84  2052.94  2080.40
                             2088.72  2106.82  2107.89  2165.67  2179.78
                             2183.09  2188.96  2190.17  2205.63  2209.14
                             2222.90  2342.59  2400.96  2450.01  2546.05
                             4365.75  4381.91  4387.91  4388.46  4461.65
                             4475.86  4485.03  4489.76  4496.04  4506.30
                             4545.06  4558.08  4566.90  4587.41  4592.01
                             4673.60  4697.30  5004.99  5120.64

 Zero-point correction=                           0.302779 (Hartree/Particle)
 Thermal correction to Energy=                    0.319679
 Thermal correction to Enthalpy=                  0.320624
 Thermal correction to Gibbs Free Energy=         0.257010
 Sum of electronic and zero-point Energies=           -674.646558
 Sum of electronic and thermal Energies=              -674.629657
 Sum of electronic and thermal Enthalpies=            -674.628713
 Sum of electronic and thermal Free Energies=         -674.692326

                     E (Thermal)             CV                S
                      KCal/Mol        Cal/Mol-Kelvin    Cal/Mol-Kelvin
 Total                  200.602             63.563            133.886
 Electronic               0.000              0.000              0.000
 Translational            0.889              2.981             42.029
 Rotational               0.889              2.981             32.617
 Vibrational            198.824             57.601             59.240
 Vibration     1          0.593              1.986              7.246
 Vibration     2          0.594              1.983              5.616
 Vibration     3          0.596              1.976              4.697
 Vibration     4          0.600              1.962              3.877
 Vibration     5          0.601              1.957              3.698
 Vibration     6          0.604              1.947              3.410
 Vibration     7          0.610              1.929              3.042
 Vibration     8          0.634              1.851              2.210
 Vibration     9          0.636              1.846              2.171
 Vibration    10          0.648              1.807              1.942
 Vibration    11          0.656              1.784              1.826
 Vibration    12          0.666              1.752              1.685
 Vibration    13          0.671              1.738              1.631
 Vibration    14          0.679              1.714              1.544
 Vibration    15          0.686              1.694              1.480
 Vibration    16          0.695              1.668              1.400
 Vibration    17          0.723              1.586              1.189
 Vibration    18          0.752              1.508              1.030
 Vibration    19          0.757              1.493              1.003
 Vibration    20          0.780              1.433              0.902
 Vibration    21          0.787              1.415              0.874
 Vibration    22          0.814              1.347              0.777
 Vibration    23          0.861              1.237              0.644
 Vibration    24          0.899              1.153              0.557
 Vibration    25          0.958              1.033              0.450

 Optimization completed.
    -- Stationary point found.
 Normal termination of Gaussian 16 at Fri Dec 11 00:32:53 2020.

 ----------------------------------------------------------------------
 # B3LYP/6-311++G(d,p) empiricaldispersion=gd3bj scf=xqc pop=npa geom=c
 heck
 ----------------------------------------------------------------------

 ---------------------------------------
 CID_116924326_JID_6705_Energie_neutraal
 ---------------------------------------
 Structure from the checkpoint file:  "JID_6705.chk"
 Charge =  0 Multiplicity = 1

 SCF Done:  E(RB3LYP) =  -675.137568478     A.U. after   15 cycles
 Normal termination of Gaussian 16 at Fri Dec 11 00:38:30 2020.

 ----------------------------------------------------------------------
 # B3LYP/6-311++G(d,p) empiricaldispersion=gd3bj scf=xqc pop=npa geom=c
 heck
 ----------------------------------------------------------------------

 -------------------------------------
 CID_116924326_JID_6705_Energie_kation
 -------------------------------------
 Structure from the checkpoint file:  "JID_6705.chk"
 Charge =  1 Multiplicity = 2

 SCF Done:  E(UB3LYP) =  -674.837298404     A.U. after   27 cycles
 Normal termination of Gaussian 16 at Fri Dec 11 00:52:00 2020.
 Gaussian 16:  ES64L-G16RevA.03 25-Dec-2016

 ----------------------------------------------------------------------
 # B3LYP/6-311++G(d,p) empiricaldispersion=gd3bj scf=xqc pop=npa geom=c
 heck
 ----------------------------------------------------------------------

 ------------------------------------
 CID_116924326_JID_6705_Energie_anion
 ------------------------------------
 Structure from the checkpoint file:  "JID_6705.chk"
 Charge = -1 Multiplicity = 2

                         Standard orientation:
 ---------------------------------------------------------------------
 Center     Atomic      Atomic             Coordinates (Angstroms)
 Number     Number       Type             X           Y           Z
 ---------------------------------------------------------------------
      1          6           0       -1.581957    2.463458   -0.297402
      2          6           0       -0.290307    1.696181   -0.130237
      3          6           0       -0.228181    0.304359   -0.338512
      4          6           0        0.988300   -0.372863   -0.255654
      5          6           0        2.176019    0.292901    0.071880
      6          6           0        2.107897    1.669913    0.293661
      7          6           0        0.898911    2.358066    0.182073
      8          6           0        3.493476   -0.455405    0.173674
      9          6           0        3.454721   -1.517812    1.285063
     10          6           0        3.892191   -1.079797   -1.174095
     11          6           0       -1.460702   -0.490762   -0.687167
     12          8           0       -1.592951   -0.987169   -1.795730
     13          6           0       -2.492802   -0.663631    0.395068
     14          6           0       -3.934648   -0.395998   -0.033374
     15          6           0       -3.479232   -1.799329    0.182545
     16          7           0       -2.171391   -0.359387    1.768379
     17          1           0       -2.029181    2.274673   -1.280190
     18          1           0       -2.337874    2.188813    0.448034
     19          1           0       -1.407477    3.539518   -0.208377
     20          1           0        1.000881   -1.441344   -0.453571
     21          1           0        3.013982    2.215726    0.545580
     22          1           0        0.880064    3.434704    0.333336
     23          1           0        4.264008    0.279540    0.442299
     24          1           0        2.711082   -2.292295    1.063772
     25          1           0        4.428890   -2.010201    1.384129
     26          1           0        3.195749   -1.070287    2.250602
     27          1           0        3.947560   -0.319174   -1.959707
     28          1           0        4.869365   -1.570616   -1.098735
     29          1           0        3.162379   -1.833689   -1.490795
     30          1           0       -4.561966    0.065547    0.722401
     31          1           0       -4.083454   -0.058854   -1.054410
     32          1           0       -3.310668   -2.417161   -0.692858
     33          1           0       -3.800102   -2.306284    1.086080
     34          1           0       -1.386578   -0.930486    2.077019
     35          1           0       -1.875413    0.609254    1.867437
 ---------------------------------------------------------------------

 SCF Done:  E(UB3LYP) =  -675.129474302     A.U. after   33 cycles
 SCF Done:  E(UB3LYP) =  -675.129474302     a.u. after    1 cycles

 The electronic state is 2-A.
 Alpha  occ. eigenvalues --  -18.96641 -14.19322 -10.10827 -10.10020 -10.07234
 Alpha  occ. eigenvalues --  -10.07012 -10.06680 -10.06648 -10.06607 -10.06070
 Alpha  occ. eigenvalues --  -10.06024 -10.05809 -10.05538 -10.05533 -10.05487
 Alpha  occ. eigenvalues --  -10.05413  -0.90486  -0.80377  -0.75063  -0.71608
 Alpha  occ. eigenvalues --   -0.70091  -0.64924  -0.63948  -0.58088  -0.57996
 Alpha  occ. eigenvalues --   -0.54060  -0.50227  -0.49941  -0.48520  -0.45804
 Alpha  occ. eigenvalues --   -0.42588  -0.39854  -0.38076  -0.37307  -0.36642
 Alpha  occ. eigenvalues --   -0.35377  -0.33459  -0.33064  -0.32170  -0.31817
 Alpha  occ. eigenvalues --   -0.30886  -0.30628  -0.29440  -0.28553  -0.28372
 Alpha  occ. eigenvalues --   -0.27623  -0.26474  -0.25153  -0.24713  -0.24228
 Alpha  occ. eigenvalues --   -0.23085  -0.22395  -0.21587  -0.21238  -0.17505
 Alpha  occ. eigenvalues --   -0.16801  -0.14107  -0.12856  -0.10948   0.04721
 Alpha virt. eigenvalues --    0.06594   0.07289   0.07883   0.08570   0.09018
 Alpha virt. eigenvalues --    0.09311   0.09563   0.10164   0.10408   0.10775
 Alpha virt. eigenvalues --    0.11367   0.11610   0.11900   0.12220   0.12860

  Beta  occ. eigenvalues --  -18.96327 -14.19298 -10.10527 -10.10053 -10.07228
  Beta  occ. eigenvalues --  -10.06969 -10.06661 -10.06578 -10.06578 -10.06042
  Beta  occ. eigenvalues --  -10.06023 -10.05789 -10.05508 -10.05504 -10.05467
  Beta  occ. eigenvalues --  -10.05339  -0.89888  -0.80299  -0.74936  -0.71535
  Beta  occ. eigenvalues --   -0.70001  -0.64822  -0.63755  -0.58039  -0.57906
  Beta  occ. eigenvalues --   -0.53619  -0.50126  -0.49841  -0.48397  -0.45694
  Beta  occ. eigenvalues --   -0.42448  -0.39741  -0.37988  -0.37206  -0.36556
  Beta  occ. eigenvalues --   -0.35222  -0.33365  -0.32948  -0.32058  -0.31713
  Beta  occ. eigenvalues --   -0.30817  -0.30512  -0.29152  -0.28500  -0.28339
  Beta  occ. eigenvalues --   -0.27202  -0.26417  -0.24826  -0.24320  -0.23880
  Beta  occ. eigenvalues --   -0.22908  -0.22268  -0.21500  -0.21083  -0.17035
  Beta  occ. eigenvalues --   -0.16646  -0.13858  -0.12445  -0.10686
  Beta virt. eigenvalues --    0.06963   0.07483   0.08070   0.08789   0.09168
  Beta virt. eigenvalues --    0.09231   0.09517   0.09676   0.10400   0.10534
  Beta virt. eigenvalues --    0.11043   0.11728   0.11882   0.12077   0.12317

 Mulliken charges and spin densities:
               1          2
     1  C   -0.103539  -0.519194
     2  C    0.340361  -0.076890
     3  C    0.352958   0.457707
     4  C   -0.175992  -0.342382
     5  C    1.412050  -0.925019
     6  C   -0.425885   0.184281
     7  C   -0.044965  -0.370805
     8  C   -1.695545   1.759410
     9  C    0.582687  -1.268268
    10  C    0.172089  -0.843804
    11  C   -0.576605   0.124854
    12  O   -0.312706   0.103302
    13  C   -0.367234   0.071089
    14  C   -0.192835   0.076577
    15  C    0.015555  -0.182923
    16  N   -0.216030  -0.053372
    17  H    0.179404  -0.001484
    18  H    0.079076   0.068252
    19  H    0.085611   0.060971
    20  H    0.263169  -0.057741
    21  H   -0.311706   0.445037
    22  H   -0.095187   0.220594
    23  H   -0.305328   0.487617
    24  H   -0.030953   0.172660
    25  H   -0.276738   0.416766
    26  H   -0.067651   0.202228
    27  H    0.122043   0.005435
    28  H   -0.282704   0.425294
    29  H    0.029075   0.113978
    30  H    0.154616  -0.007232
    31  H    0.159058   0.006011
    32  H    0.173096  -0.000877
    33  H    0.078195   0.061054
    34  H    0.121103   0.118108
    35  H    0.161458   0.068766
 Sum of Mulliken charges =  -1.00000   1.00000

 Dipole moment (field-independent basis, Debye):
    X=             -4.8880    Y=              1.6298    Z=             -0.0866  Tot=              5.1533
 Quadrupole moment (field-independent basis, Debye-Ang):
   XX=           -169.2026   YY=           -125.1313   ZZ=           -130.4050
   XY=             -0.3621   XZ=             -5.4239   YZ=             -3.7978

 Summary of Natural Population Analysis:

                                       Natural Population
                Natural  -----------------------------------------------
    Atom  No    Charge         Core      Valence    Rydberg      Total
 -----------------------------------------------------------------------
      C    1   -0.29350      0.99964     2.28959    0.00427     3.29350
      C    2   -0.00894      0.99947     2.00038    0.00909     3.00894
      C    3   -0.04425      0.99943     2.03201    0.01281     3.04425
      C    4   -0.08829      0.99946     2.07970    0.00913     3.08829
      C    5   -0.00659      0.99949     1.99587    0.01123     3.00659
      C    6   -0.08954      0.99951     2.08033    0.00971     3.08954
      C    7   -0.10512      0.99952     2.09552    0.01008     3.10512
      C    8   -0.11853      0.99958     2.10801    0.01093     3.11853
      C    9   -0.27943      0.99965     2.27365    0.00613     3.27943
      C   10   -0.27998      0.99965     2.27427    0.00605     3.27998
      C   11    0.31633      0.99954     1.65908    0.02504     2.68367
      O   12   -0.27180      0.99988     3.26610    0.00582     4.27180
      C   13    0.00136      0.99950     1.98531    0.01383     2.99864
      C   14   -0.18130      0.99960     2.17494    0.00675     3.18130
      C   15   -0.18612      0.99960     2.17788    0.00864     3.18612
      N   16   -0.42058      0.99975     2.91179    0.00904     3.92058
      H   17    0.10620      0.00000     0.39288    0.00092     0.39380
      H   18    0.10055      0.00000     0.39825    0.00120     0.39945
      H   19    0.09842      0.00000     0.40084    0.00074     0.40158
      H   20    0.10044      0.00000     0.39801    0.00155     0.39956
      H   21    0.09721      0.00000     0.40159    0.00121     0.40279
      H   22    0.09494      0.00000     0.40410    0.00096     0.40506
      H   23    0.09550      0.00000     0.40213    0.00237     0.40450
      H   24    0.09591      0.00000     0.40307    0.00102     0.40409
      H   25    0.09651      0.00000     0.40258    0.00091     0.40349
      H   26    0.10124      0.00000     0.39767    0.00109     0.39876
      H   27    0.09999      0.00000     0.39929    0.00072     0.40001
      H   28    0.09724      0.00000     0.40175    0.00101     0.40276
      H   29    0.09696      0.00000     0.40216    0.00089     0.40304
      H   30    0.10118      0.00000     0.39766    0.00116     0.39882
      H   31    0.10454      0.00000     0.39426    0.00120     0.39546
      H   32    0.11154      0.00000     0.38723    0.00123     0.38846
      H   33    0.10186      0.00000     0.39701    0.00113     0.39814
      H   34    0.17885      0.00000     0.31944    0.00171     0.32115
      H   35    0.17720      0.00000     0.32101    0.00178     0.32280
 =======================================================================
   * Total *    0.00000     15.99328    42.82536    0.18136    59.00000

 Normal termination of Gaussian 16 at Fri Dec 11 01:07:35 2020.
