 Gaussian 16, Revision A.03,

 -----------------------------------------------------------
 # opt freq B3LYP/6-31G(d) empiricaldispersion=gd3bj scf=xqc
 -----------------------------------------------------------

 -------------------------------
 CID_149782941_JID_4164_neutraal
 -------------------------------
 Symbolic Z-matrix:
 Charge =  0 Multiplicity = 1

 SCF Done:  E(RB3LYP) =  -662.998047833     A.U. after   17 cycles
 SCF Done:  E(RB3LYP) =  -663.004367351     A.U. after   14 cycles
 SCF Done:  E(RB3LYP) =  -663.006010588     A.U. after   14 cycles
 SCF Done:  E(RB3LYP) =  -663.006411426     A.U. after   12 cycles
 SCF Done:  E(RB3LYP) =  -663.006513982     A.U. after   13 cycles
 SCF Done:  E(RB3LYP) =  -663.006488611     A.U. after   13 cycles
 SCF Done:  E(RB3LYP) =  -663.006654259     A.U. after   12 cycles
 SCF Done:  E(RB3LYP) =  -663.006798768     A.U. after   14 cycles
 SCF Done:  E(RB3LYP) =  -663.006854211     A.U. after   17 cycles
 SCF Done:  E(RB3LYP) =  -663.007192321     A.U. after   14 cycles
 SCF Done:  E(RB3LYP) =  -663.007430509     A.U. after   12 cycles
 SCF Done:  E(RB3LYP) =  -663.007432106     A.U. after   10 cycles
 SCF Done:  E(RB3LYP) =  -663.007432299     A.U. after   10 cycles
 SCF Done:  E(RB3LYP) =  -663.007432331     A.U. after    7 cycles
 SCF Done:  E(RB3LYP) =  -663.007432352     A.U. after    7 cycles
 Optimization completed.
    -- Stationary point found.
 Normal termination of Gaussian 16 at Thu Dec 10 09:19:55 2020.

 --------------------------------------------------------------------
 #N Geom=AllCheck Guess=TCheck SCRF=Check GenChk RB3LYP/6-31G(d) Freq
 --------------------------------------------------------------------

 Structure from the checkpoint file:  "JID_4164.chk"
 -------------------------------
 CID_149782941_JID_4164_neutraal
 -------------------------------
 Charge =  0 Multiplicity = 1

 SCF Done:  E(RB3LYP) =  -663.007432352     A.U. after    1 cycles

  Exact polarizability: 143.482 -17.892 132.835  14.690   0.136  81.642
 Approx polarizability: 200.841 -42.995 251.081  26.673   0.659 130.629

                      1                      2                      3
                      A                      A                      A
 Frequencies --     12.4614                33.5498                48.6776
 Red. masses --      7.8857                 7.3495                 6.2996
 Frc consts  --      0.0007                 0.0049                 0.0088
 IR Inten    --      0.3131                 0.1286                 0.0393

                      4                      5                      6
                      A                      A                      A
 Frequencies --     74.8468               127.5511               159.2846
 Red. masses --      7.3986                 6.2819                 4.9821
 Frc consts  --      0.0244                 0.0602                 0.0745
 IR Inten    --      1.6783                 1.5832                 0.7188

                      7                      8                      9
                      A                      A                      A
 Frequencies --    169.9204               202.4928               264.6615
 Red. masses --      1.1713                 3.5882                 4.9677
 Frc consts  --      0.0199                 0.0867                 0.2050
 IR Inten    --      0.2916                 1.0481                 5.9541

                     10                     11                     12
                      A                      A                      A
 Frequencies --    276.8924               294.4550               389.2781
 Red. masses --      4.3480                10.1189                 3.1436
 Frc consts  --      0.1964                 0.5169                 0.2807
 IR Inten    --      0.4253                 1.1943                 0.6286

                     13                     14                     15
                      A                      A                      A
 Frequencies --    419.2274               456.1375               500.3414
 Red. masses --      2.1529                 3.0496                 4.6719
 Frc consts  --      0.2229                 0.3738                 0.6891
 IR Inten    --      0.8250                 2.4351                 3.4620

                     16                     17                     18
                      A                      A                      A
 Frequencies --    517.1616               528.2935               582.2396
 Red. masses --     13.1826                 4.2316                 5.4564
 Frc consts  --      2.0773                 0.6958                 1.0898
 IR Inten    --      8.2276                 1.6163                 3.6951

                     19                     20                     21
                      A                      A                      A
 Frequencies --    618.4282               637.1648               711.4549
 Red. masses --      6.8241                 6.7895                 5.1991
 Frc consts  --      1.5377                 1.6240                 1.5505
 IR Inten    --     21.3002                 8.3885                 3.8004

                     22                     23                     24
                      A                      A                      A
 Frequencies --    742.0532               763.2566               808.7023
 Red. masses --      3.0004                 1.4633                 4.0217
 Frc consts  --      0.9734                 0.5023                 1.5497
 IR Inten    --      9.7158                27.8148                 4.5414

                     25                     26                     27
                      A                      A                      A
 Frequencies --    858.5097               880.7084               889.6923
 Red. masses --      3.4185                 2.2762                 2.7310
 Frc consts  --      1.4845                 1.0402                 1.2737
 IR Inten    --      0.8190                20.8335                22.0821

                     28                     29                     30
                      A                      A                      A
 Frequencies --    938.5117               949.6135               974.1630
 Red. masses --      2.8560                 1.5333                 3.3171
 Frc consts  --      1.4821                 0.8146                 1.8547
 IR Inten    --     25.9035                 6.0282                 4.2719

                     31                     32                     33
                      A                      A                      A
 Frequencies --    986.9957              1023.0440              1076.3285
 Red. masses --      1.2710                 1.5898                 1.5580
 Frc consts  --      0.7295                 0.9803                 1.0634
 IR Inten    --      0.0072                 1.3887                10.1591

                     34                     35                     36
                      A                      A                      A
 Frequencies --   1079.9859              1100.2711              1155.3028
 Red. masses --      2.2436                 1.9833                 1.9967
 Frc consts  --      1.5418                 1.4146                 1.5702
 IR Inten    --     12.8661                95.4128                46.7007

                     37                     38                     39
                      A                      A                      A
 Frequencies --   1198.8655              1207.7788              1243.8102
 Red. masses --      1.0996                 2.2638                 5.5842
 Frc consts  --      0.9312                 1.9457                 5.0900
 IR Inten    --      0.2869                 1.5429                 9.6439

                     40                     41                     42
                      A                      A                      A
 Frequencies --   1249.8549              1268.4687              1328.8136
 Red. masses --      2.9632                 2.0363                 1.5033
 Frc consts  --      2.7273                 1.9304                 1.5640
 IR Inten    --     89.5298                96.1494                 7.5153

                     43                     44                     45
                      A                      A                      A
 Frequencies --   1334.7730              1362.9395              1445.1915
 Red. masses --      1.5394                 3.8099                 1.2393
 Frc consts  --      1.6159                 4.1698                 1.5251
 IR Inten    --     10.4984                 5.8114                 1.0213

                     46                     47                     48
                      A                      A                      A
 Frequencies --   1493.7048              1507.2955              1519.2252
 Red. masses --      1.8195                 1.1519                 1.0573
 Frc consts  --      2.3918                 1.5420                 1.4378
 IR Inten    --      1.1397                13.3210                 2.7525

                     49                     50                     51
                      A                      A                      A
 Frequencies --   1533.9082              1546.7550              1641.3131
 Red. masses --      1.3261                 1.8952                 5.8472
 Frc consts  --      1.8383                 2.6714                 9.2807
 IR Inten    --      9.8052                13.8468                 0.3135

                     52                     53                     54
                      A                      A                      A
 Frequencies --   1667.5776              1875.1895              2203.6354
 Red. masses --      5.6976                12.2248                13.9955
 Frc consts  --      9.3350                25.3269                40.0423
 IR Inten    --      1.3895               274.0644               405.6520

                     55                     56                     57
                      A                      A                      A
 Frequencies --   3044.6999              3099.3424              3103.3897
 Red. masses --      1.0418                 1.0628                 1.0915
 Frc consts  --      5.6902                 6.0151                 6.1939
 IR Inten    --     23.4476                13.7272                 9.1910

                     58                     59                     60
                      A                      A                      A
 Frequencies --   3134.4246              3154.3309              3180.4939
 Red. masses --      1.1018                 1.1050                 1.0864
 Frc consts  --      6.3777                 6.4780                 6.4746
 IR Inten    --     15.5727                 4.1955                 7.5349

                     61                     62                     63
                      A                      A                      A
 Frequencies --   3188.7807              3198.8739              3212.6572
 Red. masses --      1.0882                 1.0926                 1.0976
 Frc consts  --      6.5196                 6.5871                 6.6744
 IR Inten    --      2.5782                25.9594                23.1281

 - Thermochemistry -
 -------------------
 Temperature   298.150 Kelvin.  Pressure   1.00000 Atm.
 Atom     1 has atomic number  6 and mass  12.00000

 Molecular mass:   191.06948 amu.
 Principal axes and moments of inertia in atomic units:
                           1         2         3
     Eigenvalues --  1538.229974404.155885111.94310
           X            0.99992   0.00546   0.01097
           Y           -0.00520   0.99970  -0.02397
           Z           -0.01110   0.02392   0.99965
 This molecule is an asymmetric top.
 Rotational symmetry number  1.
 Warning -- assumption of classical behavior for rotation
           may cause significant error
 Rotational temperatures (Kelvin)      0.05631     0.01967     0.01694
 Rotational constants (GHZ):           1.17326     0.40978     0.35304
 Zero-point vibrational energy     455763.8 (Joules/Mol)
                                  108.93016 (Kcal/Mol)
 Warning -- explicit consideration of  19 degrees of freedom as
           vibrations may cause significant error
 Vibrational temperatures:     17.93    48.27    70.04   107.69   183.52
          (Kelvin)            229.17   244.48   291.34   380.79   398.39
                              423.66   560.08   603.17   656.28   719.88
                              744.08   760.10   837.71   889.78   916.74
                             1023.62  1067.65  1098.16  1163.54  1235.20
                             1267.14  1280.07  1350.31  1366.28  1401.60
                             1420.07  1471.93  1548.60  1553.86  1583.04
                             1662.22  1724.90  1737.72  1789.57  1798.26
                             1825.04  1911.87  1920.44  1960.97  2079.31
                             2149.11  2168.66  2185.83  2206.95  2225.44
                             2361.48  2399.27  2697.98  3170.54  4380.64
                             4459.26  4465.09  4509.74  4538.38  4576.02
                             4587.94  4602.47  4622.30

 Zero-point correction=                           0.173591 (Hartree/Particle)
 Thermal correction to Energy=                    0.186610
 Thermal correction to Enthalpy=                  0.187554
 Thermal correction to Gibbs Free Energy=         0.131135
 Sum of electronic and zero-point Energies=           -662.833841
 Sum of electronic and thermal Energies=              -662.820822
 Sum of electronic and thermal Enthalpies=            -662.819878
 Sum of electronic and thermal Free Energies=         -662.876297

                     E (Thermal)             CV                S
                      KCal/Mol        Cal/Mol-Kelvin    Cal/Mol-Kelvin
 Total                  117.100             47.000            118.744
 Electronic               0.000              0.000              0.000
 Translational            0.889              2.981             41.648
 Rotational               0.889              2.981             31.916
 Vibrational            115.322             41.039             45.180
 Vibration     1          0.593              1.987              7.574
 Vibration     2          0.594              1.983              5.608
 Vibration     3          0.595              1.978              4.870
 Vibration     4          0.599              1.966              4.022
 Vibration     5          0.611              1.926              2.983
 Vibration     6          0.621              1.892              2.558
 Vibration     7          0.625              1.880              2.436
 Vibration     8          0.639              1.836              2.110
 Vibration     9          0.671              1.738              1.631
 Vibration    10          0.678              1.716              1.553
 Vibration    11          0.689              1.684              1.448
 Vibration    12          0.757              1.493              1.003
 Vibration    13          0.782              1.428              0.895
 Vibration    14          0.814              1.347              0.777
 Vibration    15          0.856              1.249              0.657
 Vibration    16          0.872              1.212              0.617
 Vibration    17          0.883              1.187              0.591
 Vibration    18          0.939              1.070              0.481
 Vibration    19          0.978              0.993              0.419

 Optimization completed.
    -- Stationary point found.
 Normal termination of Gaussian 16 at Thu Dec 10 09:25:13 2020.

 ----------------------------------------------------------------------
 # B3LYP/6-311++G(d,p) empiricaldispersion=gd3bj scf=xqc pop=npa geom=c
 heck
 ----------------------------------------------------------------------

 ---------------------------------------
 CID_149782941_JID_4164_Energie_neutraal
 ---------------------------------------
 Structure from the checkpoint file:  "JID_4164.chk"
 Charge =  0 Multiplicity = 1

 SCF Done:  E(RB3LYP) =  -663.190009752     A.U. after   16 cycles
 Normal termination of Gaussian 16 at Thu Dec 10 09:27:08 2020.

 ----------------------------------------------------------------------
 # B3LYP/6-311++G(d,p) empiricaldispersion=gd3bj scf=xqc pop=npa geom=c
 heck
 ----------------------------------------------------------------------

 -------------------------------------
 CID_149782941_JID_4164_Energie_kation
 -------------------------------------
 Structure from the checkpoint file:  "JID_4164.chk"
 Charge =  1 Multiplicity = 2

 SCF Done:  E(UB3LYP) =  -662.868783370     A.U. after   30 cycles
 Normal termination of Gaussian 16 at Thu Dec 10 09:31:59 2020.
 Gaussian 16:  ES64L-G16RevA.03 25-Dec-2016

 ----------------------------------------------------------------------
 # B3LYP/6-311++G(d,p) empiricaldispersion=gd3bj scf=xqc pop=npa geom=c
 heck
 ----------------------------------------------------------------------

 ------------------------------------
 CID_149782941_JID_4164_Energie_anion
 ------------------------------------
 Structure from the checkpoint file:  "JID_4164.chk"
 Charge = -1 Multiplicity = 2

                         Standard orientation:
 ---------------------------------------------------------------------
 Center     Atomic      Atomic             Coordinates (Angstroms)
 Number     Number       Type             X           Y           Z
 ---------------------------------------------------------------------
      1          6           0       -0.663410   -2.014231    1.178599
      2          6           0       -1.530798   -1.021894    0.441115
      3          6           0       -2.586767   -1.476806   -0.357484
      4          6           0       -3.402606   -0.593148   -1.062097
      5          6           0       -3.171070    0.778919   -0.978143
      6          6           0       -2.127761    1.249221   -0.184131
      7          6           0       -1.311815    0.365979    0.530310
      8          6           0       -0.173978    0.942389    1.357268
      9          6           0        0.996637    1.284353    0.449977
     10          8           0        1.176440    2.316911   -0.133238
     11          8           0        1.815679    0.182328    0.357444
     12          7           0        2.900072    0.423420   -0.583186
     13          7           0        3.517227   -0.662543   -0.648823
     14          7           0        4.188946   -1.568763   -0.823434
     15          1           0       -0.971853   -3.039176    0.954337
     16          1           0        0.391781   -1.910570    0.903758
     17          1           0       -0.728221   -1.882081    2.266441
     18          1           0       -2.766939   -2.546556   -0.427606
     19          1           0       -4.213810   -0.976420   -1.674561
     20          1           0       -3.796076    1.478595   -1.525142
     21          1           0       -1.931163    2.316083   -0.119421
     22          1           0       -0.481922    1.880841    1.825117
     23          1           0        0.146940    0.251884    2.139049
 ---------------------------------------------------------------------

 SCF Done:  E(UB3LYP) =  -663.211440392     A.U. after   33 cycles
 SCF Done:  E(UB3LYP) =  -663.211440392     a.u. after    1 cycles

 The electronic state is 2-A.
 Alpha  occ. eigenvalues --  -19.02914 -18.97870 -14.24540 -14.20824 -14.16474
 Alpha  occ. eigenvalues --  -10.16496 -10.08513 -10.08449 -10.07820 -10.07735
 Alpha  occ. eigenvalues --  -10.07677 -10.07529 -10.07474 -10.06627  -0.98279
 Alpha  occ. eigenvalues --   -0.93102  -0.88436  -0.76719  -0.75356  -0.68534
 Alpha  occ. eigenvalues --   -0.67102  -0.61276  -0.58383  -0.50685  -0.49219
 Alpha  occ. eigenvalues --   -0.46402  -0.40999  -0.38701  -0.37279  -0.36188
 Alpha  occ. eigenvalues --   -0.35964  -0.33626  -0.32178  -0.31896  -0.31245
 Alpha  occ. eigenvalues --   -0.30917  -0.29787  -0.29047  -0.27876  -0.27652
 Alpha  occ. eigenvalues --   -0.26145  -0.25547  -0.24532  -0.23829  -0.19670
 Alpha  occ. eigenvalues --   -0.16193  -0.16085  -0.15307  -0.13647  -0.06508
 Alpha  occ. eigenvalues --    0.04859
 Alpha virt. eigenvalues --    0.06576   0.07534   0.07878   0.08317   0.08668
 Alpha virt. eigenvalues --    0.09985   0.10311   0.12511   0.12825   0.13205
 Alpha virt. eigenvalues --    0.13598   0.14627   0.15231   0.15820   0.16480

  Beta  occ. eigenvalues --  -19.02432 -18.97873 -14.24030 -14.20730 -14.15473
  Beta  occ. eigenvalues --  -10.16488 -10.08487 -10.08426 -10.07795 -10.07719
  Beta  occ. eigenvalues --  -10.07681 -10.07497 -10.07475 -10.06622  -0.97521
  Beta  occ. eigenvalues --   -0.92396  -0.87661  -0.76642  -0.74535  -0.68433
  Beta  occ. eigenvalues --   -0.67052  -0.61161  -0.58319  -0.50612  -0.48929
  Beta  occ. eigenvalues --   -0.45672  -0.40935  -0.38604  -0.36718  -0.35929
  Beta  occ. eigenvalues --   -0.35900  -0.33446  -0.32064  -0.31647  -0.31038
  Beta  occ. eigenvalues --   -0.30430  -0.29144  -0.28964  -0.27550  -0.26035
  Beta  occ. eigenvalues --   -0.25501  -0.24532  -0.23836  -0.23564  -0.19334
  Beta  occ. eigenvalues --   -0.16066  -0.15228  -0.14678  -0.13152  -0.06018
  Beta virt. eigenvalues --    0.06534   0.07613   0.07856   0.08369   0.08660
  Beta virt. eigenvalues --    0.09905   0.10264   0.12403   0.12721   0.13160
  Beta virt. eigenvalues --    0.13630   0.14410   0.14698   0.15162   0.15787

 Mulliken charges and spin densities:
               1          2
     1  C   -0.557702  -0.263891
     2  C    0.127492   0.245800
     3  C   -0.208981  -0.088594
     4  C   -0.037112  -0.147094
     5  C   -0.424324  -0.087452
     6  C   -0.050373  -0.029592
     7  C    0.254467   0.392504
     8  C   -0.076268  -0.256409
     9  C   -0.126842  -0.070253
    10  O   -0.255950   0.008520
    11  O    0.113800   0.043761
    12  N   -0.767093   0.210869
    13  N    0.554283   0.087561
    14  N   -0.438713   0.470593
    15  H    0.104549   0.020467
    16  H    0.222385  -0.027773
    17  H    0.059322   0.089296
    18  H    0.031678   0.088479
    19  H    0.046686   0.087343
    20  H    0.079130   0.054733
    21  H    0.142216   0.031456
    22  H    0.064790   0.124495
    23  H    0.142561   0.015180
 Sum of Mulliken charges =  -1.00000   1.00000

 Dipole moment (field-independent basis, Debye):
    X=            -10.0790    Y=             -0.0067    Z=              3.0275  Tot=             10.5239
 Quadrupole moment (field-independent basis, Debye-Ang):
   XX=           -143.6488   YY=           -102.2272   ZZ=            -90.7092
   XY=              7.2180   XZ=             11.4906   YZ=             -0.3514

 Summary of Natural Population Analysis:

                                       Natural Population
                Natural  -----------------------------------------------
    Atom  No    Charge         Core      Valence    Rydberg      Total
 -----------------------------------------------------------------------
      C    1   -0.29982      0.99964     2.29519    0.00500     3.29982
      C    2   -0.00693      0.99947     1.99940    0.00807     3.00693
      C    3   -0.10396      0.99952     2.09501    0.00943     3.10396
      C    4   -0.10330      0.99957     2.09337    0.01036     3.10330
      C    5   -0.10562      0.99957     2.09599    0.01006     3.10562
      C    6   -0.09610      0.99952     2.08778    0.00880     3.09610
      C    7   -0.00623      0.99946     1.99683    0.00994     3.00623
      C    8   -0.23973      0.99956     2.23139    0.00879     3.23973
      C    9    0.40159      0.99971     1.57229    0.02641     2.59841
      O   10   -0.30415      0.99986     3.29777    0.00652     4.30415
      O   11   -0.18585      0.99987     3.17744    0.00854     4.18585
      N   12   -0.08961      0.99973     2.57320    0.01669     3.58961
      N   13    0.12225      0.99972     2.36080    0.01723     3.37775
      N   14    0.08527      0.99982     2.40112    0.01379     3.41473
      H   15    0.09786      0.00000     0.40116    0.00098     0.40214
      H   16    0.12162      0.00000     0.37692    0.00146     0.37838
      H   17    0.10001      0.00000     0.39865    0.00134     0.39999
      H   18    0.09616      0.00000     0.40283    0.00101     0.40384
      H   19    0.09639      0.00000     0.40276    0.00084     0.40361
      H   20    0.09711      0.00000     0.40207    0.00082     0.40289
      H   21    0.10290      0.00000     0.39559    0.00151     0.39710
      H   22    0.10796      0.00000     0.39061    0.00142     0.39204
      H   23    0.11220      0.00000     0.38644    0.00137     0.38780
 =======================================================================
   * Total *    0.00000     13.99499    35.83462    0.17038    50.00000

 Normal termination of Gaussian 16 at Thu Dec 10 09:37:22 2020.
