 Gaussian 16, Revision A.03,

 -----------------------------------------------------------
 # opt freq B3LYP/6-31G(d) empiricaldispersion=gd3bj scf=xqc
 -----------------------------------------------------------

 ------------------------------
 CID_65365092_JID_4546_neutraal
 ------------------------------
 Symbolic Z-matrix:
 Charge =  0 Multiplicity = 1

 SCF Done:  E(RB3LYP) =  -670.520071338     A.U. after   14 cycles
 SCF Done:  E(RB3LYP) =  -670.524927598     A.U. after   12 cycles
 SCF Done:  E(RB3LYP) =  -670.523376386     A.U. after   12 cycles
 SCF Done:  E(RB3LYP) =  -670.525985120     A.U. after   11 cycles
 SCF Done:  E(RB3LYP) =  -670.527058705     A.U. after   12 cycles
 SCF Done:  E(RB3LYP) =  -670.527746181     A.U. after   11 cycles
 SCF Done:  E(RB3LYP) =  -670.528010420     A.U. after   11 cycles
 SCF Done:  E(RB3LYP) =  -670.528095371     A.U. after   10 cycles
 SCF Done:  E(RB3LYP) =  -670.528128302     A.U. after   10 cycles
 SCF Done:  E(RB3LYP) =  -670.528138996     A.U. after   10 cycles
 SCF Done:  E(RB3LYP) =  -670.528144535     A.U. after    9 cycles
 SCF Done:  E(RB3LYP) =  -670.528146345     A.U. after    8 cycles
 SCF Done:  E(RB3LYP) =  -670.528146513     A.U. after    7 cycles
 SCF Done:  E(RB3LYP) =  -670.528146599     A.U. after    7 cycles
 Optimization completed.
    -- Stationary point found.
 Normal termination of Gaussian 16 at Thu Dec 10 10:03:06 2020.

 --------------------------------------------------------------------
 #N Geom=AllCheck Guess=TCheck SCRF=Check GenChk RB3LYP/6-31G(d) Freq
 --------------------------------------------------------------------

 Structure from the checkpoint file:  "JID_4546.chk"
 ------------------------------
 CID_65365092_JID_4546_neutraal
 ------------------------------
 Charge =  0 Multiplicity = 1

 SCF Done:  E(RB3LYP) =  -670.528146599     A.U. after    1 cycles

  Exact polarizability: 166.988   9.039 130.693  -8.378   1.486  68.376
 Approx polarizability: 222.120  13.723 203.475 -21.214   1.857 109.902

                      1                      2                      3
                      A                      A                      A
 Frequencies --     33.6240                48.0197                71.0632
 Red. masses --      3.9766                 2.5325                 3.7472
 Frc consts  --      0.0026                 0.0034                 0.0111
 IR Inten    --      0.3782                 0.2711                 6.1600

                      4                      5                      6
                      A                      A                      A
 Frequencies --     90.1490               126.8033               143.5309
 Red. masses --      3.3679                 4.5450                 2.8980
 Frc consts  --      0.0161                 0.0431                 0.0352
 IR Inten    --      1.0803                 3.0451                 3.3237

                      7                      8                      9
                      A                      A                      A
 Frequencies --    157.9020               198.6525               218.6965
 Red. masses --      2.1881                 1.1680                 3.2295
 Frc consts  --      0.0321                 0.0272                 0.0910
 IR Inten    --      4.5147                 0.6727                 5.1079

                     10                     11                     12
                      A                      A                      A
 Frequencies --    239.7244               251.7078               268.9280
 Red. masses --      3.7557                 1.3257                 1.0604
 Frc consts  --      0.1272                 0.0495                 0.0452
 IR Inten    --      0.2602                 1.0907                21.3649

                     13                     14                     15
                      A                      A                      A
 Frequencies --    315.9275               340.9070               366.8810
 Red. masses --      4.9074                 3.5622                 2.9541
 Frc consts  --      0.2886                 0.2439                 0.2343
 IR Inten    --      8.7817                 2.6926                 0.4178

                     16                     17                     18
                      A                      A                      A
 Frequencies --    412.8100               464.3546               472.7723
 Red. masses --      4.3159                 3.3495                 3.0525
 Frc consts  --      0.4333                 0.4255                 0.4020
 IR Inten    --      5.7020                11.5593                 4.8328

                     19                     20                     21
                      A                      A                      A
 Frequencies --    491.5105               531.7885               586.4063
 Red. masses --      4.5941                 3.6992                 5.8160
 Frc consts  --      0.6539                 0.6164                 1.1783
 IR Inten    --      3.8591                 4.1021                 4.8837

                     22                     23                     24
                      A                      A                      A
 Frequencies --    599.5215               635.1777               684.6154
 Red. masses --      3.3813                 2.2615                 2.3214
 Frc consts  --      0.7161                 0.5376                 0.6411
 IR Inten    --     44.0272               188.5500               176.9966

                     25                     26                     27
                      A                      A                      A
 Frequencies --    737.6098               751.8457               776.8007
 Red. masses --      3.7747                 3.9541                 4.1940
 Frc consts  --      1.2100                 1.3169                 1.4911
 IR Inten    --      3.9169                15.1019                 4.0099

                     28                     29                     30
                      A                      A                      A
 Frequencies --    815.3791               822.0811               854.5801
 Red. masses --      1.1329                 1.6672                 1.9512
 Frc consts  --      0.4438                 0.6638                 0.8396
 IR Inten    --      5.4133                34.6804                30.5551

                     31                     32                     33
                      A                      A                      A
 Frequencies --    859.1874               925.0684               960.8532
 Red. masses --      1.9196                 1.2930                 4.0240
 Frc consts  --      0.8349                 0.6519                 2.1889
 IR Inten    --      4.1861                 0.6697                17.1948

                     34                     35                     36
                      A                      A                      A
 Frequencies --   1013.1950              1029.1912              1055.8889
 Red. masses --      2.8653                 4.8579                 6.8170
 Frc consts  --      1.7331                 3.0317                 4.4780
 IR Inten    --     19.9353               290.4334               116.8509

                     37                     38                     39
                      A                      A                      A
 Frequencies --   1090.4979              1120.7865              1126.8144
 Red. masses --      3.0403                 1.6769                 1.7692
 Frc consts  --      2.1302                 1.2411                 1.3235
 IR Inten    --     85.1906                 9.1560                28.6328

                     40                     41                     42
                      A                      A                      A
 Frequencies --   1164.2025              1185.2748              1187.7418
 Red. masses --      1.4954                 1.6821                 1.6494
 Frc consts  --      1.1942                 1.3923                 1.3709
 IR Inten    --     52.4495                58.0802                48.4860

                     43                     44                     45
                      A                      A                      A
 Frequencies --   1202.8267              1220.1676              1234.6878
 Red. masses --      1.7733                 1.4218                 1.9352
 Frc consts  --      1.5116                 1.2471                 1.7382
 IR Inten    --     48.4298                18.3175                31.5416

                     46                     47                     48
                      A                      A                      A
 Frequencies --   1259.2473              1298.7550              1328.9057
 Red. masses --      1.8444                 2.0410                 1.1732
 Frc consts  --      1.7232                 2.0284                 1.2207
 IR Inten    --    131.8544                93.0546                 2.3237

                     49                     50                     51
                      A                      A                      A
 Frequencies --   1348.9010              1357.9052              1360.2275
 Red. masses --      2.7998                 4.5285                 1.3016
 Frc consts  --      3.0015                 4.9198                 1.4189
 IR Inten    --      2.7314                64.7193                 2.0795

                     52                     53                     54
                      A                      A                      A
 Frequencies --   1411.6348              1440.9472              1454.6075
 Red. masses --      1.2239                 1.2796                 1.3068
 Frc consts  --      1.4369                 1.5653                 1.6291
 IR Inten    --      2.6207                14.1857                15.0819

                     55                     56                     57
                      A                      A                      A
 Frequencies --   1492.3504              1499.9416              1517.4301
 Red. masses --      1.6143                 1.5663                 1.1049
 Frc consts  --      2.1182                 2.0762                 1.4990
 IR Inten    --     24.1684                18.2208                 2.9302

                     58                     59                     60
                      A                      A                      A
 Frequencies --   1520.3156              1528.3110              1534.0960
 Red. masses --      1.0520                 1.0504                 1.0893
 Frc consts  --      1.4326                 1.4456                 1.5104
 IR Inten    --      6.3330                 1.6448                 8.3232

                     61                     62                     63
                      A                      A                      A
 Frequencies --   1537.6595              1545.8449              1563.5385
 Red. masses --      1.0664                 1.0863                 2.9652
 Frc consts  --      1.4855                 1.5294                 4.2709
 IR Inten    --      6.6408                 3.3997               219.2577

                     64                     65                     66
                      A                      A                      A
 Frequencies --   1639.2238              1675.0715              1696.8806
 Red. masses --      7.0313                 3.3324                 1.3507
 Frc consts  --     11.1317                 5.5090                 2.2914
 IR Inten    --     15.2308                16.8036                98.6388

                     67                     68                     69
                      A                      A                      A
 Frequencies --   3034.2396              3050.0416              3057.9637
 Red. masses --      1.0341                 1.0454                 1.0442
 Frc consts  --      5.6096                 5.7296                 5.7528
 IR Inten    --     57.1143                19.2415                70.5026

                     70                     71                     72
                      A                      A                      A
 Frequencies --   3081.7804              3103.8319              3112.2000
 Red. masses --      1.0600                 1.1018                 1.1087
 Frc consts  --      5.9312                 6.2539                 6.3273
 IR Inten    --     11.8365                34.3176                35.6939

                     73                     74                     75
                      A                      A                      A
 Frequencies --   3115.6231              3123.0970              3139.9563
 Red. masses --      1.1075                 1.1015                 1.1070
 Frc consts  --      6.3339                 6.3303                 6.4305
 IR Inten    --     10.7070                26.8477                47.6306

                     76                     77                     78
                      A                      A                      A
 Frequencies --   3146.6189              3180.3857              3191.2428
 Red. masses --      1.1041                 1.0881                 1.0904
 Frc consts  --      6.4409                 6.4844                 6.5428
 IR Inten    --     37.3116                17.8455                11.2784

                     79                     80                     81
                      A                      A                      A
 Frequencies --   3205.6015              3542.2974              3639.6554
 Red. masses --      1.0932                 1.0481                 1.0974
 Frc consts  --      6.6184                 7.7489                 8.5651
 IR Inten    --     12.0654                 9.5887                 6.7083

 - Thermochemistry -
 -------------------
 Temperature   298.150 Kelvin.  Pressure   1.00000 Atm.
 Atom     1 has atomic number  6 and mass  12.00000

 Molecular mass:   197.10519 amu.
 Principal axes and moments of inertia in atomic units:
                           1         2         3
     Eigenvalues --  1361.877894348.586325391.10800
           X            1.00000  -0.00123  -0.00176
           Y            0.00126   0.99988   0.01561
           Z            0.00174  -0.01561   0.99988
 This molecule is an asymmetric top.
 Rotational symmetry number  1.
 Warning -- assumption of classical behavior for rotation
           may cause significant error
 Rotational temperatures (Kelvin)      0.06360     0.01992     0.01607
 Rotational constants (GHZ):           1.32519     0.41502     0.33476
 Zero-point vibrational energy     643725.4 (Joules/Mol)
                                  153.85407 (Kcal/Mol)
 Warning -- explicit consideration of  22 degrees of freedom as
           vibrations may cause significant error
 Vibrational temperatures:     48.38    69.09   102.24   129.70   182.44
          (Kelvin)            206.51   227.19   285.82   314.66   344.91
                              362.15   386.93   454.55   490.49   527.86
                              593.94   668.10   680.21   707.17   765.12
                              843.71   862.58   913.88   985.01  1061.26
                             1081.74  1117.64  1173.15  1182.79  1229.55
                             1236.18  1330.97  1382.45  1457.76  1480.78
                             1519.19  1568.98  1612.56  1621.23  1675.03
                             1705.35  1708.90  1730.60  1755.55  1776.44
                             1811.78  1868.62  1912.00  1940.77  1953.72
                             1957.06  2031.03  2073.20  2092.86  2147.16
                             2158.08  2183.24  2187.40  2198.90  2207.22
                             2212.35  2224.13  2249.58  2358.48  2410.05
                             2441.43  4365.59  4388.33  4399.73  4433.99
                             4465.72  4477.76  4482.69  4493.44  4517.70
                             4527.28  4575.87  4591.49  4612.15  5096.58
                             5236.65

 Zero-point correction=                           0.245182 (Hartree/Particle)
 Thermal correction to Energy=                    0.259748
 Thermal correction to Enthalpy=                  0.260692
 Thermal correction to Gibbs Free Energy=         0.203183
 Sum of electronic and zero-point Energies=           -670.282965
 Sum of electronic and thermal Energies=              -670.268399
 Sum of electronic and thermal Enthalpies=            -670.267455
 Sum of electronic and thermal Free Energies=         -670.324963

                     E (Thermal)             CV                S
                      KCal/Mol        Cal/Mol-Kelvin    Cal/Mol-Kelvin
 Total                  162.994             54.070            121.037
 Electronic               0.000              0.000              0.000
 Translational            0.889              2.981             41.741
 Rotational               0.889              2.981             31.835
 Vibrational            161.217             48.109             47.461
 Vibration     1          0.594              1.983              5.603
 Vibration     2          0.595              1.978              4.897
 Vibration     3          0.598              1.968              4.124
 Vibration     4          0.602              1.956              3.657
 Vibration     5          0.611              1.926              2.994
 Vibration     6          0.616              1.910              2.756
 Vibration     7          0.621              1.894              2.575
 Vibration     8          0.637              1.842              2.146
 Vibration     9          0.646              1.813              1.970
 Vibration    10          0.657              1.780              1.805
 Vibration    11          0.664              1.760              1.719
 Vibration    12          0.673              1.730              1.603
 Vibration    13          0.703              1.643              1.331
 Vibration    14          0.720              1.594              1.208
 Vibration    15          0.740              1.540              1.093
 Vibration    16          0.777              1.442              0.917
 Vibration    17          0.822              1.329              0.754
 Vibration    18          0.830              1.310              0.730
 Vibration    19          0.847              1.269              0.680
 Vibration    20          0.887              1.180              0.583
 Vibration    21          0.943              1.061              0.474
 Vibration    22          0.958              1.033              0.450

                           ! Non-Optimized Parameters !
 Normal termination of Gaussian 16 at Thu Dec 10 10:10:42 2020.

 ----------------------------------------------------------------------
 # B3LYP/6-311++G(d,p) empiricaldispersion=gd3bj scf=xqc pop=npa geom=c
 heck
 ----------------------------------------------------------------------

 --------------------------------------
 CID_65365092_JID_4546_Energie_neutraal
 --------------------------------------
 Structure from the checkpoint file:  "JID_4546.chk"
 Charge =  0 Multiplicity = 1

 SCF Done:  E(RB3LYP) =  -670.725241913     A.U. after   14 cycles
 Normal termination of Gaussian 16 at Thu Dec 10 10:14:12 2020.

 ----------------------------------------------------------------------
 # B3LYP/6-311++G(d,p) empiricaldispersion=gd3bj scf=xqc pop=npa geom=c
 heck
 ----------------------------------------------------------------------

 ------------------------------------
 CID_65365092_JID_4546_Energie_kation
 ------------------------------------
 Structure from the checkpoint file:  "JID_4546.chk"
 Charge =  1 Multiplicity = 2

 SCF Done:  E(UB3LYP) =  -670.451945407     A.U. after   21 cycles
 Normal termination of Gaussian 16 at Thu Dec 10 10:19:43 2020.
 Gaussian 16:  ES64L-G16RevA.03 25-Dec-2016

 ----------------------------------------------------------------------
 # B3LYP/6-311++G(d,p) empiricaldispersion=gd3bj scf=xqc pop=npa geom=c
 heck
 ----------------------------------------------------------------------

 -----------------------------------
 CID_65365092_JID_4546_Energie_anion
 -----------------------------------
 Structure from the checkpoint file:  "JID_4546.chk"
 Charge = -1 Multiplicity = 2

                         Standard orientation:
 ---------------------------------------------------------------------
 Center     Atomic      Atomic             Coordinates (Angstroms)
 Number     Number       Type             X           Y           Z
 ---------------------------------------------------------------------
      1          6           0        4.396787   -0.864657   -0.092749
      2          6           0        3.170316    0.039331   -0.041230
      3          8           0        2.167670   -0.449508    0.863238
      4          6           0        1.387458   -1.481561    0.342024
      5          8           0        0.566126   -1.089326   -0.749290
      6          6           0       -0.604428   -0.435109   -0.417625
      7          6           0       -0.663402    0.964459   -0.362764
      8          6           0       -1.894036    1.564870   -0.084352
      9          6           0       -3.035369    0.804617    0.149263
     10          6           0       -2.978532   -0.596474    0.094234
     11          6           0       -1.749280   -1.200703   -0.200012
     12          7           0       -4.109488   -1.375033    0.378048
     13          8           0        0.458913    1.714004   -0.635703
     14          6           0        0.916350    2.506633    0.458084
     15          1           0        4.813914   -1.003509    0.910017
     16          1           0        5.166937   -0.415267   -0.730276
     17          1           0        4.162957   -1.851523   -0.506467
     18          1           0        3.443911    1.023298    0.348966
     19          1           0        2.724979    0.186184   -1.030160
     20          1           0        2.002291   -2.294086   -0.061890
     21          1           0        0.771085   -1.840836    1.172265
     22          1           0       -1.955014    2.648838   -0.064008
     23          1           0       -3.979348    1.297570    0.367625
     24          1           0       -1.665136   -2.281817   -0.270070
     25          1           0       -4.096179   -2.294126   -0.047746
     26          1           0       -4.988730   -0.907905    0.190768
     27          1           0        0.158365    3.232123    0.780652
     28          1           0        1.196390    1.867354    1.302485
     29          1           0        1.793131    3.049125    0.096304
 ---------------------------------------------------------------------

 SCF Done:  E(UB3LYP) =  -670.711610136     A.U. after   33 cycles
 SCF Done:  E(UB3LYP) =  -670.711610136     a.u. after    1 cycles

 The electronic state is 2-A.
 Alpha  occ. eigenvalues --  -19.04736 -19.04291 -19.04016 -14.21280 -10.17681
 Alpha  occ. eigenvalues --  -10.13134 -10.12291 -10.12241 -10.12225 -10.11578
 Alpha  occ. eigenvalues --  -10.07972 -10.07253 -10.07232 -10.07103  -0.98857
 Alpha  occ. eigenvalues --   -0.95732  -0.93035  -0.81768  -0.74020  -0.67364
 Alpha  occ. eigenvalues --   -0.65221  -0.64320  -0.60032  -0.58209  -0.53466
 Alpha  occ. eigenvalues --   -0.51057  -0.48976  -0.44280  -0.42905  -0.41881
 Alpha  occ. eigenvalues --   -0.41076  -0.40587  -0.38708  -0.36712  -0.35974
 Alpha  occ. eigenvalues --   -0.34825  -0.34456  -0.33525  -0.32196  -0.31352
 Alpha  occ. eigenvalues --   -0.30505  -0.29449  -0.28329  -0.27218  -0.26536
 Alpha  occ. eigenvalues --   -0.25472  -0.22727  -0.21043  -0.20216  -0.19019
 Alpha  occ. eigenvalues --   -0.17995  -0.15190  -0.10497   0.04212
 Alpha virt. eigenvalues --    0.05495   0.06595   0.07745   0.07853   0.08154
 Alpha virt. eigenvalues --    0.08868   0.09669   0.09867   0.10269   0.11050
 Alpha virt. eigenvalues --    0.11079   0.11681   0.12409   0.12842   0.13471

  Beta  occ. eigenvalues --  -19.04735 -19.04288 -19.04014 -14.21207 -10.17670
  Beta  occ. eigenvalues --  -10.13134 -10.12290 -10.12230 -10.12210 -10.11569
  Beta  occ. eigenvalues --  -10.07964 -10.07218 -10.07214 -10.07084  -0.98852
  Beta  occ. eigenvalues --   -0.95722  -0.93030  -0.81687  -0.73983  -0.67334
  Beta  occ. eigenvalues --   -0.65195  -0.64277  -0.59996  -0.58167  -0.53424
  Beta  occ. eigenvalues --   -0.51022  -0.48919  -0.44240  -0.42876  -0.41847
  Beta  occ. eigenvalues --   -0.41053  -0.40551  -0.38652  -0.36686  -0.35938
  Beta  occ. eigenvalues --   -0.34798  -0.34434  -0.33483  -0.32161  -0.31305
  Beta  occ. eigenvalues --   -0.30472  -0.29416  -0.28292  -0.27187  -0.26509
  Beta  occ. eigenvalues --   -0.25452  -0.22709  -0.21018  -0.20203  -0.19006
  Beta  occ. eigenvalues --   -0.17976  -0.15167  -0.10451
  Beta virt. eigenvalues --    0.06194   0.06936   0.07349   0.08033   0.08489
  Beta virt. eigenvalues --    0.08606   0.09107   0.10047   0.10382   0.10604
  Beta virt. eigenvalues --    0.11183   0.11289   0.11720   0.12814   0.13221

 Mulliken charges and spin densities:
               1          2
     1  C    1.103131  -1.689718
     2  C   -0.856267   0.740058
     3  O   -0.120357   0.025968
     4  C    0.215537  -0.438369
     5  O   -0.123494   0.011189
     6  C   -0.332794   0.205905
     7  C    0.235842  -0.366059
     8  C    0.108182  -0.100549
     9  C   -0.194109   0.115506
    10  C    0.512138  -0.913371
    11  C    0.542450  -0.410412
    12  N   -0.215961  -0.076844
    13  O   -0.131981   0.011689
    14  C    0.021857  -0.365696
    15  H   -0.070419   0.226784
    16  H   -0.370140   0.505141
    17  H   -0.190828   0.318896
    18  H   -0.209094   0.352572
    19  H    0.314129  -0.111307
    20  H   -0.002313   0.154931
    21  H    0.096108   0.065942
    22  H    0.096954   0.054741
    23  H   -0.506572   0.672378
    24  H   -0.244840   0.413636
    25  H   -0.282666   0.530334
    26  H   -0.360626   0.611471
    27  H   -0.084445   0.188295
    28  H    0.132522   0.038551
    29  H   -0.081945   0.228338
 Sum of Mulliken charges =  -1.00000   1.00000

 Dipole moment (field-independent basis, Debye):
    X=              4.0178    Y=              2.4079    Z=              0.4528  Tot=              4.7059
 Quadrupole moment (field-independent basis, Debye-Ang):
   XX=           -196.6945   YY=           -120.2930   ZZ=           -111.2903
   XY=            -11.2944   XZ=              2.2285   YZ=             -0.5596

 Summary of Natural Population Analysis:

                                       Natural Population
                Natural  -----------------------------------------------
    Atom  No    Charge         Core      Valence    Rydberg      Total
 -----------------------------------------------------------------------
      C    1   -0.30069      0.99967     2.29627    0.00475     3.30069
      C    2   -0.02024      0.99958     2.00702    0.01363     3.02024
      O    3   -0.30109      0.99988     3.29218    0.00902     4.30109
      C    4    0.14589      0.99959     1.83752    0.01699     2.85411
      O    5   -0.29292      0.99986     3.28442    0.00864     4.29292
      C    6    0.14142      0.99932     1.84536    0.01391     2.85858
      C    7    0.11757      0.99931     1.87023    0.01290     2.88243
      C    8   -0.11017      0.99953     2.10179    0.00885     3.11017
      C    9   -0.12397      0.99953     2.11424    0.01019     3.12397
      C   10    0.08531      0.99949     1.90396    0.01123     2.91469
      C   11   -0.13728      0.99948     2.12782    0.00999     3.13728
      N   12   -0.39489      0.99972     2.88439    0.01078     3.89489
      O   13   -0.28772      0.99986     3.27776    0.01010     4.28772
      C   14   -0.10050      0.99959     2.09140    0.00951     3.10050
      H   15    0.09975      0.00000     0.39898    0.00126     0.40025
      H   16    0.10280      0.00000     0.39590    0.00130     0.39720
      H   17    0.09652      0.00000     0.40230    0.00118     0.40348
      H   18    0.08857      0.00000     0.40980    0.00163     0.41143
      H   19    0.09321      0.00000     0.40515    0.00164     0.40679
      H   20    0.07453      0.00000     0.42406    0.00141     0.42547
      H   21    0.08050      0.00000     0.41808    0.00141     0.41950
      H   22    0.10188      0.00000     0.39710    0.00102     0.39812
      H   23    0.10210      0.00000     0.39668    0.00122     0.39790
      H   24    0.10442      0.00000     0.39380    0.00178     0.39558
      H   25    0.18768      0.00000     0.30646    0.00586     0.31232
      H   26    0.18880      0.00000     0.30293    0.00827     0.31120
      H   27    0.07894      0.00000     0.41995    0.00111     0.42106
      H   28    0.09112      0.00000     0.40756    0.00132     0.40888
      H   29    0.08848      0.00000     0.41034    0.00118     0.41152
 =======================================================================
   * Total *    0.00000     13.99442    38.82348    0.18210    53.00000

 Normal termination of Gaussian 16 at Thu Dec 10 10:28:29 2020.
