 Gaussian 16, Revision A.03,

 -----------------------------------------------------------
 # opt freq B3LYP/6-31G(d) empiricaldispersion=gd3bj scf=xqc
 -----------------------------------------------------------

 -------------------------------
 CID_149526935_JID_4704_neutraal
 -------------------------------
 Symbolic Z-matrix:
 Charge =  0 Multiplicity = 1

 SCF Done:  E(RB3LYP) =  -582.560846458     A.U. after   13 cycles
 SCF Done:  E(RB3LYP) =  -582.579775933     A.U. after   10 cycles
 SCF Done:  E(RB3LYP) =  -582.587813807     A.U. after   11 cycles
 SCF Done:  E(RB3LYP) =  -582.591171863     A.U. after   10 cycles
 SCF Done:  E(RB3LYP) =  -582.591568718     A.U. after   10 cycles
 SCF Done:  E(RB3LYP) =  -582.591699485     A.U. after   10 cycles
 SCF Done:  E(RB3LYP) =  -582.591715454     A.U. after    9 cycles
 SCF Done:  E(RB3LYP) =  -582.591720036     A.U. after    8 cycles
 SCF Done:  E(RB3LYP) =  -582.591722154     A.U. after    9 cycles
 SCF Done:  E(RB3LYP) =  -582.591727948     A.U. after    9 cycles
 SCF Done:  E(RB3LYP) =  -582.592020395     A.U. after   11 cycles
 SCF Done:  E(RB3LYP) =  -582.592090353     A.U. after   10 cycles
 SCF Done:  E(RB3LYP) =  -582.592172722     A.U. after    9 cycles
 SCF Done:  E(RB3LYP) =  -582.592177793     A.U. after    8 cycles
 SCF Done:  E(RB3LYP) =  -582.592179075     A.U. after    7 cycles
 Optimization completed.
    -- Stationary point found.
 Normal termination of Gaussian 16 at Thu Dec 10 10:31:25 2020.

 --------------------------------------------------------------------
 #N Geom=AllCheck Guess=TCheck SCRF=Check GenChk RB3LYP/6-31G(d) Freq
 --------------------------------------------------------------------

 Structure from the checkpoint file:  "JID_4704.chk"
 -------------------------------
 CID_149526935_JID_4704_neutraal
 -------------------------------
 Charge =  0 Multiplicity = 1

 SCF Done:  E(RB3LYP) =  -582.592179075     A.U. after    1 cycles

  Exact polarizability: 143.799  -3.050 125.796  -0.746  -0.672 119.070
 Approx polarizability: 188.764  -5.208 188.407   0.808   1.255 183.983

                      1                      2                      3
                      A                      A                      A
 Frequencies --     49.4978                74.6242               118.3857
 Red. masses --      3.1275                 3.0259                 2.3573
 Frc consts  --      0.0045                 0.0099                 0.0195
 IR Inten    --      0.6178                 0.1924                 1.2484

                      4                      5                      6
                      A                      A                      A
 Frequencies --    195.6940               232.9572               282.8620
 Red. masses --      2.7817                 1.4527                 2.0917
 Frc consts  --      0.0628                 0.0464                 0.0986
 IR Inten    --      0.6462                 0.3345                 0.1809

                      7                      8                      9
                      A                      A                      A
 Frequencies --    320.0082               350.2278               385.0550
 Red. masses --      2.4438                 2.5470                 3.5796
 Frc consts  --      0.1474                 0.1841                 0.3127
 IR Inten    --      0.4288                 1.0080                 2.8625

                     10                     11                     12
                      A                      A                      A
 Frequencies --    424.8945               435.8549               449.3700
 Red. masses --      3.2658                 2.8941                 3.3842
 Frc consts  --      0.3474                 0.3239                 0.4026
 IR Inten    --      0.2043                 2.0224                 4.2604

                     13                     14                     15
                      A                      A                      A
 Frequencies --    481.5685               509.6790               541.4730
 Red. masses --      2.5470                 2.2974                 3.5948
 Frc consts  --      0.3480                 0.3516                 0.6210
 IR Inten    --      0.5662                 0.5827                 0.8622

                     16                     17                     18
                      A                      A                      A
 Frequencies --    572.9205               598.1487               704.8865
 Red. masses --      2.4969                 3.3865                 3.8061
 Frc consts  --      0.4829                 0.7139                 1.1142
 IR Inten    --      1.2750                 1.7123                 0.4693

                     19                     20                     21
                      A                      A                      A
 Frequencies --    711.9590               723.5522               760.4161
 Red. masses --      4.1633                 3.1247                 3.1474
 Frc consts  --      1.2434                 0.9638                 1.0723
 IR Inten    --      0.5222                 0.1446                 1.3832

                     22                     23                     24
                      A                      A                      A
 Frequencies --    799.3382               811.0192               818.0867
 Red. masses --      2.4538                 1.1436                 3.2590
 Frc consts  --      0.9238                 0.4432                 1.2851
 IR Inten    --      0.9192                 1.5302                 0.6597

                     25                     26                     27
                      A                      A                      A
 Frequencies --    848.4553               856.6943               887.2249
 Red. masses --      2.8289                 2.5841                 2.8011
 Frc consts  --      1.1998                 1.1174                 1.2991
 IR Inten    --      0.2620                 3.3353                 1.5192

                     28                     29                     30
                      A                      A                      A
 Frequencies --    906.5069               926.4344               937.8764
 Red. masses --      2.2779                 2.0700                 2.2939
 Frc consts  --      1.1029                 1.0468                 1.1888
 IR Inten    --      1.6684                 1.0001                 0.2375

                     31                     32                     33
                      A                      A                      A
 Frequencies --    951.6249               963.7747               985.5847
 Red. masses --      2.0215                 1.8976                 2.2111
 Frc consts  --      1.0786                 1.0385                 1.2655
 IR Inten    --      5.7451                 2.1637                 2.7674

                     34                     35                     36
                      A                      A                      A
 Frequencies --   1002.3206              1026.6462              1027.1839
 Red. masses --      2.8957                 2.2560                 1.8999
 Frc consts  --      1.7140                 1.4010                 1.1811
 IR Inten    --      2.0837                10.4115                 2.3085

                     37                     38                     39
                      A                      A                      A
 Frequencies --   1046.4987              1065.9891              1070.4911
 Red. masses --      2.1808                 1.4607                 1.3770
 Frc consts  --      1.4071                 0.9780                 0.9297
 IR Inten    --      0.4231                 3.4678                 3.4381

                     40                     41                     42
                      A                      A                      A
 Frequencies --   1081.8302              1106.2581              1118.0303
 Red. masses --      1.6847                 2.2819                 1.2841
 Frc consts  --      1.1617                 1.6453                 0.9457
 IR Inten    --     12.0583                62.7237                 0.4292

                     43                     44                     45
                      A                      A                      A
 Frequencies --   1136.8056              1140.2735              1159.0765
 Red. masses --      1.7344                 2.3064                 1.6828
 Frc consts  --      1.3206                 1.7669                 1.3320
 IR Inten    --     26.3397               113.1362                28.1411

                     46                     47                     48
                      A                      A                      A
 Frequencies --   1159.5000              1193.3787              1199.9798
 Red. masses --      1.4187                 1.3807                 1.2476
 Frc consts  --      1.1238                 1.1585                 1.0584
 IR Inten    --      4.8766                 0.8170                 2.1111

                     49                     50                     51
                      A                      A                      A
 Frequencies --   1211.3156              1217.4276              1245.0205
 Red. masses --      1.7573                 1.7520                 1.4277
 Frc consts  --      1.5191                 1.5299                 1.3039
 IR Inten    --     12.7101                21.3069                 3.6288

                     52                     53                     54
                      A                      A                      A
 Frequencies --   1250.6140              1264.7262              1280.0425
 Red. masses --      1.4652                 1.4523                 1.4499
 Frc consts  --      1.3501                 1.3687                 1.3997
 IR Inten    --      1.7366                 0.1597                 1.0016

                     55                     56                     57
                      A                      A                      A
 Frequencies --   1287.8206              1301.9757              1332.4240
 Red. masses --      2.1413                 1.4493                 1.5499
 Frc consts  --      2.0924                 1.4474                 1.6212
 IR Inten    --      2.7827                 1.4539                 2.0399

                     58                     59                     60
                      A                      A                      A
 Frequencies --   1336.7049              1341.5798              1353.2359
 Red. masses --      1.3425                 1.3336                 1.5122
 Frc consts  --      1.4134                 1.4142                 1.6316
 IR Inten    --      4.0089                12.8090                 1.1019

                     61                     62                     63
                      A                      A                      A
 Frequencies --   1363.6637              1373.5953              1384.7881
 Red. masses --      1.4095                 1.4497                 1.3602
 Frc consts  --      1.5443                 1.6115                 1.5368
 IR Inten    --      2.0541                 2.7180                15.5377

                     64                     65                     66
                      A                      A                      A
 Frequencies --   1407.6171              1414.6794              1426.2634
 Red. masses --      1.3106                 1.3537                 1.3150
 Frc consts  --      1.5300                 1.5963                 1.5761
 IR Inten    --     10.8854                 8.6524                 1.6992

                     67                     68                     69
                      A                      A                      A
 Frequencies --   1440.0369              1474.9826              1518.6247
 Red. masses --      1.3011                 1.2147                 1.0453
 Frc consts  --      1.5897                 1.5570                 1.4204
 IR Inten    --     27.6767                 2.9773                 4.9060

                     70                     71                     72
                      A                      A                      A
 Frequencies --   1519.8766              1522.5434              1528.0151
 Red. masses --      1.0863                 1.0550                 1.0959
 Frc consts  --      1.4785                 1.4409                 1.5075
 IR Inten    --      1.6400                 0.1076                 1.2307

                     73                     74                     75
                      A                      A                      A
 Frequencies --   1539.7126              1540.7934              1549.2423
 Red. masses --      1.0926                 1.0835                 1.0978
 Frc consts  --      1.5261                 1.5155                 1.5524
 IR Inten    --      2.3166                 0.8705                 4.2914

                     76                     77                     78
                      A                      A                      A
 Frequencies --   1579.0287              2994.8049              3016.0317
 Red. masses --      1.0861                 1.0823                 1.0694
 Frc consts  --      1.5954                 5.7192                 5.7315
 IR Inten    --      2.9405                24.0038                38.1897

                     79                     80                     81
                      A                      A                      A
 Frequencies --   3027.2544              3028.5046              3041.7837
 Red. masses --      1.0832                 1.0763                 1.0736
 Frc consts  --      5.8487                 5.8162                 5.8526
 IR Inten    --     16.1276                22.1861                56.4888

                     82                     83                     84
                      A                      A                      A
 Frequencies --   3049.8700              3051.7888              3059.0505
 Red. masses --      1.0619                 1.0360                 1.0739
 Frc consts  --      5.8195                 5.6849                 5.9208
 IR Inten    --     48.2998                26.4127                30.5292

                     85                     86                     87
                      A                      A                      A
 Frequencies --   3064.6609              3067.5992              3072.5172
 Red. masses --      1.0626                 1.0720                 1.0806
 Frc consts  --      5.8799                 5.9437                 6.0103
 IR Inten    --     49.9622                79.1014               142.2281

                     88                     89                     90
                      A                      A                      A
 Frequencies --   3080.1200              3087.6056              3091.7007
 Red. masses --      1.0747                 1.0966                 1.1009
 Frc consts  --      6.0072                 6.1594                 6.2002
 IR Inten    --     36.7748                17.5542                48.0035

                     91                     92                     93
                      A                      A                      A
 Frequencies --   3094.1670              3110.2301              3118.4350
 Red. masses --      1.1016                 1.1033                 1.1011
 Frc consts  --      6.2140                 6.2880                 6.3090
 IR Inten    --     13.5395                65.1266                52.1752

                     94                     95                     96
                      A                      A                      A
 Frequencies --   3131.8033              3132.2027              3138.8385
 Red. masses --      1.1071                 1.1042                 1.0962
 Frc consts  --      6.3974                 6.3828                 6.3633
 IR Inten    --     33.8017                53.2728                19.3142

 - Thermochemistry -
 -------------------
 Temperature   298.150 Kelvin.  Pressure   1.00000 Atm.
 Atom     1 has atomic number  6 and mass  12.00000

 Molecular mass:   192.15142 amu.
 Principal axes and moments of inertia in atomic units:
                           1         2         3
     Eigenvalues --  1375.289053208.466453453.01012
           X            0.99997  -0.00582  -0.00600
           Y            0.00574   0.99990  -0.01323
           Z            0.00608   0.01320   0.99989
 This molecule is an asymmetric top.
 Rotational symmetry number  1.
 Warning -- assumption of classical behavior for rotation
           may cause significant error
 Rotational temperatures (Kelvin)      0.06298     0.02700     0.02508
 Rotational constants (GHZ):           1.31226     0.56249     0.52266
 Zero-point vibrational energy     817146.6 (Joules/Mol)
                                  195.30272 (Kcal/Mol)
 Warning -- explicit consideration of  17 degrees of freedom as
           vibrations may cause significant error
 Vibrational temperatures:     71.22   107.37   170.33   281.56   335.17
          (Kelvin)            406.98   460.42   503.90   554.01   611.33
                              627.10   646.54   692.87   733.31   779.06
                              824.30   860.60  1014.17  1024.35  1041.03
                             1094.07  1150.07  1166.88  1177.04  1220.74
                             1232.59  1276.52  1304.26  1332.93  1349.39
                             1369.18  1386.66  1418.04  1442.12  1477.11
                             1477.89  1505.68  1533.72  1540.20  1556.51
                             1591.66  1608.60  1635.61  1640.60  1667.65
                             1668.26  1717.01  1726.50  1742.81  1751.61
                             1791.31  1799.35  1819.66  1841.70  1852.89
                             1873.25  1917.06  1923.22  1930.23  1947.00
                             1962.01  1976.30  1992.40  2025.25  2035.41
                             2052.07  2071.89  2122.17  2184.96  2186.76
                             2190.60  2198.47  2215.30  2216.86  2229.01
                             2271.87  4308.86  4339.40  4355.54  4357.34
                             4376.45  4388.08  4390.84  4401.29  4409.36
                             4413.59  4420.67  4431.61  4442.38  4448.27
                             4451.82  4474.93  4486.73  4505.97  4506.54
                             4516.09

 Zero-point correction=                           0.311235 (Hartree/Particle)
 Thermal correction to Energy=                    0.322519
 Thermal correction to Enthalpy=                  0.323463
 Thermal correction to Gibbs Free Energy=         0.274243
 Sum of electronic and zero-point Energies=           -582.280944
 Sum of electronic and thermal Energies=              -582.269660
 Sum of electronic and thermal Enthalpies=            -582.268716
 Sum of electronic and thermal Free Energies=         -582.317936

                     E (Thermal)             CV                S
                      KCal/Mol        Cal/Mol-Kelvin    Cal/Mol-Kelvin
 Total                  202.384             48.674            103.592
 Electronic               0.000              0.000              0.000
 Translational            0.889              2.981             41.665
 Rotational               0.889              2.981             31.100
 Vibrational            200.606             42.713             30.827
 Vibration     1          0.595              1.978              4.837
 Vibration     2          0.599              1.966              4.028
 Vibration     3          0.609              1.934              3.127
 Vibration     4          0.636              1.846              2.173
 Vibration     5          0.654              1.791              1.856
 Vibration     6          0.682              1.705              1.516
 Vibration     7          0.706              1.635              1.310
 Vibration     8          0.727              1.575              1.165
 Vibration     9          0.754              1.502              1.019
 Vibration    10          0.787              1.416              0.875
 Vibration    11          0.796              1.392              0.840
 Vibration    12          0.808              1.362              0.798
 Vibration    13          0.838              1.291              0.706
 Vibration    14          0.865              1.229              0.634
 Vibration    15          0.897              1.158              0.562
 Vibration    16          0.929              1.090              0.499
 Vibration    17          0.956              1.036              0.453

                           ! Non-Optimized Parameters !
 Normal termination of Gaussian 16 at Thu Dec 10 10:44:04 2020.

 ----------------------------------------------------------------------
 # B3LYP/6-311++G(d,p) empiricaldispersion=gd3bj scf=xqc pop=npa geom=c
 heck
 ----------------------------------------------------------------------

 ---------------------------------------
 CID_149526935_JID_4704_Energie_neutraal
 ---------------------------------------
 Structure from the checkpoint file:  "JID_4704.chk"
 Charge =  0 Multiplicity = 1

 SCF Done:  E(RB3LYP) =  -582.743211529     A.U. after   13 cycles
 Normal termination of Gaussian 16 at Thu Dec 10 10:49:50 2020.

 ----------------------------------------------------------------------
 # B3LYP/6-311++G(d,p) empiricaldispersion=gd3bj scf=xqc pop=npa geom=c
 heck
 ----------------------------------------------------------------------

 -------------------------------------
 CID_149526935_JID_4704_Energie_kation
 -------------------------------------
 Structure from the checkpoint file:  "JID_4704.chk"
 Charge =  1 Multiplicity = 2

 SCF Done:  E(UB3LYP) =  -582.439316288     A.U. after   24 cycles
 Normal termination of Gaussian 16 at Thu Dec 10 11:06:24 2020.
 Gaussian 16:  ES64L-G16RevA.03 25-Dec-2016

 ----------------------------------------------------------------------
 # B3LYP/6-311++G(d,p) empiricaldispersion=gd3bj scf=xqc pop=npa geom=c
 heck
 ----------------------------------------------------------------------

 ------------------------------------
 CID_149526935_JID_4704_Energie_anion
 ------------------------------------
 Structure from the checkpoint file:  "JID_4704.chk"
 Charge = -1 Multiplicity = 2

                         Standard orientation:
 ---------------------------------------------------------------------
 Center     Atomic      Atomic             Coordinates (Angstroms)
 Number     Number       Type             X           Y           Z
 ---------------------------------------------------------------------
      1          6           0       -4.067518   -0.314090    0.421578
      2          6           0       -3.109001    0.091462   -0.694447
      3          8           0       -1.803596   -0.436224   -0.495505
      4          6           0       -0.968775    0.323756    0.374826
      5          6           0       -0.034805   -0.632706    1.181507
      6          6           0        0.777663   -1.812994    0.564724
      7          6           0        1.910948   -1.396284   -0.420340
      8          6           0        1.138403   -0.803793   -1.611696
      9          6           0        0.965834    0.620625   -1.095911
     10          6           0       -0.192157    1.382579   -0.475379
     11          6           0        0.979539    2.241824    0.204235
     12          6           0        1.704046    0.822919    0.282484
     13          6           0        2.855659   -0.178439    0.045593
     14          6           0        1.055551    0.299375    1.621643
     15          1           0       -4.112977   -1.404918    0.501356
     16          1           0       -5.076823    0.064771    0.221782
     17          1           0       -3.744057    0.084552    1.389581
     18          1           0       -3.451461   -0.312005   -1.653441
     19          1           0       -3.072972    1.186693   -0.794999
     20          1           0       -1.589317    0.834346    1.127399
     21          1           0       -0.636063   -1.048530    2.000815
     22          1           0        1.200123   -2.344712    1.427995
     23          1           0        0.125698   -2.522955    0.044831
     24          1           0        2.512362   -2.278649   -0.669770
     25          1           0        0.202674   -1.331743   -1.803685
     26          1           0        1.727543   -0.802386   -2.535800
     27          1           0        1.495685    1.294797   -1.779367
     28          1           0       -0.891418    1.933574   -1.114478
     29          1           0        1.365242    2.953809   -0.532508
     30          1           0        0.801656    2.759049    1.150347
     31          1           0        3.469986   -0.418545    0.919070
     32          1           0        3.520822    0.073333   -0.789964
     33          1           0        0.679598    1.120693    2.238732
     34          1           0        1.810148   -0.216792    2.223242
 ---------------------------------------------------------------------

 SCF Done:  E(UB3LYP) =  -582.726352318     A.U. after   33 cycles
 SCF Done:  E(UB3LYP) =  -582.726352318     a.u. after    1 cycles

 The electronic state is 2-A.
 Alpha  occ. eigenvalues --  -19.01693 -10.11832 -10.11395 -10.08012 -10.07909
 Alpha  occ. eigenvalues --  -10.07631 -10.07487 -10.07230 -10.06766 -10.06313
 Alpha  occ. eigenvalues --  -10.05944 -10.05819 -10.05389 -10.05173  -0.93043
 Alpha  occ. eigenvalues --   -0.79216  -0.70166  -0.68599  -0.65433  -0.62432
 Alpha  occ. eigenvalues --   -0.58312  -0.56836  -0.52908  -0.51939  -0.49366
 Alpha  occ. eigenvalues --   -0.46452  -0.44234  -0.41931  -0.39425  -0.38834
 Alpha  occ. eigenvalues --   -0.36661  -0.35047  -0.35019  -0.34018  -0.32110
 Alpha  occ. eigenvalues --   -0.31608  -0.31111  -0.29437  -0.28178  -0.27970
 Alpha  occ. eigenvalues --   -0.27211  -0.26237  -0.24671  -0.24294  -0.23296
 Alpha  occ. eigenvalues --   -0.22643  -0.22058  -0.19915  -0.19729  -0.19301
 Alpha  occ. eigenvalues --   -0.18743  -0.15063  -0.13897   0.04566
 Alpha virt. eigenvalues --    0.06447   0.07111   0.07394   0.08749   0.08813
 Alpha virt. eigenvalues --    0.09134   0.09567   0.09769   0.10885   0.11210
 Alpha virt. eigenvalues --    0.11782   0.12218   0.12498   0.12737   0.13301

  Beta  occ. eigenvalues --  -19.01684 -10.11821 -10.11378 -10.07996 -10.07909
  Beta  occ. eigenvalues --  -10.07624 -10.07480 -10.07215 -10.06758 -10.06303
  Beta  occ. eigenvalues --  -10.05930 -10.05781 -10.05368 -10.05164  -0.93024
  Beta  occ. eigenvalues --   -0.79193  -0.70143  -0.68572  -0.65397  -0.62401
  Beta  occ. eigenvalues --   -0.58277  -0.56801  -0.52868  -0.51880  -0.49314
  Beta  occ. eigenvalues --   -0.46414  -0.44209  -0.41887  -0.39383  -0.38796
  Beta  occ. eigenvalues --   -0.36628  -0.35015  -0.34991  -0.33992  -0.32065
  Beta  occ. eigenvalues --   -0.31580  -0.31079  -0.29399  -0.28145  -0.27942
  Beta  occ. eigenvalues --   -0.27172  -0.26210  -0.24647  -0.24268  -0.23271
  Beta  occ. eigenvalues --   -0.22620  -0.22031  -0.19888  -0.19704  -0.19270
  Beta  occ. eigenvalues --   -0.18715  -0.15035  -0.13853
  Beta virt. eigenvalues --    0.06645   0.07368   0.07775   0.07996   0.09224
  Beta virt. eigenvalues --    0.09318   0.09642   0.09848   0.10158   0.11327
  Beta virt. eigenvalues --    0.11636   0.12132   0.12542   0.12934   0.13008

 Mulliken charges and spin densities:
               1          2
     1  C    1.121387  -1.568161
     2  C   -0.274674   0.250215
     3  O    0.008706   0.025223
     4  C    0.280274  -1.540317
     5  C   -0.621713   1.373466
     6  C    0.791055  -1.546585
     7  C   -0.629690   1.023150
     8  C    0.528119  -1.203975
     9  C    0.728600  -0.873257
    10  C   -0.493804   1.039193
    11  C   -0.440863  -0.371639
    12  C    0.010866   0.798088
    13  C   -0.215320  -0.534843
    14  C    0.504027  -1.424059
    15  H   -0.002597   0.140940
    16  H   -0.418702   0.558136
    17  H   -0.412407   0.543343
    18  H   -0.240002   0.390359
    19  H    0.007579   0.086659
    20  H    0.018310   0.189861
    21  H   -0.014961   0.248535
    22  H   -0.131571   0.267416
    23  H    0.112078   0.048527
    24  H   -0.124258   0.346122
    25  H    0.248501  -0.086093
    26  H   -0.251387   0.397871
    27  H    0.056695   0.161180
    28  H   -0.245466   0.477679
    29  H   -0.171621   0.301518
    30  H   -0.205242   0.361780
    31  H   -0.193714   0.329171
    32  H   -0.130762   0.276529
    33  H   -0.161837   0.302518
    34  H   -0.035607   0.211451
 Sum of Mulliken charges =  -1.00000   1.00000

 Dipole moment (field-independent basis, Debye):
    X=              2.4760    Y=             -0.9489    Z=             -1.1752  Tot=              2.9004
 Quadrupole moment (field-independent basis, Debye-Ang):
   XX=           -161.1312   YY=           -126.4245   ZZ=           -129.2048
   XY=              3.0201   XZ=              4.0689   YZ=              1.0997

 Summary of Natural Population Analysis:

                                       Natural Population
                Natural  -----------------------------------------------
    Atom  No    Charge         Core      Valence    Rydberg      Total
 -----------------------------------------------------------------------
      C    1   -0.29866      0.99966     2.29406    0.00493     3.29866
      C    2   -0.00700      0.99958     1.99521    0.01221     3.00700
      O    3   -0.30813      0.99987     3.29814    0.01011     4.30813
      C    4    0.07398      0.99949     1.91021    0.01632     2.92602
      C    5   -0.11824      0.99955     2.10496    0.01373     3.11824
      C    6   -0.18467      0.99959     2.17522    0.00985     3.18467
      C    7   -0.10393      0.99960     2.09253    0.01180     3.10393
      C    8   -0.20131      0.99959     2.19192    0.00980     3.20131
      C    9   -0.10284      0.99953     2.08964    0.01367     3.10284
      C   10   -0.11379      0.99954     2.10060    0.01366     3.11379
      C   11   -0.16653      0.99959     2.15711    0.00983     3.16653
      C   12   -0.04370      0.99953     2.02924    0.01493     3.04370
      C   13   -0.18304      0.99957     2.17354    0.00994     3.18304
      C   14   -0.18855      0.99957     2.17636    0.01262     3.18855
      H   15    0.09858      0.00000     0.40021    0.00121     0.40142
      H   16    0.09974      0.00000     0.39864    0.00162     0.40026
      H   17    0.09954      0.00000     0.39904    0.00142     0.40046
      H   18    0.08617      0.00000     0.41271    0.00111     0.41383
      H   19    0.07871      0.00000     0.41968    0.00160     0.42129
      H   20    0.08797      0.00000     0.40939    0.00264     0.41203
      H   21    0.10005      0.00000     0.39830    0.00165     0.39995
      H   22    0.09880      0.00000     0.40001    0.00119     0.40120
      H   23    0.10314      0.00000     0.39554    0.00132     0.39686
      H   24    0.09749      0.00000     0.40146    0.00105     0.40251
      H   25    0.10990      0.00000     0.38848    0.00162     0.39010
      H   26    0.09743      0.00000     0.40156    0.00101     0.40257
      H   27    0.09773      0.00000     0.40024    0.00204     0.40227
      H   28    0.09801      0.00000     0.40030    0.00169     0.40199
      H   29    0.09836      0.00000     0.40030    0.00134     0.40164
      H   30    0.09675      0.00000     0.40215    0.00110     0.40325
      H   31    0.09886      0.00000     0.40011    0.00103     0.40114
      H   32    0.09936      0.00000     0.39940    0.00124     0.40064
      H   33    0.09895      0.00000     0.39963    0.00142     0.40105
      H   34    0.10090      0.00000     0.39772    0.00138     0.39910
 =======================================================================
   * Total *    0.00000     13.99427    38.81363    0.19210    53.00000

 Normal termination of Gaussian 16 at Thu Dec 10 11:24:44 2020.
