 Gaussian 16, Revision A.03,

 -----------------------------------------------------------
 # opt freq B3LYP/6-31G(d) empiricaldispersion=gd3bj scf=xqc
 -----------------------------------------------------------

 -------------------------------
 CID_113322216_JID_8431_neutraal
 -------------------------------
 Symbolic Z-matrix:
 Charge =  0 Multiplicity = 1

 SCF Done:  E(RB3LYP) =  -842.607164655     A.U. after   15 cycles
 SCF Done:  E(RB3LYP) =  -842.614838509     A.U. after   13 cycles
 SCF Done:  E(RB3LYP) =  -842.616049763     A.U. after   12 cycles
 SCF Done:  E(RB3LYP) =  -842.616703238     A.U. after   12 cycles
 SCF Done:  E(RB3LYP) =  -842.616924937     A.U. after   12 cycles
 SCF Done:  E(RB3LYP) =  -842.617000531     A.U. after   12 cycles
 SCF Done:  E(RB3LYP) =  -842.617067740     A.U. after   11 cycles
 SCF Done:  E(RB3LYP) =  -842.617108562     A.U. after   10 cycles
 SCF Done:  E(RB3LYP) =  -842.617127113     A.U. after   10 cycles
 SCF Done:  E(RB3LYP) =  -842.617136631     A.U. after    9 cycles
 SCF Done:  E(RB3LYP) =  -842.617144710     A.U. after    9 cycles
 SCF Done:  E(RB3LYP) =  -842.617147975     A.U. after    9 cycles
 SCF Done:  E(RB3LYP) =  -842.617148578     A.U. after    8 cycles
 SCF Done:  E(RB3LYP) =  -842.617148740     A.U. after    8 cycles
 Optimization completed.
    -- Stationary point found.
 Normal termination of Gaussian 16 at Fri Dec 11 20:46:55 2020.

 --------------------------------------------------------------------
 #N Geom=AllCheck Guess=TCheck SCRF=Check GenChk RB3LYP/6-31G(d) Freq
 --------------------------------------------------------------------

 Structure from the checkpoint file:  "JID_8431.chk"
 -------------------------------
 CID_113322216_JID_8431_neutraal
 -------------------------------
 Charge =  0 Multiplicity = 1

 SCF Done:  E(RB3LYP) =  -842.617148739     A.U. after    1 cycles

  Exact polarizability: 195.772  26.141 199.135  -9.080  -2.370 106.156
 Approx polarizability: 259.613  36.476 316.081 -14.844  -9.718 165.799

                      1                      2                      3
                      A                      A                      A
 Frequencies --     18.5692                33.4608                36.9068
 Red. masses --      4.3927                 4.1188                 4.2598
 Frc consts  --      0.0009                 0.0027                 0.0034
 IR Inten    --      0.4258                 0.1632                 0.2853

                      4                      5                      6
                      A                      A                      A
 Frequencies --     54.2272                60.9545                74.2179
 Red. masses --      3.4402                 4.2461                 3.1921
 Frc consts  --      0.0060                 0.0093                 0.0104
 IR Inten    --      2.5421                 0.6410                 2.0173

                      7                      8                      9
                      A                      A                      A
 Frequencies --    103.8196               111.6335               144.0808
 Red. masses --      4.8373                 4.7025                 4.8303
 Frc consts  --      0.0307                 0.0345                 0.0591
 IR Inten    --      0.1795                 0.9907                 2.8004

                     10                     11                     12
                      A                      A                      A
 Frequencies --    153.5335               200.3752               212.1779
 Red. masses --      3.0135                 3.5130                 2.6831
 Frc consts  --      0.0419                 0.0831                 0.0712
 IR Inten    --      9.4494                 0.6645                 2.6413

                     13                     14                     15
                      A                      A                      A
 Frequencies --    244.9591               263.0942               269.7906
 Red. masses --      1.2046                 1.2439                 2.7260
 Frc consts  --      0.0426                 0.0507                 0.1169
 IR Inten    --      0.0297                 0.7791                 0.2243

                     16                     17                     18
                      A                      A                      A
 Frequencies --    288.4516               308.9211               317.7367
 Red. masses --      1.9046                 1.4102                 3.1886
 Frc consts  --      0.0934                 0.0793                 0.1897
 IR Inten    --      0.8176                 0.6140                 1.1512

                     19                     20                     21
                      A                      A                      A
 Frequencies --    355.2929               364.7691               373.9412
 Red. masses --      2.3642                 4.6564                 3.5052
 Frc consts  --      0.1758                 0.3650                 0.2888
 IR Inten    --      2.1482                 6.4087                 6.3435

                     22                     23                     24
                      A                      A                      A
 Frequencies --    407.7862               437.4174               463.1039
 Red. masses --      5.4180                 2.3527                 1.7798
 Frc consts  --      0.5308                 0.2652                 0.2249
 IR Inten    --      2.9978                 4.5315                 1.7176

                     25                     26                     27
                      A                      A                      A
 Frequencies --    474.8014               535.8205               593.5590
 Red. masses --      2.3818                 4.1819                 2.4922
 Frc consts  --      0.3164                 0.7074                 0.5173
 IR Inten    --      1.2842                 6.5514                57.4945

                     28                     29                     30
                      A                      A                      A
 Frequencies --    599.1363               607.4711               618.2480
 Red. masses --      2.8985                 3.2891                 1.2064
 Frc consts  --      0.6130                 0.7151                 0.2717
 IR Inten    --     49.8890                11.2583                90.9269

                     31                     32                     33
                      A                      A                      A
 Frequencies --    646.3705               707.2439               746.0170
 Red. masses --      3.9396                 3.4213                 1.3175
 Frc consts  --      0.9698                 1.0083                 0.4320
 IR Inten    --      4.4705                 7.8686                44.2863

                     34                     35                     36
                      A                      A                      A
 Frequencies --    756.8764               784.2618               807.0558
 Red. masses --      2.1340                 3.6140                 2.6614
 Frc consts  --      0.7203                 1.3097                 1.0213
 IR Inten    --     35.0297                 8.0108                25.5259

                     37                     38                     39
                      A                      A                      A
 Frequencies --    814.7212               856.7857               873.6097
 Red. masses --      1.4338                 2.5181                 1.4331
 Frc consts  --      0.5607                 1.0891                 0.6444
 IR Inten    --     28.5676                 4.8930                 6.7620

                     40                     41                     42
                      A                      A                      A
 Frequencies --    876.3580               893.1069               908.1886
 Red. masses --      2.7179                 2.7720                 5.9498
 Frc consts  --      1.2298                 1.3027                 2.8914
 IR Inten    --     33.5496                 3.7027                11.1110

                     43                     44                     45
                      A                      A                      A
 Frequencies --    914.9984               946.6589               975.5427
 Red. masses --      2.2343                 1.8778                 2.7397
 Frc consts  --      1.1021                 0.9915                 1.5362
 IR Inten    --      0.3867                15.5869                18.4721

                     46                     47                     48
                      A                      A                      A
 Frequencies --    989.5152              1005.3768              1020.5044
 Red. masses --      1.9401                 1.7109                 1.1773
 Frc consts  --      1.1193                 1.0189                 0.7224
 IR Inten    --      5.7987                21.8435                26.6455

                     49                     50                     51
                      A                      A                      A
 Frequencies --   1048.8449              1064.4086              1072.6271
 Red. masses --      1.3287                 2.2936                 1.6782
 Frc consts  --      0.8612                 1.5310                 1.1376
 IR Inten    --     35.0470                49.0584                18.5687

                     52                     53                     54
                      A                      A                      A
 Frequencies --   1112.5612              1129.4492              1133.3802
 Red. masses --      2.2700                 2.8541                 1.2808
 Frc consts  --      1.6555                 2.1451                 0.9693
 IR Inten    --     56.8542                22.1250                 4.7818

                     55                     56                     57
                      A                      A                      A
 Frequencies --   1146.0867              1171.5627              1178.2315
 Red. masses --      1.8147                 2.0472                 1.7952
 Frc consts  --      1.4044                 1.6555                 1.4683
 IR Inten    --     27.4564                40.3583                12.1191

                     58                     59                     60
                      A                      A                      A
 Frequencies --   1194.8091              1206.7177              1217.6233
 Red. masses --      1.8072                 1.7231                 2.5086
 Frc consts  --      1.5200                 1.4783                 2.1913
 IR Inten    --     92.7248                30.7926                 6.8162

                     61                     62                     63
                      A                      A                      A
 Frequencies --   1246.1855              1286.5083              1310.9775
 Red. masses --      2.1572                 1.6219                 1.9642
 Frc consts  --      1.9738                 1.5816                 1.9890
 IR Inten    --      8.9645                 3.6959                 6.2856

                     64                     65                     66
                      A                      A                      A
 Frequencies --   1313.2817              1315.4299              1345.1230
 Red. masses --      1.5669                 2.0422                 1.6527
 Frc consts  --      1.5923                 2.0821                 1.7619
 IR Inten    --      2.0783                28.8312                19.2138

                     67                     68                     69
                      A                      A                      A
 Frequencies --   1349.3961              1369.4724              1393.2044
 Red. masses --      1.5283                 2.0152                 1.3341
 Frc consts  --      1.6396                 2.2267                 1.5257
 IR Inten    --     42.2541               176.0678                24.7500

                     70                     71                     72
                      A                      A                      A
 Frequencies --   1407.5423              1430.7305              1439.8969
 Red. masses --      1.9236                 1.3325                 2.2293
 Frc consts  --      2.2454                 1.6070                 2.7232
 IR Inten    --    152.8187                 9.6721                21.9688

                     73                     74                     75
                      A                      A                      A
 Frequencies --   1444.8008              1468.2996              1491.1905
 Red. masses --      1.7818                 1.1539                 1.5170
 Frc consts  --      2.1914                 1.4657                 1.9875
 IR Inten    --     42.5016                 0.3756                46.7274

                     76                     77                     78
                      A                      A                      A
 Frequencies --   1493.9808              1516.9190              1523.1952
 Red. masses --      1.1754                 1.0477                 1.0558
 Frc consts  --      1.5457                 1.4204                 1.4433
 IR Inten    --      2.1400                 5.9054                 6.3009

                     79                     80                     81
                      A                      A                      A
 Frequencies --   1525.6598              1527.3591              1529.9020
 Red. masses --      3.0143                 1.2532                 1.0712
 Frc consts  --      4.1338                 1.7224                 1.4772
 IR Inten    --     45.3301                 5.0276                 4.5608

                     82                     83                     84
                      A                      A                      A
 Frequencies --   1532.5941              1538.4204              1538.8989
 Red. masses --      1.0700                 1.0568                 1.0772
 Frc consts  --      1.4808                 1.4737                 1.5030
 IR Inten    --     24.9443                 2.2071                 2.8251

                     85                     86                     87
                      A                      A                      A
 Frequencies --   1546.5153              1628.6115              1701.7570
 Red. masses --      1.0570                 5.6297                 6.2801
 Frc consts  --      1.4894                 8.7977                10.7154
 IR Inten    --     10.3233                 2.5697                77.2869

                     88                     89                     90
                      A                      A                      A
 Frequencies --   1763.3704              2959.6203              2966.1196
 Red. masses --      7.2311                 1.0588                 1.0595
 Frc consts  --     13.2478                 5.4645                 5.4920
 IR Inten    --    399.5066                34.2161               113.1696

                     91                     92                     93
                      A                      A                      A
 Frequencies --   3033.2276              3034.7717              3051.8951
 Red. masses --      1.0729                 1.0625                 1.0367
 Frc consts  --      5.8157                 5.7657                 5.6891
 IR Inten    --     45.9777                44.7508                14.0256

                     94                     95                     96
                      A                      A                      A
 Frequencies --   3085.5643              3090.7497              3098.7707
 Red. masses --      1.0757                 1.0759                 1.1004
 Frc consts  --      6.0341                 6.0555                 6.2255
 IR Inten    --     19.5781                49.0734                14.0077

                     97                     98                     99
                      A                      A                      A
 Frequencies --   3120.7743              3131.4827              3133.2633
 Red. masses --      1.1026                 1.1013                 1.1033
 Frc consts  --      6.3270                 6.3631                 6.3815
 IR Inten    --     28.0554                24.1057                42.6018

                    100                    101                    102
                      A                      A                      A
 Frequencies --   3147.0989              3159.8313              3201.6461
 Red. masses --      1.1002                 1.0909                 1.0911
 Frc consts  --      6.4200                 6.4176                 6.5894
 IR Inten    --     16.2031                11.0467                 5.2173

                    103                    104                    105
                      A                      A                      A
 Frequencies --   3222.4105              3268.0563              3279.4882
 Red. masses --      1.0861                 1.0910                 1.0972
 Frc consts  --      6.6450                 6.8650                 6.9528
 IR Inten    --      1.8781                 4.4599                 0.8148

                    106                    107                    108
                      A                      A                      A
 Frequencies --   3304.0521              3562.1298              3612.6023
 Red. masses --      1.1046                 1.0743                 1.0643
 Frc consts  --      7.1046                 8.0314                 8.1840
 IR Inten    --      0.6198                17.2643                74.1855

 - Thermochemistry -
 -------------------
 Temperature   298.150 Kelvin.  Pressure   1.00000 Atm.
 Atom     1 has atomic number  6 and mass  12.00000

 Molecular mass:   252.14739 amu.
 Principal axes and moments of inertia in atomic units:
                           1         2         3
     Eigenvalues --  3787.717307156.841859861.81043
           X            0.99987  -0.01226  -0.01078
           Y            0.01242   0.99980   0.01567
           Z            0.01058  -0.01580   0.99982
 This molecule is an asymmetric top.
 Rotational symmetry number  1.
 Warning -- assumption of classical behavior for rotation
           may cause significant error
 Rotational temperatures (Kelvin)      0.02287     0.01210     0.00878
 Rotational constants (GHZ):           0.47647     0.25217     0.18300
 Zero-point vibrational energy     851564.9 (Joules/Mol)
                                  203.52889 (Kcal/Mol)
 Warning -- explicit consideration of  30 degrees of freedom as
           vibrations may cause significant error
 Vibrational temperatures:     26.72    48.14    53.10    78.02    87.70
          (Kelvin)            106.78   149.37   160.62   207.30   220.90
                              288.30   305.28   352.44   378.53   388.17
                              415.02   444.47   457.15   511.19   524.82
                              538.02   586.71   629.35   666.30   683.13
                              770.93   854.00   862.02   874.02   889.52
                              929.98  1017.57  1073.35  1088.98  1128.38
                             1161.17  1172.20  1232.72  1256.93  1260.88
                             1284.98  1306.68  1316.48  1362.03  1403.59
                             1423.69  1446.51  1468.28  1509.05  1531.45
                             1543.27  1600.73  1625.03  1630.68  1648.96
                             1685.62  1695.21  1719.06  1736.20  1751.89
                             1792.98  1851.00  1886.20  1889.52  1892.61
                             1935.33  1941.48  1970.37  2004.51  2025.14
                             2058.50  2071.69  2078.75  2112.56  2145.49
                             2149.51  2182.51  2191.54  2195.08  2197.53
                             2201.19  2205.06  2213.44  2214.13  2225.09
                             2343.21  2448.45  2537.10  4258.23  4267.58
                             4364.14  4366.36  4391.00  4439.44  4446.90
                             4458.44  4490.10  4505.51  4508.07  4527.97
                             4546.29  4606.45  4636.33  4702.00  4718.45
                             4753.79  5125.11  5197.73

 Zero-point correction=                           0.324344 (Hartree/Particle)
 Thermal correction to Energy=                    0.343313
 Thermal correction to Enthalpy=                  0.344257
 Thermal correction to Gibbs Free Energy=         0.274961
 Sum of electronic and zero-point Energies=           -842.292805
 Sum of electronic and thermal Energies=              -842.273836
 Sum of electronic and thermal Enthalpies=            -842.272892
 Sum of electronic and thermal Free Energies=         -842.342188

                     E (Thermal)             CV                S
                      KCal/Mol        Cal/Mol-Kelvin    Cal/Mol-Kelvin
 Total                  215.432             70.604            145.845
 Electronic               0.000              0.000              0.000
 Translational            0.889              2.981             42.475
 Rotational               0.889              2.981             33.946
 Vibrational            213.655             64.642             69.424
 Vibration     1          0.593              1.986              6.782
 Vibration     2          0.594              1.983              5.613
 Vibration     3          0.594              1.982              5.419
 Vibration     4          0.596              1.976              4.657
 Vibration     5          0.597              1.973              4.426
 Vibration     6          0.599              1.966              4.038
 Vibration     7          0.605              1.946              3.381
 Vibration     8          0.607              1.940              3.240
 Vibration     9          0.616              1.909              2.749
 Vibration    10          0.619              1.899              2.628
 Vibration    11          0.638              1.839              2.130
 Vibration    12          0.643              1.822              2.025
 Vibration    13          0.660              1.771              1.767
 Vibration    14          0.670              1.740              1.641
 Vibration    15          0.674              1.729              1.598
 Vibration    16          0.685              1.695              1.483
 Vibration    17          0.698              1.657              1.368
 Vibration    18          0.704              1.640              1.322
 Vibration    19          0.731              1.564              1.143
 Vibration    20          0.738              1.545              1.102
 Vibration    21          0.745              1.526              1.064
 Vibration    22          0.772              1.453              0.934
 Vibration    23          0.798              1.389              0.835
 Vibration    24          0.821              1.332              0.757
 Vibration    25          0.832              1.306              0.724
 Vibration    26          0.891              1.171              0.574
 Vibration    27          0.951              1.045              0.461
 Vibration    28          0.957              1.034              0.451
 Vibration    29          0.966              1.016              0.437
 Vibration    30          0.978              0.993              0.419

                           ! Non-Optimized Parameters !
 Normal termination of Gaussian 16 at Fri Dec 11 21:04:58 2020.

 ----------------------------------------------------------------------
 # B3LYP/6-311++G(d,p) empiricaldispersion=gd3bj scf=xqc pop=npa geom=c
 heck
 ----------------------------------------------------------------------

 ---------------------------------------
 CID_113322216_JID_8431_Energie_neutraal
 ---------------------------------------
 Structure from the checkpoint file:  "JID_8431.chk"
 Charge =  0 Multiplicity = 1

 SCF Done:  E(RB3LYP) =  -842.868557955     A.U. after   16 cycles
 Normal termination of Gaussian 16 at Fri Dec 11 21:14:05 2020.

 ----------------------------------------------------------------------
 # B3LYP/6-311++G(d,p) empiricaldispersion=gd3bj scf=xqc pop=npa geom=c
 heck
 ----------------------------------------------------------------------

 -------------------------------------
 CID_113322216_JID_8431_Energie_kation
 -------------------------------------
 Structure from the checkpoint file:  "JID_8431.chk"
 Charge =  1 Multiplicity = 2

 SCF Done:  E(UB3LYP) =  -842.582870268     A.U. after   27 cycles
 Normal termination of Gaussian 16 at Fri Dec 11 21:36:18 2020.
 Gaussian 16:  ES64L-G16RevA.03 25-Dec-2016

 ----------------------------------------------------------------------
 # B3LYP/6-311++G(d,p) empiricaldispersion=gd3bj scf=xqc pop=npa geom=c
 heck
 ----------------------------------------------------------------------

 ------------------------------------
 CID_113322216_JID_8431_Energie_anion
 ------------------------------------
 Structure from the checkpoint file:  "JID_8431.chk"
 Charge = -1 Multiplicity = 2

                         Standard orientation:
 ---------------------------------------------------------------------
 Center     Atomic      Atomic             Coordinates (Angstroms)
 Number     Number       Type             X           Y           Z
 ---------------------------------------------------------------------
      1          6           0        3.470367    1.165507    0.060145
      2          6           0        2.247254    0.455070    0.656004
      3          6           0        1.130079    1.456453    0.983161
      4          7           0        0.712149    2.244533   -0.176027
      5          6           0       -0.564256    2.716317   -0.428995
      6          8           0       -0.736920    3.793028   -0.992892
      7          6           0       -1.731138    1.866287   -0.079619
      8          6           0       -1.776835    0.532390   -0.254453
      9          6           0       -2.929393   -0.305856   -0.053192
     10          6           0       -4.234127   -0.098970    0.325310
     11          6           0       -4.867133   -1.377048    0.342541
     12          6           0       -3.911544   -2.279755   -0.025392
     13          8           0       -2.731988   -1.651619   -0.270034
     14          6           0        1.734755   -0.685614   -0.249185
     15          7           0        2.693642   -1.803170   -0.257372
     16          6           0        2.073726   -3.078806    0.090747
     17          6           0        3.439734   -1.907855   -1.506796
     18          8           0        2.598186   -0.120870    1.912252
     19          1           0        3.260413    1.588547   -0.928992
     20          1           0        4.301872    0.461518   -0.039627
     21          1           0        3.795982    1.969065    0.729597
     22          1           0        0.267664    0.922035    1.381532
     23          1           0        1.500111    2.114805    1.781633
     24          1           0        1.388931    2.938591   -0.476526
     25          1           0       -2.620421    2.427316    0.193555
     26          1           0       -0.891696    0.007297   -0.598682
     27          1           0       -4.684173    0.855314    0.559093
     28          1           0       -5.895493   -1.594763    0.593631
     29          1           0       -3.909799   -3.350932   -0.155684
     30          1           0        0.791535   -1.043221    0.175270
     31          1           0        1.521967   -0.321690   -1.263596
     32          1           0        1.323865   -3.411618   -0.650436
     33          1           0        2.846606   -3.851557    0.162896
     34          1           0        1.583163   -2.993489    1.064616
     35          1           0        2.798533   -2.195188   -2.360664
     36          1           0        3.913506   -0.952786   -1.744596
     37          1           0        4.227549   -2.661592   -1.402990
     38          1           0        3.116182   -0.910212    1.657511
 ---------------------------------------------------------------------

 SCF Done:  E(UB3LYP) =  -842.881010234     A.U. after   33 cycles
 SCF Done:  E(UB3LYP) =  -842.881010234     a.u. after    1 cycles

 The electronic state is 2-A.
 Alpha  occ. eigenvalues --  -19.04495 -19.02051 -18.93699 -14.23071 -14.19890
 Alpha  occ. eigenvalues --  -10.12990 -10.11776 -10.11059 -10.10849 -10.09794
 Alpha  occ. eigenvalues --  -10.09009 -10.08592 -10.08274 -10.07041 -10.04713
 Alpha  occ. eigenvalues --  -10.02691 -10.02057 -10.00956  -0.97456  -0.93121
 Alpha  occ. eigenvalues --   -0.89056  -0.84076  -0.78843  -0.68051  -0.67015
 Alpha  occ. eigenvalues --   -0.65739  -0.63045  -0.61506  -0.59716  -0.58906
 Alpha  occ. eigenvalues --   -0.51953  -0.50241  -0.47256  -0.46915  -0.43272
 Alpha  occ. eigenvalues --   -0.42209  -0.41642  -0.39798  -0.39394  -0.38780
 Alpha  occ. eigenvalues --   -0.36632  -0.35252  -0.34661  -0.34316  -0.32837
 Alpha  occ. eigenvalues --   -0.32224  -0.31904  -0.31076  -0.30917  -0.30460
 Alpha  occ. eigenvalues --   -0.29169  -0.28955  -0.28054  -0.27072  -0.26523
 Alpha  occ. eigenvalues --   -0.26181  -0.25734  -0.25622  -0.24343  -0.22821
 Alpha  occ. eigenvalues --   -0.21746  -0.18372  -0.16850  -0.15426  -0.14528
 Alpha  occ. eigenvalues --   -0.13160  -0.11308  -0.07972   0.03994
 Alpha virt. eigenvalues --    0.05416   0.07474   0.08123   0.08253   0.09017
 Alpha virt. eigenvalues --    0.10053   0.10272   0.10483   0.11195   0.11314
 Alpha virt. eigenvalues --    0.11635   0.12870   0.13148   0.13582   0.13858

  Beta  occ. eigenvalues --  -19.04267 -19.02049 -18.93462 -14.23068 -14.19865
  Beta  occ. eigenvalues --  -10.12991 -10.11665 -10.11048 -10.10842 -10.09789
  Beta  occ. eigenvalues --  -10.09003 -10.08425 -10.08251 -10.07034 -10.04792
  Beta  occ. eigenvalues --  -10.02503 -10.01784 -10.00672  -0.97094  -0.93118
  Beta  occ. eigenvalues --   -0.88669  -0.84068  -0.78698  -0.68013  -0.66740
  Beta  occ. eigenvalues --   -0.65200  -0.63029  -0.61484  -0.59410  -0.58707
  Beta  occ. eigenvalues --   -0.51919  -0.49555  -0.47187  -0.46819  -0.43043
  Beta  occ. eigenvalues --   -0.42027  -0.41545  -0.39770  -0.39351  -0.38551
  Beta  occ. eigenvalues --   -0.36591  -0.35162  -0.34588  -0.34282  -0.32680
  Beta  occ. eigenvalues --   -0.31886  -0.31315  -0.31055  -0.30682  -0.30352
  Beta  occ. eigenvalues --   -0.29095  -0.28785  -0.27920  -0.26923  -0.26494
  Beta  occ. eigenvalues --   -0.25943  -0.25634  -0.25239  -0.24120  -0.22569
  Beta  occ. eigenvalues --   -0.21447  -0.18359  -0.15233  -0.14671  -0.14397
  Beta  occ. eigenvalues --   -0.12788  -0.10812  -0.06389
  Beta virt. eigenvalues --    0.05554   0.07432   0.08040   0.08205   0.08985
  Beta virt. eigenvalues --    0.09457   0.10004   0.10221   0.10401   0.11118
  Beta virt. eigenvalues --    0.11253   0.11573   0.12866   0.13099   0.13501

 Mulliken charges and spin densities:
               1          2
     1  C   -0.360013  -0.156654
     2  C    0.276437   0.042535
     3  C   -0.392112  -0.024379
     4  N   -0.138023  -0.000227
     5  C   -0.449034   0.090676
     6  O   -0.377348   0.079962
     7  C   -0.240855   0.404871
     8  C    0.004032   0.098899
     9  C    0.064243  -0.040437
    10  C   -0.027817   0.158136
    11  C   -0.407871  -0.063109
    12  C   -0.104009   0.157560
    13  O   -0.023796   0.034440
    14  C   -1.293036  -0.009666
    15  N    0.101587   0.041954
    16  C   -0.209060  -0.099355
    17  C   -0.010955  -0.279011
    18  O   -0.125439   0.000966
    19  H    0.110490   0.041894
    20  H    0.048875   0.069493
    21  H    0.156269   0.009888
    22  H    0.176426   0.004639
    23  H    0.143204   0.038163
    24  H    0.278332  -0.006257
    25  H    0.179687  -0.008436
    26  H    0.151904  -0.035593
    27  H    0.121675  -0.011297
    28  H    0.117421   0.003838
    29  H    0.118165  -0.003023
    30  H    0.292573  -0.005707
    31  H    0.184996   0.031797
    32  H    0.133154   0.013505
    33  H    0.024559   0.090909
    34  H    0.122501   0.013585
    35  H    0.040187   0.079383
    36  H    0.062621   0.068179
    37  H   -0.013211   0.156994
    38  H    0.263241   0.010885
 Sum of Mulliken charges =  -1.00000   1.00000

 Dipole moment (field-independent basis, Debye):
    X=              5.8183    Y=             -5.2594    Z=              0.9453  Tot=              7.8998
 Quadrupole moment (field-independent basis, Debye-Ang):
   XX=           -153.5164   YY=           -151.9525   ZZ=           -130.9650
   XY=              6.0946   XZ=             -6.8984   YZ=              7.1451

 Summary of Natural Population Analysis:

                                       Natural Population
                Natural  -----------------------------------------------
    Atom  No    Charge         Core      Valence    Rydberg      Total
 -----------------------------------------------------------------------
      C    1   -0.30224      0.99962     2.29661    0.00602     3.30224
      C    2    0.11787      0.99954     1.86612    0.01647     2.88213
      C    3   -0.09114      0.99955     2.07994    0.01165     3.09114
      N    4   -0.33301      0.99967     2.82397    0.00938     3.83301
      C    5    0.34326      0.99965     1.63424    0.02285     2.65674
      O    6   -0.30864      0.99988     3.30272    0.00604     4.30864
      C    7   -0.08298      0.99950     2.07448    0.00900     3.08298
      C    8   -0.06899      0.99951     2.06096    0.00852     3.06899
      C    9    0.14383      0.99947     1.84302    0.01369     2.85617
      C   10   -0.11766      0.99952     2.11011    0.00804     3.11766
      C   11   -0.17712      0.99958     2.16907    0.00846     3.17712
      C   12    0.07733      0.99954     1.90806    0.01507     2.92267
      O   13   -0.21877      0.99986     3.21094    0.00797     4.21877
      C   14   -0.10000      0.99956     2.08725    0.01320     3.10000
      N   15   -0.29644      0.99973     2.78322    0.01349     3.79644
      C   16   -0.17431      0.99965     2.16789    0.00677     3.17431
      C   17   -0.17256      0.99965     2.16612    0.00679     3.17256
      O   18   -0.38082      0.99989     3.37457    0.00636     4.38082
      H   19    0.10112      0.00000     0.39769    0.00119     0.39888
      H   20    0.09916      0.00000     0.39962    0.00122     0.40084
      H   21    0.10142      0.00000     0.39761    0.00097     0.39858
      H   22    0.11521      0.00000     0.38349    0.00130     0.38479
      H   23    0.08891      0.00000     0.40990    0.00120     0.41109
      H   24    0.18162      0.00000     0.31475    0.00363     0.31838
      H   25    0.09456      0.00000     0.40455    0.00089     0.40544
      H   26    0.09134      0.00000     0.40629    0.00238     0.40866
      H   27    0.10155      0.00000     0.39763    0.00082     0.39845
      H   28    0.09892      0.00000     0.40020    0.00088     0.40108
      H   29    0.08414      0.00000     0.41491    0.00095     0.41586
      H   30    0.10562      0.00000     0.39305    0.00133     0.39438
      H   31    0.10083      0.00000     0.39772    0.00145     0.39917
      H   32    0.08392      0.00000     0.41443    0.00166     0.41608
      H   33    0.09118      0.00000     0.40773    0.00109     0.40882
      H   34    0.09919      0.00000     0.39984    0.00097     0.40081
      H   35    0.08183      0.00000     0.41644    0.00173     0.41817
      H   36    0.09686      0.00000     0.40205    0.00109     0.40314
      H   37    0.09232      0.00000     0.40651    0.00118     0.40768
      H   38    0.23271      0.00000     0.26431    0.00298     0.26729
 =======================================================================
   * Total *   -0.00000     17.99335    49.78798    0.21867    68.00000

 Normal termination of Gaussian 16 at Fri Dec 11 22:03:15 2020.
