 Gaussian 16, Revision A.03,

 -----------------------------------------------------------
 # opt freq B3LYP/6-31G(d) empiricaldispersion=gd3bj scf=xqc
 -----------------------------------------------------------

 ------------------------------
 CID_20469324_JID_3089_neutraal
 ------------------------------
 Symbolic Z-matrix:
 Charge =  0 Multiplicity = 1

 SCF Done:  E(RB3LYP) =  -651.120965340     A.U. after   15 cycles
 SCF Done:  E(RB3LYP) =  -651.125648281     A.U. after   12 cycles
 SCF Done:  E(RB3LYP) =  -651.125978781     A.U. after   13 cycles
 SCF Done:  E(RB3LYP) =  -651.126903052     A.U. after   12 cycles
 SCF Done:  E(RB3LYP) =  -651.127110541     A.U. after   13 cycles
 SCF Done:  E(RB3LYP) =  -651.127300271     A.U. after   13 cycles
 SCF Done:  E(RB3LYP) =  -651.127456771     A.U. after   12 cycles
 SCF Done:  E(RB3LYP) =  -651.127591034     A.U. after   11 cycles
 SCF Done:  E(RB3LYP) =  -651.127641470     A.U. after   11 cycles
 SCF Done:  E(RB3LYP) =  -651.127653747     A.U. after   10 cycles
 SCF Done:  E(RB3LYP) =  -651.127654595     A.U. after    9 cycles
 SCF Done:  E(RB3LYP) =  -651.127654922     A.U. after    8 cycles
 Optimization completed.
    -- Stationary point found.

 1\1\GINC-NODE220\FOpt\RB3LYP\6-31G(d)\C9H12O4\VSC10255\09-Dec-2020\0\\
 # opt freq B3LYP/6-31G(d) empiricaldispersion=gd3bj scf=xqc\\CID_20469
 324_JID_3089_neutraal\\0,1\C,-0.024262334,-1.9366299113,0.860016385\C,
 0.2437221067,-1.0836125451,-0.4061831831\C,-0.9930289353,-0.2358340377
 ,-0.7152639961\O,-1.8225985649,-0.6156944381,-1.5158074045\C,-1.124143
 7559,1.0710420997,0.0504544139\C,0.1894141799,1.8673678249,0.037912140
 8\C,1.3558188324,1.0310051639,0.6047810072\C,1.5131711642,-0.261042605
 5,-0.2073076505\O,2.5802357551,-0.6247341141,-0.654934636\C,2.67987119

 Normal termination of Gaussian 16 at Wed Dec  9 22:23:33 2020.

 --------------------------------------------------------------------
 #N Geom=AllCheck Guess=TCheck SCRF=Check GenChk RB3LYP/6-31G(d) Freq
 --------------------------------------------------------------------

 Structure from the checkpoint file:  "JID_3089.chk"
 ------------------------------
 CID_20469324_JID_3089_neutraal
 ------------------------------
 Charge =  0 Multiplicity = 1

 SCF Done:  E(RB3LYP) =  -651.127654922     A.U. after    1 cycles

  Exact polarizability: 117.651  -3.113  92.750  -0.023   0.253  86.090
 Approx polarizability: 153.111 -15.562 136.832  -6.411   3.462 141.959

                      1                      2                      3
                      A                      A                      A
 Frequencies --     41.2618                51.9720                74.0879
 Red. masses --      5.1645                 5.7718                 5.9656
 Frc consts  --      0.0052                 0.0092                 0.0193
 IR Inten    --      1.8100                 4.2444                 3.9694

                      4                      5                      6
                      A                      A                      A
 Frequencies --     89.3166               137.9540               146.9125
 Red. masses --      3.3021                 1.1525                 3.6402
 Frc consts  --      0.0155                 0.0129                 0.0463
 IR Inten    --      1.0148                 0.1280                 1.1868

                      7                      8                      9
                      A                      A                      A
 Frequencies --    194.8734               202.9820               219.7823
 Red. masses --      3.1456                 3.4247                 4.1421
 Frc consts  --      0.0704                 0.0831                 0.1179
 IR Inten    --      0.9758                 1.1210                 3.6931

                     10                     11                     12
                      A                      A                      A
 Frequencies --    233.5931               250.0773               301.4236
 Red. masses --      1.0776                 2.9392                 5.0351
 Frc consts  --      0.0346                 0.1083                 0.2695
 IR Inten    --      0.4509                 1.1362                 4.3497

                     13                     14                     15
                      A                      A                      A
 Frequencies --    323.8916               395.1474               427.4438
 Red. masses --      4.1307                 6.7443                 3.1551
 Frc consts  --      0.2553                 0.6204                 0.3396
 IR Inten    --     12.7749                17.1553                 1.4663

                     16                     17                     18
                      A                      A                      A
 Frequencies --    475.1218               538.2987               559.8819
 Red. masses --      5.5873                 3.7535                 4.7092
 Frc consts  --      0.7431                 0.6408                 0.8697
 IR Inten    --      8.4780                 3.4250                13.9817

                     19                     20                     21
                      A                      A                      A
 Frequencies --    646.6250               680.4984               718.4797
 Red. masses --      4.2860                 4.9152                 4.3287
 Frc consts  --      1.0559                 1.3410                 1.3165
 IR Inten    --      8.9363                 4.1035                 0.8642

                     22                     23                     24
                      A                      A                      A
 Frequencies --    760.1163               791.8605               830.1738
 Red. masses --      2.4493                 3.3959                 3.5988
 Frc consts  --      0.8338                 1.2546                 1.4613
 IR Inten    --      4.8784                 4.3170                 8.1295

                     25                     26                     27
                      A                      A                      A
 Frequencies --    865.1702               914.4519               956.7974
 Red. masses --      2.8347                 2.0023                 2.3712
 Frc consts  --      1.2501                 0.9865                 1.2790
 IR Inten    --      9.0994                 9.0016                 7.0473

                     28                     29                     30
                      A                      A                      A
 Frequencies --    982.0585              1016.2941              1035.8087
 Red. masses --      2.1264                 1.8503                 1.8864
 Frc consts  --      1.2083                 1.1260                 1.1925
 IR Inten    --     25.0446                17.0614                17.0794

                     31                     32                     33
                      A                      A                      A
 Frequencies --   1059.2654              1082.8922              1113.2327
 Red. masses --      3.0239                 3.5923                 2.7818
 Frc consts  --      1.9991                 2.4819                 2.0312
 IR Inten    --     21.7112                37.6873                11.4289

                     34                     35                     36
                      A                      A                      A
 Frequencies --   1159.8998              1181.9596              1186.1334
 Red. masses --      1.9575                 1.6286                 1.2788
 Frc consts  --      1.5516                 1.3405                 1.0600
 IR Inten    --     24.2181                19.2396                 1.2753

                     37                     38                     39
                      A                      A                      A
 Frequencies --   1215.3085              1221.7059              1270.1088
 Red. masses --      1.8861                 1.4815                 1.8787
 Frc consts  --      1.6413                 1.3028                 1.7856
 IR Inten    --     20.5368                 3.1011                77.7074

                     40                     41                     42
                      A                      A                      A
 Frequencies --   1298.1541              1310.9954              1318.2799
 Red. masses --      1.8508                 1.5570                 2.1119
 Frc consts  --      1.8376                 1.5766                 2.1624
 IR Inten    --    112.4499               111.5243               108.5313

                     43                     44                     45
                      A                      A                      A
 Frequencies --   1323.4529              1340.2451              1363.0784
 Red. masses --      1.3093                 1.7532                 1.3865
 Frc consts  --      1.3512                 1.8555                 1.5178
 IR Inten    --     11.8304                41.5560                 5.1332

                     46                     47                     48
                      A                      A                      A
 Frequencies --   1392.3085              1428.9936              1493.1063
 Red. masses --      1.5824                 1.1988                 1.2146
 Frc consts  --      1.8073                 1.4423                 1.5954
 IR Inten    --     10.6611                 3.1438                 8.5682

                     49                     50                     51
                      A                      A                      A
 Frequencies --   1494.4165              1513.1653              1523.3624
 Red. masses --      1.0876                 1.0476                 1.0462
 Frc consts  --      1.4311                 1.4132                 1.4305
 IR Inten    --     10.3730                 6.2346                 8.0351

                     52                     53                     54
                      A                      A                      A
 Frequencies --   1526.8169              1529.5952              1530.4580
 Red. masses --      1.0510                 1.0591                 1.0685
 Frc consts  --      1.4435                 1.4599                 1.4746
 IR Inten    --      3.9984                 5.5951                12.5299

                     55                     56                     57
                      A                      A                      A
 Frequencies --   1805.0311              1828.3359              1841.3923
 Red. masses --     11.3518                11.7931                11.2633
 Frc consts  --     21.7914                23.2268                22.5013
 IR Inten    --    212.8771               274.1743               136.7718

                     58                     59                     60
                      A                      A                      A
 Frequencies --   3032.8409              3060.4597              3064.8700
 Red. masses --      1.0692                 1.0625                 1.0519
 Frc consts  --      5.7944                 5.8632                 5.8219
 IR Inten    --      8.7714                 1.9584                16.9547

                     61                     62                     63
                      A                      A                      A
 Frequencies --   3075.9732              3079.8706              3109.0807
 Red. masses --      1.0608                 1.0296                 1.0867
 Frc consts  --      5.9135                 5.7540                 6.1888
 IR Inten    --     24.7293                27.6966                 0.9617

                     64                     65                     66
                      A                      A                      A
 Frequencies --   3118.7582              3131.1467              3138.4719
 Red. masses --      1.1045                 1.0949                 1.1014
 Frc consts  --      6.3294                 6.3244                 6.3919
 IR Inten    --     11.2251                13.2091                20.9784

                     67                     68                     69
                      A                      A                      A
 Frequencies --   3145.1906              3157.1514              3187.9562
 Red. masses --      1.1046                 1.1077                 1.1075
 Frc consts  --      6.4379                 6.5052                 6.6315
 IR Inten    --      8.0943                17.0754                14.9729

 - Thermochemistry -
 -------------------
 Temperature   298.150 Kelvin.  Pressure   1.00000 Atm.
 Atom     1 has atomic number  6 and mass  12.00000

 Molecular mass:   184.07356 amu.
 Principal axes and moments of inertia in atomic units:
                           1         2         3
     Eigenvalues --  1185.433433588.268653939.83802
           X            0.99945   0.02222   0.02446
           Y           -0.02236   0.99974   0.00543
           Z           -0.02434  -0.00597   0.99969
 This molecule is an asymmetric top.
 Rotational symmetry number  1.
 Warning -- assumption of classical behavior for rotation
           may cause significant error
 Rotational temperatures (Kelvin)      0.07307     0.02414     0.02198
 Rotational constants (GHZ):           1.52243     0.50296     0.45807
 Zero-point vibrational energy     535423.5 (Joules/Mol)
                                  127.96929 (Kcal/Mol)
 Warning -- explicit consideration of  18 degrees of freedom as
           vibrations may cause significant error
 Vibrational temperatures:     59.37    74.78   106.60   128.51   198.49
          (Kelvin)            211.37   280.38   292.05   316.22   336.09
                              359.81   433.68   466.01   568.53   615.00
                              683.59   774.49   805.55   930.35   979.09
                             1033.73  1093.64  1139.31  1194.43  1244.79
                             1315.69  1376.62  1412.96  1462.22  1490.30
                             1524.05  1558.04  1601.69  1668.84  1700.58
                             1706.58  1748.56  1757.76  1827.40  1867.75
                             1886.23  1896.71  1904.15  1928.31  1961.17
                             2003.22  2056.00  2148.25  2150.13  2177.11
                             2191.78  2196.75  2200.75  2201.99  2597.04
                             2630.57  2649.35  4363.58  4403.32  4409.66
                             4425.64  4431.25  4473.27  4487.20  4505.02
                             4515.56  4525.23  4542.44  4586.76

 Zero-point correction=                           0.203932 (Hartree/Particle)
 Thermal correction to Energy=                    0.217141
 Thermal correction to Enthalpy=                  0.218085
 Thermal correction to Gibbs Free Energy=         0.163379
 Sum of electronic and zero-point Energies=           -650.923723
 Sum of electronic and thermal Energies=              -650.910514
 Sum of electronic and thermal Enthalpies=            -650.909570
 Sum of electronic and thermal Free Energies=         -650.964276

                     E (Thermal)             CV                S
                      KCal/Mol        Cal/Mol-Kelvin    Cal/Mol-Kelvin
 Total                  136.258             47.306            115.139
 Electronic               0.000              0.000              0.000
 Translational            0.889              2.981             41.537
 Rotational               0.889              2.981             31.194
 Vibrational            134.481             41.344             42.408
 Vibration     1          0.594              1.981              5.198
 Vibration     2          0.596              1.977              4.741
 Vibration     3          0.599              1.966              4.042
 Vibration     4          0.602              1.957              3.675
 Vibration     5          0.614              1.915              2.832
 Vibration     6          0.617              1.906              2.712
 Vibration     7          0.636              1.847              2.181
 Vibration     8          0.639              1.836              2.106
 Vibration     9          0.647              1.811              1.961
 Vibration    10          0.654              1.790              1.851
 Vibration    11          0.663              1.763              1.730
 Vibration    12          0.693              1.671              1.409
 Vibration    13          0.708              1.628              1.290
 Vibration    14          0.762              1.481              0.981
 Vibration    15          0.789              1.411              0.867
 Vibration    16          0.832              1.305              0.723
 Vibration    17          0.893              1.165              0.569
 Vibration    18          0.915              1.118              0.524

 Optimization completed.
    -- Stationary point found.

 1\1\GINC-NODE220\Freq\RB3LYP\6-31G(d)\C9H12O4\VSC10255\09-Dec-2020\0\\
 #N Geom=AllCheck Guess=TCheck SCRF=Check GenChk RB3LYP/6-31G(d) Freq\\
 CID_20469324_JID_3089_neutraal\\0,1\C,-0.024262334,-1.9366299113,0.860
 016385\C,0.2437221067,-1.0836125451,-0.4061831831\C,-0.9930289353,-0.2
 358340377,-0.7152639961\O,-1.8225985649,-0.6156944381,-1.5158074045\C,
 -1.1241437559,1.0710420997,0.0504544139\C,0.1894141799,1.8673678249,0.
 0379121408\C,1.3558188324,1.0310051639,0.6047810072\C,1.5131711642,-0.
 2610426055,-0.2073076505\O,2.5802357551,-0.6247341141,-0.654934636\C,2

 Normal termination of Gaussian 16 at Wed Dec  9 22:29:26 2020.

 ----------------------------------------------------------------------
 # B3LYP/6-311++G(d,p) empiricaldispersion=gd3bj scf=xqc pop=npa geom=c
 heck
 ----------------------------------------------------------------------

 --------------------------------------
 CID_20469324_JID_3089_Energie_neutraal
 --------------------------------------
 Structure from the checkpoint file:  "JID_3089.chk"
 Charge =  0 Multiplicity = 1

 SCF Done:  E(RB3LYP) =  -651.321438182     A.U. after   14 cycles
 Normal termination of Gaussian 16 at Wed Dec  9 22:31:50 2020.

 ----------------------------------------------------------------------
 # B3LYP/6-311++G(d,p) empiricaldispersion=gd3bj scf=xqc pop=npa geom=c
 heck
 ----------------------------------------------------------------------

 ------------------------------------
 CID_20469324_JID_3089_Energie_kation
 ------------------------------------
 Structure from the checkpoint file:  "JID_3089.chk"
 Charge =  1 Multiplicity = 2

 SCF Done:  E(UB3LYP) =  -650.983867321     A.U. after   23 cycles
 Normal termination of Gaussian 16 at Wed Dec  9 22:37:05 2020.
 Gaussian 16:  ES64L-G16RevA.03 25-Dec-2016

 -----------------------------------
 CID_20469324_JID_3089_Energie_anion
 -----------------------------------
 Structure from the checkpoint file:  "JID_3089.chk"
 Charge = -1 Multiplicity = 2

                         Standard orientation:
 ---------------------------------------------------------------------
 Center     Atomic      Atomic             Coordinates (Angstroms)
 Number     Number       Type             X           Y           Z
 ---------------------------------------------------------------------
      1          6           0        2.395406    1.655545    0.762269
      2          6           0        1.809930    0.807470   -0.395618
      3          6           0        2.359225   -0.618678   -0.305122
      4          8           0        3.328975   -0.953424   -0.953876
      5          6           0        1.642364   -1.558756    0.650810
      6          6           0        0.118290   -1.494237    0.469805
      7          6           0       -0.405153   -0.053188    0.645097
      8          6           0        0.286323    0.877936   -0.359146
      9          8           0       -0.329841    1.639786   -1.074124
     10          6           0       -1.911393    0.077929    0.514951
     11          8           0       -2.614730    0.698835    1.278600
     12          8           0       -2.363628   -0.583237   -0.566707
     13          6           0       -3.770272   -0.441406   -0.825259
     14          1           0        2.043201    2.687964    0.680761
     15          1           0        2.102412    1.268979    1.743685
     16          1           0        3.487645    1.651308    0.702933
     17          1           0        2.139888    1.237811   -1.344948
     18          1           0        2.028025   -2.568575    0.490360
     19          1           0        1.899856   -1.264811    1.679188
     20          1           0       -0.160727   -1.857975   -0.524447
     21          1           0       -0.369909   -2.149813    1.197820
     22          1           0       -0.151757    0.301004    1.652453
     23          1           0       -4.354101   -0.813202    0.020484
     24          1           0       -4.015240    0.609459   -0.996670
     25          1           0       -3.963817   -1.033511   -1.719489
 ---------------------------------------------------------------------

 SCF Done:  E(UB3LYP) =  -651.324130456     A.U. after   30 cycles

 The electronic state is 2-A.
 Alpha  occ. eigenvalues --  -19.06183 -19.00067 -18.96525 -18.96441 -10.18841
 Alpha  occ. eigenvalues --  -10.12744 -10.10925 -10.10622 -10.06853 -10.05700
 Alpha  occ. eigenvalues --  -10.05353 -10.05172 -10.04978  -1.00125  -0.91236
 Alpha  occ. eigenvalues --   -0.90654  -0.90169  -0.70970  -0.66084  -0.63591
 Alpha  occ. eigenvalues --   -0.59820  -0.54233  -0.50407  -0.47126  -0.43580
 Alpha  occ. eigenvalues --   -0.40811  -0.39017  -0.38129  -0.36376  -0.34261
 Alpha  occ. eigenvalues --   -0.33846  -0.32238  -0.31500  -0.30765  -0.29855
 Alpha  occ. eigenvalues --   -0.28869  -0.28413  -0.27401  -0.26272  -0.25649
 Alpha  occ. eigenvalues --   -0.24314  -0.24004  -0.23015  -0.22259  -0.20798
 Alpha  occ. eigenvalues --   -0.20176  -0.16759  -0.12202  -0.10622   0.04851
 Alpha virt. eigenvalues --    0.07227   0.08545   0.09644   0.10362   0.10730
 Alpha virt. eigenvalues --    0.11123   0.11547   0.11789   0.12147   0.12852
 Alpha virt. eigenvalues --    0.13085   0.13576   0.14537   0.14964   0.16353

  Beta  occ. eigenvalues --  -19.06182 -19.00061 -18.96211 -18.96169 -10.18839
  Beta  occ. eigenvalues --  -10.12737 -10.10648 -10.10381 -10.06876 -10.05624
  Beta  occ. eigenvalues --  -10.05398 -10.05048 -10.04991  -1.00121  -0.91226
  Beta  occ. eigenvalues --   -0.90087  -0.89642  -0.70740  -0.65890  -0.63495
  Beta  occ. eigenvalues --   -0.59670  -0.53906  -0.50272  -0.47009  -0.43147
  Beta  occ. eigenvalues --   -0.40527  -0.38899  -0.38074  -0.36263  -0.34100
  Beta  occ. eigenvalues --   -0.33636  -0.31857  -0.31181  -0.30542  -0.29432
  Beta  occ. eigenvalues --   -0.28806  -0.28027  -0.27293  -0.26184  -0.25449
  Beta  occ. eigenvalues --   -0.24147  -0.23517  -0.22361  -0.21516  -0.20198
  Beta  occ. eigenvalues --   -0.19755  -0.16737  -0.12012  -0.10266
  Beta virt. eigenvalues --    0.07186   0.08809   0.09257   0.10322   0.10779
  Beta virt. eigenvalues --    0.11137   0.11684   0.11735   0.12207   0.12896
  Beta virt. eigenvalues --    0.13165   0.13409   0.14313   0.14709   0.14880

 Mulliken charges and spin densities:
               1          2
     1  C   -0.552556   0.009011
     2  C    0.549071   0.114208
     3  C   -0.234408   0.022091
     4  O   -0.364044   0.095119
     5  C    0.131237  -0.503929
     6  C    0.216454  -0.426865
     7  C    0.294659   0.045279
     8  C   -0.207020  -0.203472
     9  O   -0.325122   0.107783
    10  C   -0.410012   0.022197
    11  O   -0.249377   0.004998
    12  O   -0.019954   0.008885
    13  C   -0.061582  -0.165619
    14  H    0.125677   0.017982
    15  H    0.125325   0.009974
    16  H    0.153485   0.007136
    17  H    0.227795   0.006356
    18  H    0.128251   0.055598
    19  H   -0.213317   0.381697
    20  H    0.172390  -0.014536
    21  H   -0.706219   0.904838
    22  H   -0.040568   0.288724
    23  H    0.057508   0.106244
    24  H    0.149828   0.023921
    25  H    0.052499   0.082380
 Sum of Mulliken charges =  -1.00000   1.00000

 Dipole moment (field-independent basis, Debye):
    X=             -2.7291    Y=              0.9197    Z=             -1.3562  Tot=              3.1833
 Quadrupole moment (field-independent basis, Debye-Ang):
   XX=           -113.7991   YY=           -102.1988   ZZ=           -103.6656
   XY=              9.0202   XZ=             11.6892   YZ=              6.6688

 Summary of Natural Population Analysis:

                                       Natural Population
                Natural  -----------------------------------------------
    Atom  No    Charge         Core      Valence    Rydberg      Total
 -----------------------------------------------------------------------
      C    1   -0.26250      0.99964     2.25824    0.00462     3.26250
      C    2   -0.19315      0.99952     2.18086    0.01277     3.19315
      C    3    0.32732      0.99964     1.64971    0.02334     2.67268
      O    4   -0.27641      0.99987     3.26940    0.00714     4.27641
      C    5   -0.23801      0.99958     2.22845    0.00998     3.23801
      C    6   -0.18095      0.99961     2.17193    0.00940     3.18095
      C    7   -0.19979      0.99949     2.18795    0.01235     3.19979
      C    8    0.33759      0.99963     1.63908    0.02370     2.66241
      O    9   -0.26875      0.99987     3.26220    0.00667     4.26875
      C   10    0.42515      0.99967     1.54646    0.02872     2.57485
      O   11   -0.30821      0.99987     3.30298    0.00536     4.30821
      O   12   -0.27612      0.99986     3.26800    0.00827     4.27612
      C   13   -0.10448      0.99960     2.09697    0.00791     3.10448
      H   14    0.09834      0.00000     0.40085    0.00081     0.40166
      H   15    0.09517      0.00000     0.40409    0.00074     0.40483
      H   16    0.09819      0.00000     0.40099    0.00082     0.40181
      H   17    0.11260      0.00000     0.38585    0.00155     0.38740
      H   18    0.10701      0.00000     0.39186    0.00113     0.39299
      H   19    0.10885      0.00000     0.38874    0.00241     0.39115
      H   20    0.10159      0.00000     0.39682    0.00159     0.39841
      H   21    0.10665      0.00000     0.38816    0.00519     0.39335
      H   22    0.12022      0.00000     0.37796    0.00183     0.37978
      H   23    0.08938      0.00000     0.40932    0.00130     0.41062
      H   24    0.09203      0.00000     0.40688    0.00110     0.40797
      H   25    0.08828      0.00000     0.41083    0.00089     0.41172
 =======================================================================
   * Total *   -0.00000     12.99585    35.82458    0.17957    49.00000

 Normal termination of Gaussian 16 at Wed Dec  9 22:43:52 2020.
