 Gaussian 16, Revision A.03,

 -----------------------------------------------------------
 # opt freq B3LYP/6-31G(d) empiricaldispersion=gd3bj scf=xqc
 -----------------------------------------------------------

 ------------------------------
 CID_69916342_JID_6958_neutraal
 ------------------------------
 Symbolic Z-matrix:
 Charge =  0 Multiplicity = 1

 SCF Done:  E(RB3LYP) =  -722.121981496     A.U. after   15 cycles
 SCF Done:  E(RB3LYP) =  -722.125279957     A.U. after   12 cycles
 SCF Done:  E(RB3LYP) =  -722.125422565     A.U. after   11 cycles
 SCF Done:  E(RB3LYP) =  -722.125432652     A.U. after    9 cycles
 SCF Done:  E(RB3LYP) =  -722.125433695     A.U. after    8 cycles
 SCF Done:  E(RB3LYP) =  -722.125433708     A.U. after    7 cycles
 Optimization completed.
    -- Stationary point found.
 Normal termination of Gaussian 16 at Fri Dec 11 01:09:22 2020.

 --------------------------------------------------------------------
 #N Geom=AllCheck Guess=TCheck SCRF=Check GenChk RB3LYP/6-31G(d) Freq
 --------------------------------------------------------------------

 Structure from the checkpoint file:  "JID_6958.chk"
 ------------------------------
 CID_69916342_JID_6958_neutraal
 ------------------------------
 Charge =  0 Multiplicity = 1

 SCF Done:  E(RB3LYP) =  -722.125433708     A.U. after    1 cycles

  Exact polarizability: 236.095   9.975 146.335   0.002   0.002  47.367
 Approx polarizability: 343.887  12.497 285.372  -0.001   0.002  75.961

                      1                      2                      3
                      A                      A                      A
 Frequencies --     58.3812                76.3752               128.2410
 Red. masses --      7.6367                 5.6205                 6.4145
 Frc consts  --      0.0153                 0.0193                 0.0622
 IR Inten    --      0.5206                 0.2063                 3.0006

                      4                      5                      6
                      A                      A                      A
 Frequencies --    134.5210               189.1315               248.2151
 Red. masses --      6.2548                 3.2293                 5.0586
 Frc consts  --      0.0667                 0.0681                 0.1836
 IR Inten    --      6.1841                15.6261                 8.0959

                      7                      8                      9
                      A                      A                      A
 Frequencies --    256.4730               304.7338               318.2218
 Red. masses --      1.3291                 5.1489                 6.2129
 Frc consts  --      0.0515                 0.2817                 0.3707
 IR Inten    --    206.2930                17.9970                 1.6956

                     10                     11                     12
                      A                      A                      A
 Frequencies --    360.6210               433.7910               449.6220
 Red. masses --      6.5509                 3.2224                 3.0841
 Frc consts  --      0.5019                 0.3573                 0.3673
 IR Inten    --      3.2198                 5.7679                 1.9663

                     13                     14                     15
                      A                      A                      A
 Frequencies --    467.2590               488.7375               561.4732
 Red. masses --      4.9056                 7.6709                 4.4276
 Frc consts  --      0.6310                 1.0796                 0.8224
 IR Inten    --      2.3331                 4.4155                 0.0178

                     16                     17                     18
                      A                      A                      A
 Frequencies --    574.1488               585.1183               599.6152
 Red. masses --      4.1842                 5.8806                 2.8845
 Frc consts  --      0.8127                 1.1862                 0.6110
 IR Inten    --      0.0119                38.7867                16.4077

                     19                     20                     21
                      A                      A                      A
 Frequencies --    643.4485               651.6107               662.9676
 Red. masses --      6.3440                 6.0890                 1.5115
 Frc consts  --      1.5475                 1.5232                 0.3914
 IR Inten    --      3.6360                17.6653                 0.1555

                     22                     23                     24
                      A                      A                      A
 Frequencies --    735.0467               756.8234               762.8907
 Red. masses --      3.8163                 6.1458                 2.0660
 Frc consts  --      1.2149                 2.0740                 0.7084
 IR Inten    --     13.9581                 3.7318                35.0374

                     25                     26                     27
                      A                      A                      A
 Frequencies --    774.5919               800.7730               807.9029
 Red. masses --      2.3012                 5.3253                 5.4697
 Frc consts  --      0.8135                 2.0119                 2.1034
 IR Inten    --     13.3229                 7.6473                 3.1967

                     28                     29                     30
                      A                      A                      A
 Frequencies --    865.6923               872.2157               901.1635
 Red. masses --      6.7338                 1.3946                 7.8968
 Frc consts  --      2.9733                 0.6251                 3.7784
 IR Inten    --     23.5014                 0.0801                 6.6549

                     31                     32                     33
                      A                      A                      A
 Frequencies --    922.3854               942.5123               944.5595
 Red. masses --      1.4546                 1.3450                 1.3962
 Frc consts  --      0.7292                 0.7039                 0.7339
 IR Inten    --     10.7299                 3.7030                 3.0922

                     34                     35                     36
                      A                      A                      A
 Frequencies --    981.8513              1036.1246              1048.0405
 Red. masses --      1.2520                 3.0466                 1.9790
 Frc consts  --      0.7111                 1.9270                 1.2807
 IR Inten    --      0.0168                 8.8467                24.0616

                     37                     38                     39
                      A                      A                      A
 Frequencies --   1107.3468              1125.3009              1153.6179
 Red. masses --      1.9161                 2.3617                 1.8037
 Frc consts  --      1.3843                 1.7620                 1.4143
 IR Inten    --      5.3096                 6.9524                 2.2515

                     40                     41                     42
                      A                      A                      A
 Frequencies --   1185.7527              1219.3467              1231.1585
 Red. masses --      1.2673                 3.0994                 3.2096
 Frc consts  --      1.0498                 2.7151                 2.8664
 IR Inten    --      9.8767                34.9913                96.7990

                     43                     44                     45
                      A                      A                      A
 Frequencies --   1288.7803              1292.0621              1334.5089
 Red. masses --      2.1102                 1.9889                 1.9070
 Frc consts  --      2.0651                 1.9563                 2.0010
 IR Inten    --     16.9093                 4.2936                 5.7722

                     46                     47                     48
                      A                      A                      A
 Frequencies --   1347.3963              1374.9187              1396.1428
 Red. masses --      7.5172                 3.7224                 5.6894
 Frc consts  --      8.0407                 4.1460                 6.5340
 IR Inten    --      5.6920               203.1851                91.2173

                     49                     50                     51
                      A                      A                      A
 Frequencies --   1459.0744              1495.1027              1508.2183
 Red. masses --      4.1048                 2.7231                 2.8369
 Frc consts  --      5.1487                 3.5863                 3.8021
 IR Inten    --     22.7742                28.2855                30.8558

                     52                     53                     54
                      A                      A                      A
 Frequencies --   1531.7430              1611.4010              1620.9464
 Red. masses --      2.9747                 1.5058                 6.2384
 Frc consts  --      4.1121                 2.3037                 9.6575
 IR Inten    --      6.9918               307.0565                27.1928

                     55                     56                     57
                      A                      A                      A
 Frequencies --   1644.8543              1650.4964              1686.6829
 Red. masses --      6.5693                 6.9688                 7.6011
 Frc consts  --     10.4719                11.1851                12.7407
 IR Inten    --      4.7896                 2.2864                40.0242

                     58                     59                     60
                      A                      A                      A
 Frequencies --   1795.8197              3196.6846              3200.4294
 Red. masses --      9.6676                 1.0863                 1.0920
 Frc consts  --     18.3694                 6.5400                 6.5902
 IR Inten    --    248.6078                 0.8533                13.6678

                     61                     62                     63
                      A                      A                      A
 Frequencies --   3207.0022              3218.4427              3230.9387
 Red. masses --      1.0903                 1.0955                 1.0950
 Frc consts  --      6.6070                 6.6856                 6.7347
 IR Inten    --      8.4437                18.6708                 7.4160

                     64                     65                     66
                      A                      A                      A
 Frequencies --   3242.3149              3591.7989              3729.5662
 Red. masses --      1.0919                 1.0442                 1.1059
 Frc consts  --      6.7628                 7.9371                 9.0632
 IR Inten    --      0.7122                44.4811                79.0481

 - Thermochemistry -
 -------------------
 Temperature   298.150 Kelvin.  Pressure   1.00000 Atm.
 Atom     1 has atomic number  6 and mass  12.00000

 Molecular mass:   212.05858 amu.
 Principal axes and moments of inertia in atomic units:
                           1         2         3
     Eigenvalues --  1197.215315970.222167167.43741
           X            0.99994   0.01108   0.00000
           Y           -0.01108   0.99994   0.00000
           Z           -0.00000  -0.00000   1.00000
 This molecule is an asymmetric top.
 Rotational symmetry number  1.
 Warning -- assumption of classical behavior for rotation
           may cause significant error
 Rotational temperatures (Kelvin)      0.07235     0.01451     0.01208
 Rotational constants (GHZ):           1.50745     0.30229     0.25180
 Zero-point vibrational energy     472663.3 (Joules/Mol)
                                  112.96924 (Kcal/Mol)
 Warning -- explicit consideration of  18 degrees of freedom as
           vibrations may cause significant error
 Vibrational temperatures:     84.00   109.89   184.51   193.55   272.12
          (Kelvin)            357.13   369.01   438.44   457.85   518.85
                              624.13   646.91   672.28   703.18   807.83
                              826.07   841.85   862.71   925.78   937.52
                              953.86  1057.57  1088.90  1097.63  1114.46
                             1152.13  1162.39  1245.54  1254.92  1296.57
                             1327.11  1356.06  1359.01  1412.67  1490.75
                             1507.90  1593.23  1619.06  1659.80  1706.03
                             1754.37  1771.36  1854.27  1858.99  1920.06
                             1938.60  1978.20  2008.74  2099.28  2151.12
                             2169.99  2203.84  2318.45  2332.18  2366.58
                             2374.70  2426.76  2583.78  4599.32  4604.70
                             4614.16  4630.62  4648.60  4664.97  5167.80
                             5366.01

 Zero-point correction=                           0.180028 (Hartree/Particle)
 Thermal correction to Energy=                    0.191775
 Thermal correction to Enthalpy=                  0.192719
 Thermal correction to Gibbs Free Energy=         0.141785
 Sum of electronic and zero-point Energies=           -721.945406
 Sum of electronic and thermal Energies=              -721.933659
 Sum of electronic and thermal Enthalpies=            -721.932715
 Sum of electronic and thermal Free Energies=         -721.983649

                     E (Thermal)             CV                S
                      KCal/Mol        Cal/Mol-Kelvin    Cal/Mol-Kelvin
 Total                  120.340             47.289            107.200
 Electronic               0.000              0.000              0.000
 Translational            0.889              2.981             41.959
 Rotational               0.889              2.981             32.305
 Vibrational            118.563             41.327             32.936
 Vibration     1          0.596              1.974              4.511
 Vibration     2          0.599              1.965              3.982
 Vibration     3          0.611              1.925              2.972
 Vibration     4          0.613              1.919              2.880
 Vibration     5          0.633              1.855              2.236
 Vibration     6          0.662              1.766              1.743
 Vibration     7          0.666              1.752              1.686
 Vibration     8          0.696              1.665              1.391
 Vibration     9          0.705              1.639              1.319
 Vibration    10          0.735              1.553              1.119
 Vibration    11          0.795              1.397              0.846
 Vibration    12          0.809              1.362              0.797
 Vibration    13          0.825              1.323              0.745
 Vibration    14          0.845              1.275              0.687
 Vibration    15          0.917              1.115              0.521
 Vibration    16          0.930              1.087              0.496
 Vibration    17          0.942              1.064              0.476
 Vibration    18          0.958              1.033              0.450

 Optimization completed.
    -- Stationary point found.
 Normal termination of Gaussian 16 at Fri Dec 11 01:16:06 2020.

 ----------------------------------------------------------------------
 # B3LYP/6-311++G(d,p) empiricaldispersion=gd3bj scf=xqc pop=npa geom=c
 heck
 ----------------------------------------------------------------------

 --------------------------------------
 CID_69916342_JID_6958_Energie_neutraal
 --------------------------------------
 Structure from the checkpoint file:  "JID_6958.chk"
 Charge =  0 Multiplicity = 1

 SCF Done:  E(RB3LYP) =  -722.319847381     A.U. after   15 cycles
 Normal termination of Gaussian 16 at Fri Dec 11 01:18:23 2020.

 ----------------------------------------------------------------------
 # B3LYP/6-311++G(d,p) empiricaldispersion=gd3bj scf=xqc pop=npa geom=c
 heck
 ----------------------------------------------------------------------

 ------------------------------------
 CID_69916342_JID_6958_Energie_kation
 ------------------------------------
 Structure from the checkpoint file:  "JID_6958.chk"
 Charge =  1 Multiplicity = 2

 SCF Done:  E(UB3LYP) =  -722.005030903     A.U. after   33 cycles
 SCF Done:  E(UB3LYP) =  -722.005030903     a.u. after    1 cycles
 Normal termination of Gaussian 16 at Fri Dec 11 01:25:11 2020.
 Gaussian 16:  ES64L-G16RevA.03 25-Dec-2016

 ----------------------------------------------------------------------
 # B3LYP/6-311++G(d,p) empiricaldispersion=gd3bj scf=xqc pop=npa geom=c
 heck
 ----------------------------------------------------------------------

 -----------------------------------
 CID_69916342_JID_6958_Energie_anion
 -----------------------------------
 Structure from the checkpoint file:  "JID_6958.chk"
 Charge = -1 Multiplicity = 2

                         Standard orientation:
 ---------------------------------------------------------------------
 Center     Atomic      Atomic             Coordinates (Angstroms)
 Number     Number       Type             X           Y           Z
 ---------------------------------------------------------------------
      1          6           0        3.685242    1.638486   -0.000021
      2          6           0        4.356019    0.403256   -0.000110
      3          6           0        3.659645   -0.806185   -0.000127
      4          6           0        2.275338   -0.722163   -0.000052
      5          6           0        1.575867    0.500511    0.000037
      6          6           0        2.294138    1.700477    0.000053
      7          6           0        0.171116    0.138847    0.000088
      8          6           0       -1.049317    0.811331    0.000178
      9          6           0       -2.204302    0.028209    0.000210
     10          7           0       -2.208615   -1.321225    0.000142
     11          6           0       -1.046231   -1.977798    0.000072
     12          6           0        0.147463   -1.268803    0.000037
     13          8           0        1.412774   -1.800898   -0.000051
     14          6           0       -3.540884    0.726979    0.000407
     15          8           0       -3.626673    1.950976   -0.000221
     16          7           0       -4.603961   -0.115541   -0.000327
     17          1           0        4.263287    2.557295   -0.000010
     18          1           0        5.441712    0.387291   -0.000166
     19          1           0        4.166021   -1.764918   -0.000194
     20          1           0        1.777399    2.655242    0.000121
     21          1           0       -1.142520    1.890889    0.000251
     22          1           0       -1.069972   -3.064208    0.000034
     23          1           0       -4.445531   -1.113219   -0.000366
     24          1           0       -5.535727    0.269482   -0.000848
 ---------------------------------------------------------------------

 SCF Done:  E(UB3LYP) =  -722.337490283     A.U. after   22 cycles

 The electronic state is 2-A.
 Alpha  occ. eigenvalues --  -19.05067 -18.96393 -14.21363 -14.15493 -10.14834
 Alpha  occ. eigenvalues --  -10.09954 -10.09379 -10.06786 -10.05842 -10.04436
 Alpha  occ. eigenvalues --  -10.04193 -10.04139 -10.03841 -10.03807 -10.03750
 Alpha  occ. eigenvalues --  -10.03621  -0.97572  -0.91394  -0.80545  -0.78267
 Alpha  occ. eigenvalues --   -0.72654  -0.67807  -0.63623  -0.61440  -0.61148
 Alpha  occ. eigenvalues --   -0.53124  -0.52043  -0.47740  -0.45926  -0.45798
 Alpha  occ. eigenvalues --   -0.42813  -0.39956  -0.39103  -0.36655  -0.34415
 Alpha  occ. eigenvalues --   -0.33271  -0.32310  -0.31773  -0.30761  -0.29988
 Alpha  occ. eigenvalues --   -0.29813  -0.28549  -0.27172  -0.24508  -0.24502
 Alpha  occ. eigenvalues --   -0.22857  -0.22749  -0.21114  -0.17675  -0.15728
 Alpha  occ. eigenvalues --   -0.14915  -0.13443  -0.12125  -0.10841  -0.10422
 Alpha  occ. eigenvalues --    0.03922
 Alpha virt. eigenvalues --    0.08204   0.08452   0.09007   0.09861   0.10354
 Alpha virt. eigenvalues --    0.11368   0.11942   0.12522   0.13059   0.13643
 Alpha virt. eigenvalues --    0.14757   0.15446   0.15816   0.16780   0.17273

  Beta  occ. eigenvalues --  -19.05012 -18.96360 -14.21374 -14.14953 -10.14821
  Beta  occ. eigenvalues --  -10.09948 -10.09367 -10.06849 -10.05689 -10.04532
  Beta  occ. eigenvalues --  -10.04158 -10.04043 -10.03659 -10.03584 -10.03554
  Beta  occ. eigenvalues --  -10.03342  -0.97476  -0.91345  -0.80072  -0.78036
  Beta  occ. eigenvalues --   -0.72352  -0.67284  -0.63334  -0.61180  -0.60709
  Beta  occ. eigenvalues --   -0.52925  -0.51550  -0.47605  -0.45673  -0.45589
  Beta  occ. eigenvalues --   -0.42770  -0.39815  -0.38878  -0.36431  -0.34287
  Beta  occ. eigenvalues --   -0.32801  -0.32141  -0.31613  -0.30636  -0.29771
  Beta  occ. eigenvalues --   -0.29716  -0.28372  -0.27039  -0.24376  -0.23320
  Beta  occ. eigenvalues --   -0.22737  -0.21907  -0.20972  -0.16151  -0.15485
  Beta  occ. eigenvalues --   -0.14741  -0.12551  -0.11674  -0.09623  -0.09293
  Beta virt. eigenvalues --    0.08199   0.08417   0.09359   0.09450   0.09808
  Beta virt. eigenvalues --    0.10325   0.11341   0.12478   0.12548   0.13050
  Beta virt. eigenvalues --    0.14726   0.14949   0.15429   0.15997   0.16893

 Mulliken charges and spin densities:
               1          2
     1  C   -0.069733  -0.069694
     2  C   -0.460002   0.203118
     3  C   -0.753781   0.060050
     4  C   -0.334239   0.001163
     5  C    1.252305  -0.005049
     6  C   -0.768016   0.244265
     7  C    1.286014   0.114616
     8  C   -0.349313   0.138741
     9  C   -0.648216  -0.056646
    10  N   -0.124186   0.241915
    11  C   -0.380229   0.144647
    12  C   -0.208610   0.014633
    13  O   -0.123932   0.016207
    14  C    0.170661   0.001206
    15  O   -0.413910   0.009385
    16  N   -0.432317  -0.003758
    17  H    0.122332   0.005223
    18  H    0.105670  -0.016401
    19  H    0.128816  -0.007101
    20  H    0.082484  -0.016165
    21  H    0.198449  -0.006559
    22  H    0.144383  -0.011714
    23  H    0.270528  -0.001950
    24  H    0.304843  -0.000131
 Sum of Mulliken charges =  -1.00000   1.00000

 Dipole moment (field-independent basis, Debye):
    X=             -0.2130    Y=             -1.6799    Z=             -0.0003  Tot=              1.6933
 Quadrupole moment (field-independent basis, Debye-Ang):
   XX=           -128.7289   YY=           -109.4767   ZZ=           -101.8005
   XY=              8.2408   XZ=              0.0030   YZ=              0.0022

 Summary of Natural Population Analysis:

                                       Natural Population
                Natural  -----------------------------------------------
    Atom  No    Charge         Core      Valence    Rydberg      Total
 -----------------------------------------------------------------------
      C    1   -0.14315      0.99961     2.13362    0.00993     3.14315
      C    2   -0.05516      0.99959     2.04628    0.00929     3.05516
      C    3   -0.12136      0.99952     2.11278    0.00906     3.12136
      C    4    0.16464      0.99935     1.82309    0.01291     2.83536
      C    5   -0.04833      0.99937     2.03994    0.00903     3.04833
      C    6   -0.03129      0.99943     2.02335    0.00851     3.03129
      C    7   -0.01112      0.99949     2.00291    0.00871     3.01112
      C    8   -0.06638      0.99942     2.05879    0.00817     3.06638
      C    9    0.02183      0.99950     1.96527    0.01339     2.97817
      N   10   -0.18019      0.99967     2.66788    0.01264     3.68019
      C   11    0.02394      0.99955     1.96251    0.01399     2.97606
      C   12    0.15511      0.99935     1.83358    0.01197     2.84489
      O   13   -0.24628      0.99985     3.23718    0.00925     4.24628
      C   14    0.32547      0.99966     1.65233    0.02254     2.67453
      O   15   -0.33462      0.99988     3.32765    0.00709     4.33462
      N   16   -0.40990      0.99971     2.90291    0.00728     3.90990
      H   17    0.09163      0.00000     0.40726    0.00111     0.40837
      H   18    0.08770      0.00000     0.41125    0.00105     0.41230
      H   19    0.09755      0.00000     0.40100    0.00145     0.40245
      H   20    0.09250      0.00000     0.40543    0.00207     0.40750
      H   21    0.11083      0.00000     0.38833    0.00084     0.38917
      H   22    0.08406      0.00000     0.41467    0.00126     0.41594
      H   23    0.20713      0.00000     0.29090    0.00197     0.29287
      H   24    0.18540      0.00000     0.31130    0.00330     0.31460
 =======================================================================
   * Total *    0.00001     15.99296    38.82022    0.18682    54.99999

 Normal termination of Gaussian 16 at Fri Dec 11 01:30:02 2020.
