 Gaussian 16, Revision A.03,

 -----------------------------------------------------------
 # opt freq B3LYP/6-31G(d) empiricaldispersion=gd3bj scf=xqc
 -----------------------------------------------------------

 -------------------------------
 CID_125432256_JID_4867_neutraal
 -------------------------------
 Symbolic Z-matrix:
 Charge =  0 Multiplicity = 1

 SCF Done:  E(RB3LYP) =  -2028.00988938     A.U. after   15 cycles
 SCF Done:  E(RB3LYP) =  -2028.01606039     A.U. after   13 cycles
 SCF Done:  E(RB3LYP) =  -2028.01696584     A.U. after   13 cycles
 SCF Done:  E(RB3LYP) =  -2028.01730926     A.U. after   13 cycles
 SCF Done:  E(RB3LYP) =  -2028.01738352     A.U. after   13 cycles
 SCF Done:  E(RB3LYP) =  -2028.01749309     A.U. after   11 cycles
 SCF Done:  E(RB3LYP) =  -2028.01754398     A.U. after   12 cycles
 SCF Done:  E(RB3LYP) =  -2028.01756201     A.U. after   11 cycles
 SCF Done:  E(RB3LYP) =  -2028.01756775     A.U. after    9 cycles
 SCF Done:  E(RB3LYP) =  -2028.01757697     A.U. after   10 cycles
 SCF Done:  E(RB3LYP) =  -2028.01758465     A.U. after   10 cycles
 SCF Done:  E(RB3LYP) =  -2028.01759217     A.U. after   10 cycles
 SCF Done:  E(RB3LYP) =  -2028.01760160     A.U. after   11 cycles
 SCF Done:  E(RB3LYP) =  -2028.01760724     A.U. after   10 cycles
 SCF Done:  E(RB3LYP) =  -2028.01760998     A.U. after   10 cycles
 SCF Done:  E(RB3LYP) =  -2028.01761101     A.U. after    9 cycles
 Optimization completed.
    -- Stationary point found.
 Normal termination of Gaussian 16 at Thu Dec 10 10:46:21 2020.

 --------------------------------------------------------------------
 #N Geom=AllCheck Guess=TCheck SCRF=Check GenChk RB3LYP/6-31G(d) Freq
 --------------------------------------------------------------------

 Structure from the checkpoint file:  "JID_4867.chk"
 -------------------------------
 CID_125432256_JID_4867_neutraal
 -------------------------------
 Charge =  0 Multiplicity = 1

 SCF Done:  E(RB3LYP) =  -2028.01761101     A.U. after    1 cycles

  Exact polarizability: 332.862   3.846 156.199   2.135   2.803  77.395
 Approx polarizability: 520.936  15.354 279.511   6.913  11.591 128.369

                      1                      2                      3
                      A                      A                      A
 Frequencies --     29.3696                46.1687                64.7689
 Red. masses --      7.8390                 7.6279                 1.2336
 Frc consts  --      0.0040                 0.0096                 0.0030
 IR Inten    --      0.4208                 0.6763                 0.0672

                      4                      5                      6
                      A                      A                      A
 Frequencies --     77.7251               108.4970               120.9624
 Red. masses --     10.6723                 4.1407                 5.1249
 Frc consts  --      0.0380                 0.0287                 0.0442
 IR Inten    --      1.1606                 0.7549                 0.6925

                      7                      8                      9
                      A                      A                      A
 Frequencies --    201.3213               209.9879               233.0136
 Red. masses --      1.3987                 7.6630                 8.0488
 Frc consts  --      0.0334                 0.1991                 0.2575
 IR Inten    --      0.3337                 0.9840                 0.7369

                     10                     11                     12
                      A                      A                      A
 Frequencies --    243.3183               260.4898               278.5703
 Red. masses --      2.6993                 6.3927                 8.0071
 Frc consts  --      0.0942                 0.2556                 0.3661
 IR Inten    --      1.0800                 1.0040                 3.3122

                     13                     14                     15
                      A                      A                      A
 Frequencies --    336.2557               372.3076               386.0112
 Red. masses --      8.4240                 2.5335                 8.9660
 Frc consts  --      0.5612                 0.2069                 0.7871
 IR Inten    --      0.6716                 2.2295                 0.9257

                     16                     17                     18
                      A                      A                      A
 Frequencies --    422.1626               485.8948               515.2506
 Red. masses --     12.4249                 7.4237                 7.7778
 Frc consts  --      1.3047                 1.0327                 1.2166
 IR Inten    --     14.5639                21.5363                 7.5548

                     19                     20                     21
                      A                      A                      A
 Frequencies --    529.3003               546.7002               558.5613
 Red. masses --      5.1663                 6.4162                 7.3779
 Frc consts  --      0.8528                 1.1299                 1.3562
 IR Inten    --      9.1741                12.5327                 5.4380

                     22                     23                     24
                      A                      A                      A
 Frequencies --    573.5831               612.9193               636.7094
 Red. masses --      1.9968                 2.9831                 7.7403
 Frc consts  --      0.3871                 0.6603                 1.8488
 IR Inten    --     42.5750                22.4064                16.2879

                     25                     26                     27
                      A                      A                      A
 Frequencies --    637.6290               655.9462               726.3497
 Red. masses --      5.6934                 6.5634                 9.5845
 Frc consts  --      1.3638                 1.6639                 2.9793
 IR Inten    --     10.8817                 3.4153                92.8698

                     28                     29                     30
                      A                      A                      A
 Frequencies --    877.9206               963.4603               985.3486
 Red. masses --      5.3189                 6.5032                 4.9111
 Frc consts  --      2.4154                 3.5567                 2.8094
 IR Inten    --      3.9852                16.5841                 9.7411

                     31                     32                     33
                      A                      A                      A
 Frequencies --   1055.1083              1074.9457              1087.4345
 Red. masses --      1.9839                 1.4786                11.0752
 Frc consts  --      1.3013                 1.0066                 7.7163
 IR Inten    --     10.7181                 1.6355               104.4070

                     34                     35                     36
                      A                      A                      A
 Frequencies --   1139.8648              1149.8339              1158.9798
 Red. masses --      4.2330                 1.9339                 1.3201
 Frc consts  --      3.2404                 1.5064                 1.0447
 IR Inten    --     32.0717               220.9191                 1.7634

                     37                     38                     39
                      A                      A                      A
 Frequencies --   1197.2613              1257.3933              1313.4105
 Red. masses --      6.0645                 3.3653                 5.8962
 Frc consts  --      5.1218                 3.1349                 5.9927
 IR Inten    --     71.4313               412.8952                97.3906

                     40                     41                     42
                      A                      A                      A
 Frequencies --   1346.2350              1402.9569              1447.1584
 Red. masses --      8.1106                 4.3886                 1.2653
 Frc consts  --      8.6605                 5.0893                 1.5613
 IR Inten    --    362.9590               250.0883                17.9777

                     43                     44                     45
                      A                      A                      A
 Frequencies --   1476.7993              1484.9825              1497.8670
 Red. masses --      1.8481                 1.1504                 1.0724
 Frc consts  --      2.3748                 1.4947                 1.4177
 IR Inten    --    288.8867                 4.9222                14.5332

                     46                     47                     48
                      A                      A                      A
 Frequencies --   1514.3315              1524.7875              1534.9247
 Red. masses --      1.1141                 1.0719                 1.0810
 Frc consts  --      1.5052                 1.4684                 1.5006
 IR Inten    --      4.4040                 2.7823                50.3788

                     49                     50                     51
                      A                      A                      A
 Frequencies --   1578.0410              1637.4885              3053.0447
 Red. masses --      7.9468                 6.5914                 1.0423
 Frc consts  --     11.6595                10.4131                 5.7240
 IR Inten    --     43.8514               167.2757                19.1640

                     52                     53                     54
                      A                      A                      A
 Frequencies --   3087.1286              3107.0422              3155.0763
 Red. masses --      1.0361                 1.1005                 1.1033
 Frc consts  --      5.8181                 6.2593                 6.4711
 IR Inten    --     21.1430                 9.5746                 4.6295

                     55                     56                     57
                      A                      A                      A
 Frequencies --   3189.6859              3205.7797              3627.0733
 Red. masses --      1.0962                 1.1026                 1.0800
 Frc consts  --      6.5713                 6.6762                 8.3709
 IR Inten    --      1.2631                 5.1341                81.2744

 - Thermochemistry -
 -------------------
 Temperature   298.150 Kelvin.  Pressure   1.00000 Atm.
 Atom     1 has atomic number  6 and mass  12.00000

 Molecular mass:   260.95228 amu.
 Principal axes and moments of inertia in atomic units:
                           1         2         3
     Eigenvalues --  1506.153898567.990099985.04609
           X            0.99992  -0.01221   0.00219
           Y            0.01222   0.99991  -0.00532
           Z           -0.00213   0.00535   0.99998
 This molecule is an asymmetric top.
 Rotational symmetry number  1.
 Warning -- assumption of classical behavior for rotation
           may cause significant error
 Rotational temperatures (Kelvin)      0.05751     0.01011     0.00867
 Rotational constants (GHZ):           1.19824     0.21064     0.18074
 Zero-point vibrational energy     370849.2 (Joules/Mol)
                                   88.63508 (Kcal/Mol)
 Warning -- explicit consideration of  23 degrees of freedom as
           vibrations may cause significant error
 Vibrational temperatures:     42.26    66.43    93.19   111.83   156.10
          (Kelvin)            174.04   289.66   302.13   335.25   350.08
                              374.79   400.80   483.80   535.67   555.38
                              607.40   699.09   741.33   761.55   786.58
                              803.65   825.26   881.85   916.08   917.41
                              943.76  1045.06  1263.13  1386.20  1417.70
                             1518.07  1546.61  1564.58  1640.01  1654.35
                             1667.51  1722.59  1809.11  1889.70  1936.93
                             2018.54  2082.14  2124.78  2136.56  2155.10
                             2178.79  2193.83  2208.41  2270.45  2355.98
                             4392.65  4441.69  4470.34  4539.45  4589.25
                             4612.40  5218.55

 Zero-point correction=                           0.141249 (Hartree/Particle)
 Thermal correction to Energy=                    0.155410
 Thermal correction to Enthalpy=                  0.156354
 Thermal correction to Gibbs Free Energy=         0.098023
 Sum of electronic and zero-point Energies=          -2027.876362
 Sum of electronic and thermal Energies=             -2027.862201
 Sum of electronic and thermal Enthalpies=           -2027.861257
 Sum of electronic and thermal Free Energies=        -2027.919588

                     E (Thermal)             CV                S
                      KCal/Mol        Cal/Mol-Kelvin    Cal/Mol-Kelvin
 Total                   97.521             50.485            122.768
 Electronic               0.000              0.000              0.000
 Translational            0.889              2.981             42.577
 Rotational               0.889              2.981             33.221
 Vibrational             95.744             44.523             46.969
 Vibration     1          0.593              1.984              5.872
 Vibration     2          0.595              1.979              4.975
 Vibration     3          0.597              1.971              4.306
 Vibration     4          0.599              1.964              3.948
 Vibration     5          0.606              1.942              3.296
 Vibration     6          0.609              1.932              3.085
 Vibration     7          0.638              1.838              2.121
 Vibration     8          0.642              1.826              2.044
 Vibration     9          0.654              1.790              1.856
 Vibration    10          0.659              1.774              1.778
 Vibration    11          0.669              1.745              1.658
 Vibration    12          0.679              1.713              1.542
 Vibration    13          0.717              1.603              1.230
 Vibration    14          0.744              1.529              1.070
 Vibration    15          0.755              1.500              1.016
 Vibration    16          0.784              1.422              0.885
 Vibration    17          0.842              1.281              0.694
 Vibration    18          0.870              1.216              0.621
 Vibration    19          0.884              1.185              0.589
 Vibration    20          0.902              1.147              0.551
 Vibration    21          0.914              1.121              0.527
 Vibration    22          0.930              1.088              0.497
 Vibration    23          0.972              1.005              0.428

                           ! Non-Optimized Parameters !
 Normal termination of Gaussian 16 at Thu Dec 10 10:51:59 2020.

 ----------------------------------------------------------------------
 # B3LYP/6-311++G(d,p) empiricaldispersion=gd3bj scf=xqc pop=npa geom=c
 heck
 ----------------------------------------------------------------------

 ---------------------------------------
 CID_125432256_JID_4867_Energie_neutraal
 ---------------------------------------
 Structure from the checkpoint file:  "JID_4867.chk"
 Charge =  0 Multiplicity = 1

 SCF Done:  E(RB3LYP) =  -2028.23512166     A.U. after   17 cycles
 Normal termination of Gaussian 16 at Thu Dec 10 10:55:04 2020.

 ----------------------------------------------------------------------
 # B3LYP/6-311++G(d,p) empiricaldispersion=gd3bj scf=xqc pop=npa geom=c
 heck
 ----------------------------------------------------------------------

 -------------------------------------
 CID_125432256_JID_4867_Energie_kation
 -------------------------------------
 Structure from the checkpoint file:  "JID_4867.chk"
 Charge =  1 Multiplicity = 2

 SCF Done:  E(UB3LYP) =  -2027.95996960     A.U. after   25 cycles
 Normal termination of Gaussian 16 at Thu Dec 10 11:01:49 2020.
 Gaussian 16:  ES64L-G16RevA.03 25-Dec-2016

 ----------------------------------------------------------------------
 # B3LYP/6-311++G(d,p) empiricaldispersion=gd3bj scf=xqc pop=npa geom=c
 heck
 ----------------------------------------------------------------------

 ------------------------------------
 CID_125432256_JID_4867_Energie_anion
 ------------------------------------
 Structure from the checkpoint file:  "JID_4867.chk"
 Charge = -1 Multiplicity = 2

                         Standard orientation:
 ---------------------------------------------------------------------
 Center     Atomic      Atomic             Coordinates (Angstroms)
 Number     Number       Type             X           Y           Z
 ---------------------------------------------------------------------
      1          6           0       -1.071558    2.670090   -0.211669
      2          6           0       -1.344052    1.209344   -0.050240
      3          6           0       -0.420399    0.208987    0.079637
      4         16           0       -1.210404   -1.367212    0.183276
      5          6           0       -2.807119   -0.638486    0.038610
      6         16           0       -4.236604   -1.473352    0.027119
      7          7           0       -2.649386    0.729512   -0.052883
      8          6           0       -3.835883    1.575413   -0.169631
      9          6           0        1.021505    0.309473    0.110893
     10          7           0        1.681905    1.393209    0.407487
     11          7           0        3.017408    1.163318    0.317858
     12          6           0        3.501023   -0.072183    0.000672
     13         16           0        5.085777   -0.515506   -0.108206
     14         16           0        2.058175   -1.079946   -0.271554
     15          1           0        0.000492    2.834732   -0.308945
     16          1           0       -1.415239    3.237087    0.662275
     17          1           0       -1.579901    3.070469   -1.095830
     18          1           0       -4.304882    1.429109   -1.146677
     19          1           0       -4.553115    1.283414    0.599609
     20          1           0       -3.552965    2.618037   -0.041560
     21          1           0        3.643905    1.925303    0.544108
 ---------------------------------------------------------------------

 SCF Done:  E(UB3LYP) =  -2028.27105640     A.U. after   24 cycles

 The electronic state is 2-A.
 Alpha  occ. eigenvalues --  -88.75947 -88.75794 -88.68171 -88.67746 -14.28552
 Alpha  occ. eigenvalues --  -14.27439 -14.22060 -10.15407 -10.14456 -10.11789
 Alpha  occ. eigenvalues --  -10.11419 -10.10406 -10.08801 -10.07734  -7.84611
 Alpha  occ. eigenvalues --   -7.84450  -7.76949  -7.76526  -5.80926  -5.80783
 Alpha  occ. eigenvalues --   -5.80575  -5.80410  -5.80142  -5.79960  -5.73357
 Alpha  occ. eigenvalues --   -5.72917  -5.72766  -5.72513  -5.72382  -5.72076
 Alpha  occ. eigenvalues --   -0.93826  -0.89270  -0.75726  -0.72198  -0.69966
 Alpha  occ. eigenvalues --   -0.69181  -0.62124  -0.61472  -0.59635  -0.56397
 Alpha  occ. eigenvalues --   -0.51717  -0.50641  -0.47232  -0.43117  -0.39588
 Alpha  occ. eigenvalues --   -0.37995  -0.36928  -0.35350  -0.34601  -0.32734
 Alpha  occ. eigenvalues --   -0.32332  -0.30673  -0.29786  -0.28362  -0.27674
 Alpha  occ. eigenvalues --   -0.26463  -0.25447  -0.24084  -0.22453  -0.19798
 Alpha  occ. eigenvalues --   -0.18932  -0.17723  -0.16168  -0.10833  -0.10618
 Alpha  occ. eigenvalues --   -0.10328  -0.08334   0.01618
 Alpha virt. eigenvalues --    0.06651   0.07727   0.08482   0.08828   0.09562
 Alpha virt. eigenvalues --    0.09837   0.09904   0.11019   0.11841   0.12477
 Alpha virt. eigenvalues --    0.12991   0.13053   0.13410   0.14197   0.14673

  Beta  occ. eigenvalues --  -88.75901 -88.75763 -88.68151 -88.67715 -14.28654
  Beta  occ. eigenvalues --  -14.27562 -14.21727 -10.15175 -10.14142 -10.11786
  Beta  occ. eigenvalues --  -10.11105 -10.10072 -10.08759 -10.07759  -7.84570
  Beta  occ. eigenvalues --   -7.84422  -7.76930  -7.76498  -5.80910  -5.80769
  Beta  occ. eigenvalues --   -5.80560  -5.80397  -5.79983  -5.79856  -5.73354
  Beta  occ. eigenvalues --   -5.72911  -5.72693  -5.72502  -5.72273  -5.72058
  Beta  occ. eigenvalues --   -0.93558  -0.89157  -0.75335  -0.71939  -0.69677
  Beta  occ. eigenvalues --   -0.68794  -0.61927  -0.61401  -0.59450  -0.56066
  Beta  occ. eigenvalues --   -0.51352  -0.50436  -0.47057  -0.42990  -0.39417
  Beta  occ. eigenvalues --   -0.37776  -0.36648  -0.35087  -0.33816  -0.32474
  Beta  occ. eigenvalues --   -0.32171  -0.30589  -0.29634  -0.27825  -0.27348
  Beta  occ. eigenvalues --   -0.26207  -0.25168  -0.23844  -0.21225  -0.18862
  Beta  occ. eigenvalues --   -0.18537  -0.17071  -0.15321  -0.10561  -0.10270
  Beta  occ. eigenvalues --   -0.10108  -0.07448
  Beta virt. eigenvalues --    0.06625   0.06891   0.08457   0.09007   0.09550
  Beta virt. eigenvalues --    0.09774   0.10159   0.10483   0.11075   0.11842
  Beta virt. eigenvalues --    0.12512   0.13001   0.13087   0.13437   0.14270

 Mulliken charges and spin densities:
               1          2
     1  C   -0.986773  -0.021781
     2  C   -0.445739   0.218443
     3  C    0.981956   0.001634
     4  S   -0.543123   0.072179
     5  C    0.302973   0.125338
     6  S   -0.744012   0.090522
     7  N    0.374249  -0.050451
     8  C   -0.422758   0.001216
     9  C    0.055550   0.170068
    10  N   -0.159064   0.150950
    11  N    0.043190  -0.048723
    12  C    0.461003   0.095413
    13  S   -0.925078   0.054135
    14  S   -0.248229   0.111333
    15  H    0.180565   0.007289
    16  H    0.154444   0.015127
    17  H    0.135859   0.007638
    18  H    0.180159  -0.000110
    19  H    0.153400  -0.001546
    20  H    0.124994  -0.000662
    21  H    0.326434   0.001989
 Sum of Mulliken charges =  -1.00000   1.00000

 Dipole moment (field-independent basis, Debye):
    X=             -2.7966    Y=              6.5362    Z=             -0.0694  Tot=              7.1097
 Quadrupole moment (field-independent basis, Debye-Ang):
   XX=           -201.9890   YY=           -123.8699   ZZ=           -120.2995
   XY=             -9.4860   XZ=              2.9747   YZ=             -0.4398

 Summary of Natural Population Analysis:

                                       Natural Population
                Natural  -----------------------------------------------
    Atom  No    Charge         Core      Valence    Rydberg      Total
 -----------------------------------------------------------------------
      C    1   -0.31022      0.99964     2.30583    0.00475     3.31022
      C    2    0.15989      0.99945     1.83117    0.00950     2.84011
      C    3   -0.13745      0.99937     2.12538    0.01269     3.13745
      S    4    0.21091      4.99940     2.76867    0.02102     7.78909
      C    5   -0.01015      0.99968     1.99302    0.01746     3.01015
      S    6   -0.11105      4.99951     3.09500    0.01654     8.11105
      N    7   -0.24118      0.99956     2.73224    0.00938     3.74118
      C    8   -0.17636      0.99965     2.16930    0.00741     3.17636
      C    9    0.07623      0.99944     1.90759    0.01674     2.92377
      N   10   -0.11958      0.99963     2.60468    0.01526     3.61958
      N   11   -0.21424      0.99962     2.69796    0.01666     3.71424
      C   12   -0.03803      0.99970     2.01863    0.01970     3.03803
      S   13   -0.11366      4.99950     3.09797    0.01619     8.11366
      S   14    0.19170      4.99942     2.78981    0.01908     7.80830
      H   15    0.12630      0.00000     0.37254    0.00117     0.37370
      H   16    0.10306      0.00000     0.39581    0.00113     0.39694
      H   17    0.09948      0.00000     0.39939    0.00113     0.40052
      H   18    0.09976      0.00000     0.39896    0.00128     0.40024
      H   19    0.10764      0.00000     0.39092    0.00144     0.39236
      H   20    0.09658      0.00000     0.40255    0.00087     0.40342
      H   21    0.20050      0.00000     0.29817    0.00132     0.29950
 =======================================================================
   * Total *    0.00014     29.99356    36.79559    0.21070    66.99986

 Normal termination of Gaussian 16 at Thu Dec 10 11:08:11 2020.
