 Gaussian 16, Revision A.03,

 -----------------------------------------------------------
 # opt freq B3LYP/6-31G(d) empiricaldispersion=gd3bj scf=xqc
 -----------------------------------------------------------

 ------------------------------
 CID_10535044_JID_2193_neutraal
 ------------------------------
 Symbolic Z-matrix:
 Charge =  0 Multiplicity = 1

 SCF Done:  E(RB3LYP) =  -519.977804609     A.U. after   13 cycles
 SCF Done:  E(RB3LYP) =  -519.982916209     A.U. after   11 cycles
 SCF Done:  E(RB3LYP) =  -519.983650721     A.U. after   10 cycles
 SCF Done:  E(RB3LYP) =  -519.983802354     A.U. after   10 cycles
 SCF Done:  E(RB3LYP) =  -519.983835231     A.U. after    9 cycles
 SCF Done:  E(RB3LYP) =  -519.983856017     A.U. after   10 cycles
 SCF Done:  E(RB3LYP) =  -519.983867136     A.U. after    9 cycles
 SCF Done:  E(RB3LYP) =  -519.983879232     A.U. after    9 cycles
 SCF Done:  E(RB3LYP) =  -519.983904262     A.U. after   10 cycles
 SCF Done:  E(RB3LYP) =  -519.983930523     A.U. after   10 cycles
 SCF Done:  E(RB3LYP) =  -519.984008890     A.U. after   11 cycles
 SCF Done:  E(RB3LYP) =  -519.984011738     A.U. after   10 cycles
 SCF Done:  E(RB3LYP) =  -519.984013591     A.U. after   10 cycles
 SCF Done:  E(RB3LYP) =  -519.984014029     A.U. after   10 cycles
 SCF Done:  E(RB3LYP) =  -519.984014826     A.U. after    9 cycles
 SCF Done:  E(RB3LYP) =  -519.984014948     A.U. after    8 cycles
 Optimization completed.
    -- Stationary point found.
 Normal termination of Gaussian 16 at Wed Dec  9 16:57:01 2020.

 --------------------------------------------------------------------
 #N Geom=AllCheck Guess=TCheck SCRF=Check GenChk RB3LYP/6-31G(d) Freq
 --------------------------------------------------------------------

 Structure from the checkpoint file:  "JID_2193.chk"
 ------------------------------
 CID_10535044_JID_2193_neutraal
 ------------------------------
 Charge =  0 Multiplicity = 1

 SCF Done:  E(RB3LYP) =  -519.984014948     A.U. after    1 cycles

  Exact polarizability: 120.019  -0.396  98.280  -0.825  -1.931  92.515
 Approx polarizability: 154.244   0.282 145.101  -0.137  -0.695 143.761

                      1                      2                      3
                      A                      A                      A
 Frequencies --     29.2807                82.6848               173.0759
 Red. masses --      3.1773                 2.8200                 2.3735
 Frc consts  --      0.0016                 0.0114                 0.0419
 IR Inten    --      0.8598                 0.4558                 0.1844

                      4                      5                      6
                      A                      A                      A
 Frequencies --    205.5650               215.1621               247.4614
 Red. masses --      2.5171                 2.6105                 2.6488
 Frc consts  --      0.0627                 0.0712                 0.0956
 IR Inten    --      0.0969                 0.0852                 0.1454

                      7                      8                      9
                      A                      A                      A
 Frequencies --    293.5386               331.1887               367.5894
 Red. masses --      2.2849                 2.6832                 3.4065
 Frc consts  --      0.1160                 0.1734                 0.2712
 IR Inten    --      0.2256                 1.5442                 0.6184

                     10                     11                     12
                      A                      A                      A
 Frequencies --    428.9807               496.5430               526.8387
 Red. masses --      3.2303                 3.2120                 3.4947
 Frc consts  --      0.3502                 0.4666                 0.5715
 IR Inten    --      1.1744                 1.2074                 1.9243

                     13                     14                     15
                      A                      A                      A
 Frequencies --    550.9986               640.6275               666.2241
 Red. masses --      3.7025                 3.0675                 5.4266
 Frc consts  --      0.6623                 0.7417                 1.4191
 IR Inten    --      8.3738                 5.3176                 8.8580

                     16                     17                     18
                      A                      A                      A
 Frequencies --    720.2966               774.5444               779.9834
 Red. masses --      2.4450                 1.1758                 1.1889
 Frc consts  --      0.7474                 0.4156                 0.4262
 IR Inten    --      1.0335                 1.1749                 0.6216

                     19                     20                     21
                      A                      A                      A
 Frequencies --    807.0843               820.3196               870.5466
 Red. masses --      1.8432                 1.5820                 2.4839
 Frc consts  --      0.7074                 0.6272                 1.1091
 IR Inten    --      3.8634                 2.7991                 4.3099

                     22                     23                     24
                      A                      A                      A
 Frequencies --    889.1325               899.2012               902.8849
 Red. masses --      1.8150                 1.5545                 2.4922
 Frc consts  --      0.8454                 0.7406                 1.1970
 IR Inten    --      7.6451                 1.0406                10.4943

                     25                     26                     27
                      A                      A                      A
 Frequencies --    923.3846               941.7803               972.9684
 Red. masses --      2.0993                 2.2296                 2.1347
 Frc consts  --      1.0546                 1.1652                 1.1907
 IR Inten    --      1.3113                 8.7742                 7.1116

                     28                     29                     30
                      A                      A                      A
 Frequencies --    984.3036               990.6279               998.1491
 Red. masses --      2.6707                 2.2617                 3.0726
 Frc consts  --      1.5245                 1.3077                 1.8036
 IR Inten    --     17.6317                13.3116                 8.9801

                     31                     32                     33
                      A                      A                      A
 Frequencies --   1010.5887              1027.6787              1052.5329
 Red. masses --      3.8863                 1.9838                 1.5685
 Frc consts  --      2.3385                 1.2344                 1.0238
 IR Inten    --     13.6593                 3.7848                15.9628

                     34                     35                     36
                      A                      A                      A
 Frequencies --   1067.3994              1078.5385              1087.3540
 Red. masses --      1.4493                 1.4790                 1.4464
 Frc consts  --      0.9729                 1.0137                 1.0076
 IR Inten    --     10.2995                 3.1611                 1.0375

                     37                     38                     39
                      A                      A                      A
 Frequencies --   1088.9820              1120.0815              1147.9183
 Red. masses --      2.1454                 1.9962                 4.1115
 Frc consts  --      1.4990                 1.4755                 3.1920
 IR Inten    --      0.0409                 1.3067                 6.1674

                     40                     41                     42
                      A                      A                      A
 Frequencies --   1198.2816              1201.3544              1201.8874
 Red. masses --      1.3787                 1.2706                 1.8852
 Frc consts  --      1.1664                 1.0804                 1.6045
 IR Inten    --      2.4455                 0.1202                 3.5801

                     43                     44                     45
                      A                      A                      A
 Frequencies --   1217.4133              1240.7630              1247.1341
 Red. masses --      1.3930                 1.3682                 2.3425
 Frc consts  --      1.2164                 1.2410                 2.1466
 IR Inten    --      2.4701                 0.9134                34.5210

                     46                     47                     48
                      A                      A                      A
 Frequencies --   1266.1816              1315.5631              1334.6729
 Red. masses --      1.2073                 1.3412                 1.3106
 Frc consts  --      1.1404                 1.3676                 1.3755
 IR Inten    --      0.4235                 5.1065                 2.3506

                     49                     50                     51
                      A                      A                      A
 Frequencies --   1353.1219              1361.7688              1375.9437
 Red. masses --      1.4109                 2.2175                 1.4503
 Frc consts  --      1.5220                 2.4228                 1.6178
 IR Inten    --      0.4021                12.8435                 2.0222

                     52                     53                     54
                      A                      A                      A
 Frequencies --   1391.4986              1433.8953              1475.4954
 Red. masses --      1.6981                 2.4033                 1.0946
 Frc consts  --      1.9372                 2.9113                 1.4040
 IR Inten    --      8.4290                 4.6414                 1.9271

                     55                     56                     57
                      A                      A                      A
 Frequencies --   1490.1145              1517.2236              1526.0669
 Red. masses --      1.0917                 1.1077                 1.4495
 Frc consts  --      1.4282                 1.5024                 1.9889
 IR Inten    --      2.9761                 0.9851                 6.2349

                     58                     59                     60
                      A                      A                      A
 Frequencies --   1535.4344              1545.3625              1552.8969
 Red. masses --      1.3434                 1.2639                 1.1064
 Frc consts  --      1.8660                 1.7784                 1.5720
 IR Inten    --     11.6263                 1.6950                 2.2499

                     61                     62                     63
                      A                      A                      A
 Frequencies --   3037.7819              3060.8569              3078.8993
 Red. masses --      1.0681                 1.0852                 1.0607
 Frc consts  --      5.8073                 5.9904                 5.9244
 IR Inten    --     29.0929                25.2525                25.6551

                     64                     65                     66
                      A                      A                      A
 Frequencies --   3087.6574              3112.1107              3117.2741
 Red. masses --      1.0647                 1.0989                 1.1013
 Frc consts  --      5.9805                 6.2709                 6.3056
 IR Inten    --     35.9094                22.0413                20.5361

                     67                     68                     69
                      A                      A                      A
 Frequencies --   3133.4155              3134.2671              3137.7801
 Red. masses --      1.0886                 1.0703                 1.0557
 Frc consts  --      6.2971                 6.1947                 6.1242
 IR Inten    --     49.9214                11.9276                13.1600

                     70                     71                     72
                      A                      A                      A
 Frequencies --   3147.0257              3149.0317              3208.3705
 Red. masses --      1.0547                 1.0545                 1.1183
 Frc consts  --      6.1545                 6.1609                 6.7825
 IR Inten    --      9.3410                16.0211                 4.3323

                     73                     74                     75
                      A                      A                      A
 Frequencies --   3222.3157              3228.7638              3238.7548
 Red. masses --      1.1174                 1.1164                 1.1164
 Frc consts  --      6.8356                 6.8573                 6.8995
 IR Inten    --      1.4710                17.0175                11.1480

 - Thermochemistry -
 -------------------
 Temperature   298.150 Kelvin.  Pressure   1.00000 Atm.
 Atom     1 has atomic number  6 and mass  12.00000

 Molecular mass:   165.11536 amu.
 Principal axes and moments of inertia in atomic units:
                           1         2         3
     Eigenvalues --  1088.393342023.485412545.66944
           X            0.99999  -0.00148  -0.00361
           Y            0.00143   0.99992  -0.01277
           Z            0.00363   0.01276   0.99991
 This molecule is an asymmetric top.
 Rotational symmetry number  1.
 Warning -- assumption of classical behavior for rotation
           may cause significant error
 Rotational temperatures (Kelvin)      0.07958     0.04280     0.03402
 Rotational constants (GHZ):           1.65817     0.89190     0.70895
 Zero-point vibrational energy     622587.0 (Joules/Mol)
                                  148.80187 (Kcal/Mol)
 Warning -- explicit consideration of  13 degrees of freedom as
           vibrations may cause significant error
 Vibrational temperatures:     42.13   118.96   249.02   295.76   309.57
          (Kelvin)            356.04   422.34   476.51   528.88   617.21
                              714.41   758.00   792.76   921.72   958.55
                             1036.35  1114.40  1122.22  1161.21  1180.26
                             1252.52  1279.26  1293.75  1299.05  1328.54
                             1355.01  1399.88  1416.19  1425.29  1436.11
                             1454.01  1478.60  1514.36  1535.75  1551.78
                             1564.46  1566.80  1611.55  1651.60  1724.06
                             1728.48  1729.25  1751.59  1785.18  1794.35
                             1821.75  1892.80  1920.30  1946.84  1959.28
                             1979.68  2002.06  2063.06  2122.91  2143.94
                             2182.95  2195.67  2209.15  2223.43  2234.27
                             4370.69  4403.89  4429.85  4442.45  4477.63
                             4485.06  4508.29  4509.51  4514.57  4527.87
                             4530.75  4616.13  4636.19  4645.47  4659.85

 Zero-point correction=                           0.237131 (Hartree/Particle)
 Thermal correction to Energy=                    0.247464
 Thermal correction to Enthalpy=                  0.248409
 Thermal correction to Gibbs Free Energy=         0.200936
 Sum of electronic and zero-point Energies=           -519.746884
 Sum of electronic and thermal Energies=              -519.736551
 Sum of electronic and thermal Enthalpies=            -519.735606
 Sum of electronic and thermal Free Energies=         -519.783079

                     E (Thermal)             CV                S
                      KCal/Mol        Cal/Mol-Kelvin    Cal/Mol-Kelvin
 Total                  155.286             42.221             99.915
 Electronic               0.000              0.000              0.000
 Translational            0.889              2.981             41.213
 Rotational               0.889              2.981             30.106
 Vibrational            153.509             36.259             28.596
 Vibration     1          0.593              1.984              5.878
 Vibration     2          0.600              1.961              3.826
 Vibration     3          0.627              1.876              2.402
 Vibration     4          0.640              1.832              2.083
 Vibration     5          0.645              1.818              1.999
 Vibration     6          0.661              1.767              1.749
 Vibration     7          0.688              1.686              1.453
 Vibration     8          0.714              1.613              1.254
 Vibration     9          0.740              1.539              1.090
 Vibration    10          0.790              1.407              0.862
 Vibration    11          0.852              1.258              0.667
 Vibration    12          0.882              1.191              0.594
 Vibration    13          0.906              1.137              0.542

                           ! Non-Optimized Parameters !
 Normal termination of Gaussian 16 at Wed Dec  9 17:04:08 2020.

 ----------------------------------------------------------------------
 # B3LYP/6-311++G(d,p) empiricaldispersion=gd3bj scf=xqc pop=npa geom=c
 heck
 ----------------------------------------------------------------------

 --------------------------------------
 CID_10535044_JID_2193_Energie_neutraal
 --------------------------------------
 Structure from the checkpoint file:  "JID_2193.chk"
 Charge =  0 Multiplicity = 1

 SCF Done:  E(RB3LYP) =  -520.121908147     A.U. after   14 cycles
 Normal termination of Gaussian 16 at Wed Dec  9 17:07:12 2020.

 ----------------------------------------------------------------------
 # B3LYP/6-311++G(d,p) empiricaldispersion=gd3bj scf=xqc pop=npa geom=c
 heck
 ----------------------------------------------------------------------

 ------------------------------------
 CID_10535044_JID_2193_Energie_kation
 ------------------------------------
 Structure from the checkpoint file:  "JID_2193.chk"
 Charge =  1 Multiplicity = 2

 SCF Done:  E(UB3LYP) =  -519.835211439     A.U. after   21 cycles
 Normal termination of Gaussian 16 at Wed Dec  9 17:13:55 2020.
 Gaussian 16:  ES64L-G16RevA.03 25-Dec-2016

 ----------------------------------------------------------------------
 # B3LYP/6-311++G(d,p) empiricaldispersion=gd3bj scf=xqc pop=npa geom=c
 heck
 ----------------------------------------------------------------------

 -----------------------------------
 CID_10535044_JID_2193_Energie_anion
 -----------------------------------
 Structure from the checkpoint file:  "JID_2193.chk"
 Charge = -1 Multiplicity = 2

                         Standard orientation:
 ---------------------------------------------------------------------
 Center     Atomic      Atomic             Coordinates (Angstroms)
 Number     Number       Type             X           Y           Z
 ---------------------------------------------------------------------
      1          6           0       -2.857114   -0.188332    0.289187
      2          6           0       -2.144099    0.784991   -0.694035
      3          6           0       -0.746707    0.183864   -0.905263
      4          6           0        0.420768    0.740127   -0.091843
      5          6           0        0.260147    1.670268    1.084120
      6          6           0        0.931521    2.142198   -0.185633
      7          6           0        1.312808   -0.461666   -0.014737
      8          6           0        2.581990   -0.599231   -0.811684
      9          6           0        2.611557   -0.554479    0.709940
     10          8           0        0.463760   -1.607802    0.035213
     11          7           0       -0.864735   -1.213258   -0.414191
     12          6           0       -1.744214   -1.126573    0.768916
     13          1           0       -3.336442    0.330120    1.124176
     14          1           0       -3.631795   -0.752441   -0.238339
     15          1           0       -2.082872    1.802125   -0.296406
     16          1           0       -2.683538    0.849150   -1.642386
     17          1           0       -0.457541    0.162059   -1.962119
     18          1           0        0.885532    1.481660    1.952221
     19          1           0       -0.723570    2.064251    1.322548
     20          1           0        2.006482    2.307354   -0.171029
     21          1           0        0.387922    2.836270   -0.822575
     22          1           0        2.757723   -1.560954   -1.284082
     23          1           0        2.948567    0.263461   -1.361818
     24          1           0        3.000734    0.335876    1.199652
     25          1           0        2.813827   -1.482637    1.236225
     26          1           0       -1.205116   -0.702967    1.627125
     27          1           0       -2.096797   -2.125109    1.040635
 ---------------------------------------------------------------------

 SCF Done:  E(UB3LYP) =  -520.103663661     A.U. after   32 cycles

 The electronic state is 2-A.
 Alpha  occ. eigenvalues --  -19.04231 -14.24809 -10.13081 -10.09949 -10.08660
 Alpha  occ. eigenvalues --  -10.08516 -10.07694 -10.07167 -10.07132 -10.06798
 Alpha  occ. eigenvalues --  -10.06587 -10.06562  -0.96920  -0.79377  -0.77730
 Alpha  occ. eigenvalues --   -0.73001  -0.64072  -0.63729  -0.55806  -0.51566
 Alpha  occ. eigenvalues --   -0.49988  -0.48445  -0.46489  -0.45362  -0.40985
 Alpha  occ. eigenvalues --   -0.40211  -0.39332  -0.36660  -0.35484  -0.32883
 Alpha  occ. eigenvalues --   -0.31467  -0.30182  -0.29138  -0.27727  -0.27054
 Alpha  occ. eigenvalues --   -0.26152  -0.25506  -0.24409  -0.23854  -0.22870
 Alpha  occ. eigenvalues --   -0.20742  -0.19872  -0.19156  -0.15339  -0.11278
 Alpha  occ. eigenvalues --    0.04945
 Alpha virt. eigenvalues --    0.06890   0.07662   0.08064   0.09245   0.09354
 Alpha virt. eigenvalues --    0.09857   0.10410   0.11091   0.12061   0.12436
 Alpha virt. eigenvalues --    0.12552   0.12895   0.14016   0.14384   0.15728

  Beta  occ. eigenvalues --  -19.04225 -14.24808 -10.13080 -10.09944 -10.08658
  Beta  occ. eigenvalues --  -10.08508 -10.07675 -10.07131 -10.07122 -10.06766
  Beta  occ. eigenvalues --  -10.06553 -10.06532  -0.96911  -0.79364  -0.77713
  Beta  occ. eigenvalues --   -0.72982  -0.64028  -0.63701  -0.55775  -0.51512
  Beta  occ. eigenvalues --   -0.49903  -0.48391  -0.46443  -0.45330  -0.40939
  Beta  occ. eigenvalues --   -0.40165  -0.39294  -0.36624  -0.35455  -0.32853
  Beta  occ. eigenvalues --   -0.31443  -0.30140  -0.29111  -0.27702  -0.27030
  Beta  occ. eigenvalues --   -0.26120  -0.25481  -0.24356  -0.23817  -0.22838
  Beta  occ. eigenvalues --   -0.20708  -0.19850  -0.19134  -0.15321  -0.11268
  Beta virt. eigenvalues --    0.07325   0.07835   0.08386   0.08727   0.09826
  Beta virt. eigenvalues --    0.10019   0.10383   0.10933   0.11454   0.12537
  Beta virt. eigenvalues --    0.12885   0.13137   0.13462   0.14409   0.14795

 Mulliken charges and spin densities:
               1          2
     1  C    1.015758  -1.470100
     2  C    1.288814  -1.814388
     3  C   -1.712719   1.928270
     4  C    0.113770   0.204660
     5  C    0.685544  -1.137291
     6  C    1.368533  -1.794684
     7  C   -1.446676   1.122386
     8  C   -0.398242  -0.061340
     9  C    0.516569  -0.654392
    10  O    0.115907  -0.004886
    11  N   -0.133432  -0.008742
    12  C   -0.292421   0.090212
    13  H   -0.487534   0.655148
    14  H    0.023240   0.126934
    15  H    0.006515   0.140030
    16  H   -0.607271   0.772929
    17  H   -0.125069   0.385480
    18  H   -0.173139   0.332898
    19  H   -0.124816   0.285035
    20  H   -0.120430   0.261241
    21  H   -0.436069   0.600653
    22  H    0.120239   0.042674
    23  H   -0.107158   0.254056
    24  H   -0.198317   0.345059
    25  H    0.127502   0.030222
    26  H    0.172905   0.000912
    27  H   -0.192004   0.367022
 Sum of Mulliken charges =  -1.00000   1.00000

 Dipole moment (field-independent basis, Debye):
    X=              3.0076    Y=             -4.4307    Z=              0.2847  Tot=              5.3626
 Quadrupole moment (field-independent basis, Debye-Ang):
   XX=           -130.6963   YY=           -120.6751   ZZ=           -107.8316
   XY=             -0.2004   XZ=             -2.9163   YZ=             -1.2872

 Summary of Natural Population Analysis:

                                       Natural Population
                Natural  -----------------------------------------------
    Atom  No    Charge         Core      Valence    Rydberg      Total
 -----------------------------------------------------------------------
      C    1   -0.19538      0.99963     2.18715    0.00861     3.19538
      C    2   -0.19441      0.99961     2.18520    0.00960     3.19441
      C    3   -0.00566      0.99955     1.99135    0.01477     3.00566
      C    4   -0.06282      0.99948     2.04655    0.01679     3.06282
      C    5   -0.18955      0.99959     2.18008    0.00988     3.18955
      C    6   -0.19019      0.99958     2.18045    0.01017     3.19019
      C    7    0.12999      0.99940     1.85353    0.01707     2.87001
      C    8   -0.20567      0.99959     2.19731    0.00878     3.20567
      C    9   -0.20381      0.99958     2.19515    0.00908     3.20381
      O   10   -0.22524      0.99988     3.21793    0.00743     4.22524
      N   11   -0.11279      0.99971     2.60035    0.01273     3.61279
      C   12   -0.09194      0.99961     2.08096    0.01137     3.09194
      H   13    0.10427      0.00000     0.39415    0.00158     0.39573
      H   14    0.09917      0.00000     0.39934    0.00149     0.40083
      H   15    0.10538      0.00000     0.39204    0.00258     0.39462
      H   16    0.10559      0.00000     0.39266    0.00176     0.39441
      H   17    0.10169      0.00000     0.39657    0.00174     0.39831
      H   18    0.10458      0.00000     0.39393    0.00149     0.39542
      H   19    0.10660      0.00000     0.39170    0.00170     0.39340
      H   20    0.10436      0.00000     0.39374    0.00190     0.39564
      H   21    0.10752      0.00000     0.39056    0.00191     0.39248
      H   22    0.10428      0.00000     0.39470    0.00102     0.39572
      H   23    0.10407      0.00000     0.39470    0.00124     0.39593
      H   24    0.10648      0.00000     0.39216    0.00136     0.39352
      H   25    0.10669      0.00000     0.39236    0.00095     0.39331
      H   26    0.09112      0.00000     0.40722    0.00167     0.40888
      H   27    0.09570      0.00000     0.40293    0.00137     0.40430
 =======================================================================
   * Total *   -0.00000     11.99521    32.84477    0.16002    45.00000

 Normal termination of Gaussian 16 at Wed Dec  9 17:23:39 2020.
