 Gaussian 16, Revision A.03,

 -----------------------------------------------------------
 # opt freq B3LYP/6-31G(d) empiricaldispersion=gd3bj scf=xqc
 -----------------------------------------------------------

 ------------------------------
 CID_94686885_JID_7017_neutraal
 ------------------------------
 Symbolic Z-matrix:
 Charge =  0 Multiplicity = 1

 SCF Done:  E(RB3LYP) =  -767.434930959     A.U. after   15 cycles
 SCF Done:  E(RB3LYP) =  -767.439608056     A.U. after   12 cycles
 SCF Done:  E(RB3LYP) =  -767.439945519     A.U. after   13 cycles
 SCF Done:  E(RB3LYP) =  -767.441437507     A.U. after   12 cycles
 SCF Done:  E(RB3LYP) =  -767.442234862     A.U. after   12 cycles
 SCF Done:  E(RB3LYP) =  -767.442683836     A.U. after   12 cycles
 SCF Done:  E(RB3LYP) =  -767.442881713     A.U. after   12 cycles
 SCF Done:  E(RB3LYP) =  -767.442939410     A.U. after   11 cycles
 SCF Done:  E(RB3LYP) =  -767.442973823     A.U. after   10 cycles
 SCF Done:  E(RB3LYP) =  -767.443006117     A.U. after   10 cycles
 SCF Done:  E(RB3LYP) =  -767.443788047     A.U. after    9 cycles
 SCF Done:  E(RB3LYP) =  -767.443788817     A.U. after    9 cycles
 SCF Done:  E(RB3LYP) =  -767.443789833     A.U. after    8 cycles
 SCF Done:  E(RB3LYP) =  -767.443790116     A.U. after    8 cycles
 SCF Done:  E(RB3LYP) =  -767.443790148     A.U. after    6 cycles
 Optimization completed.
    -- Stationary point found.
 Normal termination of Gaussian 16 at Fri Dec 11 11:56:49 2020.

 --------------------------------------------------------------------
 #N Geom=AllCheck Guess=TCheck SCRF=Check GenChk RB3LYP/6-31G(d) Freq
 --------------------------------------------------------------------

 Structure from the checkpoint file:  "JID_7017.chk"
 ------------------------------
 CID_94686885_JID_7017_neutraal
 ------------------------------
 Charge =  0 Multiplicity = 1

 SCF Done:  E(RB3LYP) =  -767.443790148     A.U. after    1 cycles

  Exact polarizability: 192.123   2.585 164.352 -13.070   2.031 111.570
 Approx polarizability: 250.295   4.555 263.116 -29.780   0.228 168.456

                      1                      2                      3
                      A                      A                      A
 Frequencies --     21.7095                35.8698                50.2550
 Red. masses --      3.8798                 4.3089                 3.9161
 Frc consts  --      0.0011                 0.0033                 0.0058
 IR Inten    --      0.2215                 0.8307                 1.7803

                      4                      5                      6
                      A                      A                      A
 Frequencies --     73.2620                81.1645                91.7902
 Red. masses --      2.5932                 4.0558                 2.9971
 Frc consts  --      0.0082                 0.0157                 0.0149
 IR Inten    --      0.5644                 3.9673                 8.9283

                      7                      8                      9
                      A                      A                      A
 Frequencies --    109.1928               127.0064               148.9012
 Red. masses --      3.1043                 3.0916                 1.6667
 Frc consts  --      0.0218                 0.0294                 0.0218
 IR Inten    --      1.0255                 0.2583                 0.6346

                     10                     11                     12
                      A                      A                      A
 Frequencies --    172.9461               189.7266               206.4017
 Red. masses --      3.1536                 2.5191                 1.4108
 Frc consts  --      0.0556                 0.0534                 0.0354
 IR Inten    --      1.7189                 3.3618                 0.4841

                     13                     14                     15
                      A                      A                      A
 Frequencies --    239.0906               264.5453               267.9166
 Red. masses --      2.6254                 1.4190                 1.9699
 Frc consts  --      0.0884                 0.0585                 0.0833
 IR Inten    --      2.8440                 5.8459                 3.2906

                     16                     17                     18
                      A                      A                      A
 Frequencies --    278.9635               298.1404               317.4297
 Red. masses --      1.7790                 1.4767                 3.7114
 Frc consts  --      0.0816                 0.0773                 0.2203
 IR Inten    --      2.2924                52.0463                 1.0352

                     19                     20                     21
                      A                      A                      A
 Frequencies --    341.5191               372.6206               396.5802
 Red. masses --      2.6186                 2.8507                 3.5460
 Frc consts  --      0.1800                 0.2332                 0.3286
 IR Inten    --     10.2269                 1.0684                 5.3703

                     22                     23                     24
                      A                      A                      A
 Frequencies --    417.7709               474.8823               491.6991
 Red. masses --      2.0595                 3.8518                 3.3996
 Frc consts  --      0.2118                 0.5118                 0.4843
 IR Inten    --      4.2925                 8.2059                 4.5761

                     25                     26                     27
                      A                      A                      A
 Frequencies --    509.4430               545.8016               572.2566
 Red. masses --      3.4390                 3.9349                 3.9513
 Frc consts  --      0.5259                 0.6906                 0.7624
 IR Inten    --      0.1355                 8.1648                12.0585

                     28                     29                     30
                      A                      A                      A
 Frequencies --    585.5544               652.3276               726.5102
 Red. masses --      4.1291                 4.4087                 6.0152
 Frc consts  --      0.8341                 1.1053                 1.8706
 IR Inten    --      1.4142                 6.4311                 9.1151

                     31                     32                     33
                      A                      A                      A
 Frequencies --    746.9622               755.6013               764.9431
 Red. masses --      3.2912                 4.5038                 3.2763
 Frc consts  --      1.0819                 1.5150                 1.1295
 IR Inten    --      1.4474                23.7413                 5.1575

                     34                     35                     36
                      A                      A                      A
 Frequencies --    772.5705               810.1700               825.6517
 Red. masses --      2.9801                 1.3583                 1.6013
 Frc consts  --      1.0480                 0.5253                 0.6432
 IR Inten    --      2.9524                 4.7887                27.0537

                     37                     38                     39
                      A                      A                      A
 Frequencies --    890.1071               913.5476               932.6284
 Red. masses --      1.3768                 1.8498                 1.7579
 Frc consts  --      0.6427                 0.9096                 0.9009
 IR Inten    --     68.9486                 1.5401                 0.9955

                     40                     41                     42
                      A                      A                      A
 Frequencies --    946.8470               959.2431               998.8597
 Red. masses --      1.8239                 1.6741                 1.9993
 Frc consts  --      0.9634                 0.9076                 1.1752
 IR Inten    --      3.8914                 3.0797                40.2872

                     43                     44                     45
                      A                      A                      A
 Frequencies --   1008.4581              1045.4071              1076.8248
 Red. masses --      2.4957                 2.3432                 3.4412
 Frc consts  --      1.4954                 1.5088                 2.3510
 IR Inten    --      2.5355                59.9036                 4.8340

                     46                     47                     48
                      A                      A                      A
 Frequencies --   1079.2071              1088.9432              1103.0550
 Red. masses --      2.2061                 2.3340                 1.6301
 Frc consts  --      1.5138                 1.6306                 1.1686
 IR Inten    --     64.7807                42.0544                 0.8735

                     49                     50                     51
                      A                      A                      A
 Frequencies --   1163.2164              1166.0626              1175.2869
 Red. masses --      1.2765                 1.5351                 1.4790
 Frc consts  --      1.0177                 1.2298                 1.2036
 IR Inten    --      3.1987                22.6416                21.8236

                     52                     53                     54
                      A                      A                      A
 Frequencies --   1179.5255              1187.1132              1192.4474
 Red. masses --      1.5459                 1.2738                 1.6051
 Frc consts  --      1.2672                 1.0576                 1.3447
 IR Inten    --     59.7707                 0.8332                 5.6563

                     55                     56                     57
                      A                      A                      A
 Frequencies --   1221.1687              1236.9374              1260.2521
 Red. masses --      1.3800                 2.1538                 2.2876
 Frc consts  --      1.2125                 1.9415                 2.1406
 IR Inten    --      3.2445                17.5269                13.2675

                     58                     59                     60
                      A                      A                      A
 Frequencies --   1292.6869              1298.2604              1309.7729
 Red. masses --      2.6966                 1.7701                 1.6191
 Frc consts  --      2.6549                 1.7578                 1.6365
 IR Inten    --    219.4948                48.0839                 8.4467

                     61                     62                     63
                      A                      A                      A
 Frequencies --   1323.2256              1336.7059              1375.7225
 Red. masses --      1.4075                 1.5163                 1.4936
 Frc consts  --      1.4520                 1.5962                 1.6655
 IR Inten    --     21.6684                 8.7264                 8.2197

                     64                     65                     66
                      A                      A                      A
 Frequencies --   1384.7132              1402.1409              1428.3760
 Red. masses --      2.4593                 1.5689                 1.5038
 Frc consts  --      2.7783                 1.8173                 1.8077
 IR Inten    --     30.4519                43.7166                 6.8308

                     67                     68                     69
                      A                      A                      A
 Frequencies --   1430.6638              1467.0897              1477.0187
 Red. masses --      1.2260                 1.9567                 2.3641
 Frc consts  --      1.4785                 2.4814                 3.0387
 IR Inten    --      1.7975                48.6624                 0.6095

                     70                     71                     72
                      A                      A                      A
 Frequencies --   1496.1533              1499.8327              1506.0321
 Red. masses --      1.2577                 1.2400                 1.1447
 Frc consts  --      1.6587                 1.6434                 1.5297
 IR Inten    --     11.0799                15.2580                19.7878

                     73                     74                     75
                      A                      A                      A
 Frequencies --   1513.7899              1520.5347              1527.2491
 Red. masses --      1.1024                 1.0480                 1.0522
 Frc consts  --      1.4884                 1.4277                 1.4461
 IR Inten    --      2.7529                 5.1119                13.9612

                     76                     77                     78
                      A                      A                      A
 Frequencies --   1531.1989              1535.3094              1540.6863
 Red. masses --      1.1597                 1.0953                 1.0695
 Frc consts  --      1.6019                 1.5212                 1.4958
 IR Inten    --     20.4496                56.3720                 2.7712

                     79                     80                     81
                      A                      A                      A
 Frequencies --   1548.5784              1556.3546              1557.8605
 Red. masses --      1.2354                 1.0908                 2.1738
 Frc consts  --      1.7455                 1.5567                 3.1084
 IR Inten    --     16.8393                15.2590                74.3116

                     82                     83                     84
                      A                      A                      A
 Frequencies --   1645.4047              1672.5299              1694.7620
 Red. masses --      6.7074                 5.7940                 1.1109
 Frc consts  --     10.6991                 9.5494                 1.8800
 IR Inten    --      2.5038                23.5986                55.2992

                     85                     86                     87
                      A                      A                      A
 Frequencies --   1744.5546              3024.2234              3026.7129
 Red. masses --      7.7966                 1.0347                 1.0469
 Frc consts  --     13.9806                 5.5758                 5.6504
 IR Inten    --    232.9852                60.1375                65.8198

                     88                     89                     90
                      A                      A                      A
 Frequencies --   3034.6284              3051.9855              3054.2441
 Red. masses --      1.0612                 1.0359                 1.0594
 Frc consts  --      5.7578                 5.6850                 5.8224
 IR Inten    --     49.9555                41.3878                25.9731

                     91                     92                     93
                      A                      A                      A
 Frequencies --   3056.5691              3082.2852              3083.2499
 Red. masses --      1.0690                 1.1065                 1.1030
 Frc consts  --      5.8841                 6.1937                 6.1782
 IR Inten    --     43.9151                42.0210                27.3329

                     94                     95                     96
                      A                      A                      A
 Frequencies --   3091.8186              3097.5071              3117.8673
 Red. masses --      1.1038                 1.0943                 1.1023
 Frc consts  --      6.2169                 6.1862                 6.3134
 IR Inten    --      8.4231                18.1929                44.7462

                     97                     98                     99
                      A                      A                      A
 Frequencies --   3137.2674              3144.9424              3156.7004
 Red. masses --      1.1026                 1.0954                 1.0997
 Frc consts  --      6.3938                 6.3832                 6.4564
 IR Inten    --     28.1986                 2.7889                27.5093

                    100                    101                    102
                      A                      A                      A
 Frequencies --   3175.8388              3178.9626              3193.4696
 Red. masses --      1.0892                 1.0986                 1.0907
 Frc consts  --      6.4728                 6.5412                 6.5534
 IR Inten    --     17.3270                 0.8711                 1.9975

                    103                    104                    105
                      A                      A                      A
 Frequencies --   3226.0335              3466.6396              3551.4546
 Red. masses --      1.0909                 1.0496                 1.0930
 Frc consts  --      6.6894                 7.4321                 8.1221
 IR Inten    --     15.1273                 1.0609                 0.1829

 - Thermochemistry -
 -------------------
 Temperature   298.150 Kelvin.  Pressure   1.00000 Atm.
 Atom     1 has atomic number  6 and mass  12.00000

 Molecular mass:   236.15248 amu.
 Principal axes and moments of inertia in atomic units:
                           1         2         3
     Eigenvalues --  2271.358307432.654028329.65900
           X            0.99994  -0.00792   0.00801
           Y            0.00795   0.99996  -0.00377
           Z           -0.00798   0.00383   0.99996
 This molecule is an asymmetric top.
 Rotational symmetry number  1.
 Warning -- assumption of classical behavior for rotation
           may cause significant error
 Rotational temperatures (Kelvin)      0.03813     0.01165     0.01040
 Rotational constants (GHZ):           0.79456     0.24281     0.21666
 Zero-point vibrational energy     844156.4 (Joules/Mol)
                                  201.75821 (Kcal/Mol)
 Warning -- explicit consideration of  28 degrees of freedom as
           vibrations may cause significant error
 Vibrational temperatures:     31.24    51.61    72.31   105.41   116.78
          (Kelvin)            132.07   157.10   182.73   214.24   248.83
                              272.97   296.97   344.00   380.62   385.47
                              401.37   428.96   456.71   491.37   536.12
                              570.59   601.08   683.25   707.45   732.97
                              785.29   823.35   842.48   938.55  1045.29
                             1074.71  1087.14  1100.58  1111.56  1165.65
                             1187.93  1280.67  1314.39  1341.84  1362.30
                             1380.14  1437.14  1450.95  1504.11  1549.31
                             1552.74  1566.75  1587.05  1673.61  1677.70
                             1690.98  1697.07  1707.99  1715.67  1756.99
                             1779.68  1813.22  1859.89  1867.91  1884.47
                             1903.83  1923.22  1979.36  1992.29  2017.37
                             2055.11  2058.41  2110.81  2125.10  2152.63
                             2157.92  2166.84  2178.01  2187.71  2197.37
                             2203.05  2208.97  2216.70  2228.06  2239.25
                             2241.41  2367.37  2406.40  2438.38  2510.03
                             4351.18  4354.76  4366.15  4391.13  4394.38
                             4397.72  4434.72  4436.11  4448.44  4456.62
                             4485.92  4513.83  4524.87  4541.79  4569.32
                             4573.82  4594.69  4641.54  4987.72  5109.75

 Zero-point correction=                           0.321522 (Hartree/Particle)
 Thermal correction to Energy=                    0.339790
 Thermal correction to Enthalpy=                  0.340734
 Thermal correction to Gibbs Free Energy=         0.273960
 Sum of electronic and zero-point Energies=           -767.122268
 Sum of electronic and thermal Energies=              -767.104000
 Sum of electronic and thermal Enthalpies=            -767.103056
 Sum of electronic and thermal Free Energies=         -767.169831

                     E (Thermal)             CV                S
                      KCal/Mol        Cal/Mol-Kelvin    Cal/Mol-Kelvin
 Total                  213.221             67.156            140.538
 Electronic               0.000              0.000              0.000
 Translational            0.889              2.981             42.279
 Rotational               0.889              2.981             33.308
 Vibrational            211.444             61.195             64.951
 Vibration     1          0.593              1.985              6.471
 Vibration     2          0.594              1.982              5.475
 Vibration     3          0.595              1.977              4.807
 Vibration     4          0.599              1.967              4.064
 Vibration     5          0.600              1.962              3.863
 Vibration     6          0.602              1.955              3.622
 Vibration     7          0.606              1.942              3.283
 Vibration     8          0.611              1.926              2.991
 Vibration     9          0.618              1.904              2.686
 Vibration    10          0.626              1.876              2.403
 Vibration    11          0.633              1.854              2.230
 Vibration    12          0.641              1.831              2.075
 Vibration    13          0.657              1.781              1.810
 Vibration    14          0.671              1.738              1.632
 Vibration    15          0.673              1.732              1.610
 Vibration    16          0.679              1.712              1.540
 Vibration    17          0.691              1.677              1.427
 Vibration    18          0.704              1.640              1.323
 Vibration    19          0.721              1.592              1.205
 Vibration    20          0.744              1.528              1.069
 Vibration    21          0.763              1.477              0.975
 Vibration    22          0.781              1.432              0.900
 Vibration    23          0.832              1.306              0.724
 Vibration    24          0.847              1.268              0.679
 Vibration    25          0.865              1.229              0.635
 Vibration    26          0.901              1.149              0.553
 Vibration    27          0.928              1.091              0.500
 Vibration    28          0.943              1.063              0.475

 Optimization completed.
    -- Stationary point found.
 Normal termination of Gaussian 16 at Fri Dec 11 12:10:45 2020.

 ----------------------------------------------------------------------
 # B3LYP/6-311++G(d,p) empiricaldispersion=gd3bj scf=xqc pop=npa geom=c
 heck
 ----------------------------------------------------------------------

 --------------------------------------
 CID_94686885_JID_7017_Energie_neutraal
 --------------------------------------
 Structure from the checkpoint file:  "JID_7017.chk"
 Charge =  0 Multiplicity = 1

 SCF Done:  E(RB3LYP) =  -767.664318976     A.U. after   16 cycles
 Normal termination of Gaussian 16 at Fri Dec 11 12:16:51 2020.

 ----------------------------------------------------------------------
 # B3LYP/6-311++G(d,p) empiricaldispersion=gd3bj scf=xqc pop=npa geom=c
 heck
 ----------------------------------------------------------------------

 ------------------------------------
 CID_94686885_JID_7017_Energie_kation
 ------------------------------------
 Structure from the checkpoint file:  "JID_7017.chk"
 Charge =  1 Multiplicity = 2

 SCF Done:  E(UB3LYP) =  -767.383287700     A.U. after   27 cycles
 Normal termination of Gaussian 16 at Fri Dec 11 12:31:17 2020.
 Gaussian 16:  ES64L-G16RevA.03 25-Dec-2016

 ----------------------------------------------------------------------
 # B3LYP/6-311++G(d,p) empiricaldispersion=gd3bj scf=xqc pop=npa geom=c
 heck
 ----------------------------------------------------------------------

 -----------------------------------
 CID_94686885_JID_7017_Energie_anion
 -----------------------------------
 Structure from the checkpoint file:  "JID_7017.chk"
 Charge = -1 Multiplicity = 2

                         Standard orientation:
 ---------------------------------------------------------------------
 Center     Atomic      Atomic             Coordinates (Angstroms)
 Number     Number       Type             X           Y           Z
 ---------------------------------------------------------------------
      1          6           0       -3.012468    2.686773   -0.753158
      2          6           0       -2.077734    2.109857    0.322851
      3          6           0       -1.625526    0.704270    0.006102
      4          6           0       -2.498779   -0.388744    0.200648
      5          6           0       -2.096878   -1.685472   -0.119831
      6          6           0       -0.816848   -1.904295   -0.640500
      7          6           0        0.063222   -0.846143   -0.845817
      8          6           0       -0.361562    0.450403   -0.513998
      9          6           0        1.460363   -1.066545   -1.378663
     10          7           0        2.495375   -0.796295   -0.374354
     11          6           0        2.664338   -1.797664    0.669069
     12          6           0        3.139660    0.404988   -0.409187
     13          8           0        2.864936    1.283307   -1.229067
     14          6           0        4.242363    0.655507    0.624467
     15          7           0        3.650918    0.893931    1.949829
     16          8           0       -3.728555   -0.074322    0.714952
     17          6           0       -4.645047   -1.129063    0.943909
     18          1           0       -2.513002    2.711114   -1.727891
     19          1           0       -3.316796    3.708618   -0.499078
     20          1           0       -3.913999    2.074117   -0.846723
     21          1           0       -1.193847    2.750730    0.421137
     22          1           0       -2.594949    2.120672    1.289006
     23          1           0       -2.762044   -2.527647    0.029687
     24          1           0       -0.511894   -2.918075   -0.890236
     25          1           0        0.323254    1.279421   -0.673523
     26          1           0        1.577953   -2.104436   -1.712892
     27          1           0        1.663688   -0.404825   -2.222085
     28          1           0        3.100987   -1.345171    1.558554
     29          1           0        1.676936   -2.183616    0.944465
     30          1           0        3.280711   -2.638591    0.321599
     31          1           0        4.907645   -0.212740    0.698388
     32          1           0        4.824200    1.497241    0.225744
     33          1           0        4.386607    1.144623    2.608269
     34          1           0        3.031219    1.701159    1.893326
     35          1           0       -5.543482   -0.663384    1.352762
     36          1           0       -4.898247   -1.652041    0.012138
     37          1           0       -4.250669   -1.855722    1.666588
 ---------------------------------------------------------------------

 SCF Done:  E(UB3LYP) =  -767.653452834     A.U. after   33 cycles
 SCF Done:  E(UB3LYP) =  -767.653452834     a.u. after    1 cycles

 The electronic state is 2-A.
 Alpha  occ. eigenvalues --  -19.06530 -18.99280 -14.25153 -14.20774 -10.17532
 Alpha  occ. eigenvalues --  -10.14335 -10.13136 -10.11591 -10.10839 -10.10473
 Alpha  occ. eigenvalues --  -10.08877 -10.08595 -10.08533 -10.08414 -10.08276
 Alpha  occ. eigenvalues --  -10.07905 -10.07511  -0.98113  -0.94449  -0.84586
 Alpha  occ. eigenvalues --   -0.79516  -0.77028  -0.70649  -0.67835  -0.64323
 Alpha  occ. eigenvalues --   -0.63517  -0.61966  -0.60286  -0.56697  -0.54873
 Alpha  occ. eigenvalues --   -0.50960  -0.48652  -0.44998  -0.44130  -0.42766
 Alpha  occ. eigenvalues --   -0.41237  -0.39414  -0.38586  -0.38221  -0.37790
 Alpha  occ. eigenvalues --   -0.36039  -0.35315  -0.34928  -0.34274  -0.33555
 Alpha  occ. eigenvalues --   -0.33127  -0.31965  -0.31103  -0.30662  -0.29717
 Alpha  occ. eigenvalues --   -0.29362  -0.29061  -0.27819  -0.27213  -0.27012
 Alpha  occ. eigenvalues --   -0.26564  -0.25305  -0.23379  -0.23073  -0.16862
 Alpha  occ. eigenvalues --   -0.16224  -0.15994  -0.15201  -0.13164   0.03840
 Alpha virt. eigenvalues --    0.05014   0.06247   0.06746   0.07449   0.07758
 Alpha virt. eigenvalues --    0.08163   0.08623   0.08916   0.09236   0.09708
 Alpha virt. eigenvalues --    0.09923   0.10197   0.10608   0.10847   0.11003

  Beta  occ. eigenvalues --  -19.06522 -18.99263 -14.25144 -14.20720 -10.17523
  Beta  occ. eigenvalues --  -10.14336 -10.13087 -10.11587 -10.10819 -10.10452
  Beta  occ. eigenvalues --  -10.08877 -10.08589 -10.08530 -10.08411 -10.08262
  Beta  occ. eigenvalues --  -10.07902 -10.07507  -0.98096  -0.94420  -0.84564
  Beta  occ. eigenvalues --   -0.79430  -0.77019  -0.70639  -0.67818  -0.64298
  Beta  occ. eigenvalues --   -0.63483  -0.61918  -0.60224  -0.56645  -0.54859
  Beta  occ. eigenvalues --   -0.50929  -0.48630  -0.44967  -0.44096  -0.42716
  Beta  occ. eigenvalues --   -0.41211  -0.39380  -0.38557  -0.38190  -0.37729
  Beta  occ. eigenvalues --   -0.36010  -0.35291  -0.34893  -0.34248  -0.33526
  Beta  occ. eigenvalues --   -0.33097  -0.31928  -0.31085  -0.30637  -0.29691
  Beta  occ. eigenvalues --   -0.29339  -0.29033  -0.27794  -0.27196  -0.26969
  Beta  occ. eigenvalues --   -0.26535  -0.25297  -0.23358  -0.23054  -0.16818
  Beta  occ. eigenvalues --   -0.16209  -0.15954  -0.15151  -0.13151
  Beta virt. eigenvalues --    0.05940   0.06362   0.06581   0.07044   0.07619
  Beta virt. eigenvalues --    0.08201   0.08323   0.08795   0.09235   0.09556
  Beta virt. eigenvalues --    0.09870   0.10220   0.10378   0.10706   0.11256

 Mulliken charges and spin densities:
               1          2
     1  C   -0.395329  -0.253653
     2  C   -0.581102   0.208459
     3  C    0.214267   0.466232
     4  C   -0.940640   0.342830
     5  C    0.529075  -0.692901
     6  C    0.134090  -0.355674
     7  C    1.681391  -0.519475
     8  C   -0.866230   0.154781
     9  C   -0.553035  -0.186318
    10  N    0.160455   0.058534
    11  C    0.209237  -0.607136
    12  C   -0.432621   0.315985
    13  O   -0.311060   0.015208
    14  C    0.647308  -1.174787
    15  N   -0.329059  -0.029094
    16  O   -0.200432   0.061061
    17  C    0.969562  -1.284871
    18  H    0.104899   0.026646
    19  H    0.076924   0.041311
    20  H    0.132696   0.036368
    21  H    0.071814   0.081303
    22  H    0.122085   0.056982
    23  H   -0.215593   0.405964
    24  H   -0.327801   0.470180
    25  H    0.190748   0.006005
    26  H    0.139349   0.035840
    27  H    0.161976   0.057168
    28  H    0.152254   0.068847
    29  H    0.108351   0.054612
    30  H   -0.127251   0.273800
    31  H   -0.267785   0.460037
    32  H   -0.070213   0.241013
    33  H   -0.299249   0.552982
    34  H    0.129037   0.103794
    35  H   -0.477571   0.651714
    36  H   -0.250796   0.410084
    37  H   -0.289752   0.446171
 Sum of Mulliken charges =  -1.00000   1.00000

 Dipole moment (field-independent basis, Debye):
    X=             -0.4933    Y=              1.2696    Z=             -3.6901  Tot=              3.9334
 Quadrupole moment (field-independent basis, Debye-Ang):
   XX=           -216.4575   YY=           -143.6423   ZZ=           -143.6952
   XY=            -20.3380   XZ=             -5.8794   YZ=              3.6125

 Summary of Natural Population Analysis:

                                       Natural Population
                Natural  -----------------------------------------------
    Atom  No    Charge         Core      Valence    Rydberg      Total
 -----------------------------------------------------------------------
      C    1   -0.28111      0.99966     2.27746    0.00400     3.28111
      C    2   -0.19705      0.99961     2.18940    0.00803     3.19705
      C    3   -0.03004      0.99948     2.01956    0.01100     3.03004
      C    4    0.16284      0.99933     1.82484    0.01299     2.83716
      C    5   -0.13987      0.99952     2.13130    0.00904     3.13987
      C    6   -0.09451      0.99952     2.08515    0.00984     3.09451
      C    7   -0.03843      0.99950     2.02929    0.00964     3.03843
      C    8   -0.08928      0.99947     2.08205    0.00776     3.08928
      C    9   -0.09249      0.99957     2.08202    0.01090     3.09249
      N   10   -0.24684      0.99964     2.73673    0.01047     3.74684
      C   11   -0.18349      0.99963     2.17618    0.00768     3.18349
      C   12    0.34145      0.99963     1.63577    0.02315     2.65855
      O   13   -0.33339      0.99988     3.32805    0.00546     4.33339
      C   14   -0.12689      0.99961     2.11572    0.01156     3.12689
      N   15   -0.42145      0.99977     2.91100    0.01068     3.92145
      O   16   -0.27639      0.99986     3.26659    0.00994     4.27639
      C   17   -0.10025      0.99960     2.09146    0.00919     3.10025
      H   18    0.09569      0.00000     0.40335    0.00096     0.40431
      H   19    0.09408      0.00000     0.40511    0.00081     0.40592
      H   20    0.10220      0.00000     0.39641    0.00138     0.39780
      H   21    0.09861      0.00000     0.40022    0.00117     0.40139
      H   22    0.10538      0.00000     0.39322    0.00140     0.39462
      H   23    0.10782      0.00000     0.39070    0.00149     0.39218
      H   24    0.09938      0.00000     0.39947    0.00115     0.40062
      H   25    0.10973      0.00000     0.38859    0.00168     0.39027
      H   26    0.09514      0.00000     0.40380    0.00106     0.40486
      H   27    0.11688      0.00000     0.38190    0.00122     0.38312
      H   28    0.11802      0.00000     0.38021    0.00177     0.38198
      H   29    0.10064      0.00000     0.39813    0.00123     0.39936
      H   30    0.08853      0.00000     0.41038    0.00109     0.41147
      H   31    0.09663      0.00000     0.40169    0.00169     0.40337
      H   32    0.09408      0.00000     0.40443    0.00149     0.40592
      H   33    0.18143      0.00000     0.31311    0.00546     0.31857
      H   34    0.17618      0.00000     0.32178    0.00204     0.32382
      H   35    0.09481      0.00000     0.40386    0.00134     0.40519
      H   36    0.08540      0.00000     0.41274    0.00187     0.41460
      H   37    0.08658      0.00000     0.41149    0.00193     0.41342
 =======================================================================
   * Total *   -0.00000     16.99327    46.80317    0.20356    64.00000

 Normal termination of Gaussian 16 at Fri Dec 11 12:55:54 2020.
