 Gaussian 16, Revision A.03,

 -----------------------------------------------------------
 # opt freq B3LYP/6-31G(d) empiricaldispersion=gd3bj scf=xqc
 -----------------------------------------------------------

 -------------------------------
 CID_116429238_JID_6654_neutraal
 -------------------------------
 Symbolic Z-matrix:
 Charge =  0 Multiplicity = 1

 SCF Done:  E(RB3LYP) =  -689.554954992     A.U. after   14 cycles
 SCF Done:  E(RB3LYP) =  -689.560579920     A.U. after   12 cycles
 SCF Done:  E(RB3LYP) =  -689.560674188     A.U. after   12 cycles
 SCF Done:  E(RB3LYP) =  -689.562211090     A.U. after   12 cycles
 SCF Done:  E(RB3LYP) =  -689.562634838     A.U. after   11 cycles
 SCF Done:  E(RB3LYP) =  -689.562967797     A.U. after   11 cycles
 SCF Done:  E(RB3LYP) =  -689.563233419     A.U. after   12 cycles
 SCF Done:  E(RB3LYP) =  -689.563527967     A.U. after   12 cycles
 SCF Done:  E(RB3LYP) =  -689.563780155     A.U. after   11 cycles
 SCF Done:  E(RB3LYP) =  -689.563852327     A.U. after   11 cycles
 SCF Done:  E(RB3LYP) =  -689.564006190     A.U. after    9 cycles
 SCF Done:  E(RB3LYP) =  -689.564007024     A.U. after    9 cycles
 SCF Done:  E(RB3LYP) =  -689.564007391     A.U. after    9 cycles
 SCF Done:  E(RB3LYP) =  -689.564007498     A.U. after    9 cycles
 SCF Done:  E(RB3LYP) =  -689.564007151     A.U. after    9 cycles
 SCF Done:  E(RB3LYP) =  -689.564007489     A.U. after    9 cycles
 Optimization completed.
    -- Stationary point found.
 Normal termination of Gaussian 16 at Fri Dec 11 00:28:13 2020.

 --------------------------------------------------------------------
 #N Geom=AllCheck Guess=TCheck SCRF=Check GenChk RB3LYP/6-31G(d) Freq
 --------------------------------------------------------------------

 Structure from the checkpoint file:  "JID_6654.chk"
 -------------------------------
 CID_116429238_JID_6654_neutraal
 -------------------------------
 Charge =  0 Multiplicity = 1

 SCF Done:  E(RB3LYP) =  -689.564007489     A.U. after    1 cycles

  Exact polarizability: 142.148   0.511 156.993  -9.621   2.553 135.012
 Approx polarizability: 188.575   6.868 231.690 -21.749   5.341 210.458

                      1                      2                      3
                      A                      A                      A
 Frequencies --     11.8422                41.9062                45.7823
 Red. masses --      3.5410                 3.7212                 2.8978
 Frc consts  --      0.0003                 0.0039                 0.0036
 IR Inten    --      0.0966                 1.0611                 0.5999

                      4                      5                      6
                      A                      A                      A
 Frequencies --     62.1304                76.6583               117.9379
 Red. masses --      2.6092                 1.2249                 3.0832
 Frc consts  --      0.0059                 0.0042                 0.0253
 IR Inten    --      1.9930                 0.7935                 0.2482

                      7                      8                      9
                      A                      A                      A
 Frequencies --    125.9809               154.5805               170.7442
 Red. masses --      2.3207                 3.2111                 3.8752
 Frc consts  --      0.0217                 0.0452                 0.0666
 IR Inten    --      0.0294                 2.1127                 0.8873

                     10                     11                     12
                      A                      A                      A
 Frequencies --    186.8501               233.4696               239.4538
 Red. masses --      3.2291                 1.4430                 1.2756
 Frc consts  --      0.0664                 0.0463                 0.0431
 IR Inten    --      2.0644                 1.2137                 0.9376

                     13                     14                     15
                      A                      A                      A
 Frequencies --    250.8974               266.4725               271.8217
 Red. masses --      1.6288                 1.8777                 1.3377
 Frc consts  --      0.0604                 0.0786                 0.0582
 IR Inten    --      4.5661                 3.6843                40.9422

                     16                     17                     18
                      A                      A                      A
 Frequencies --    302.0197               333.4022               368.6385
 Red. masses --      2.1210                 3.0162                 3.0188
 Frc consts  --      0.1140                 0.1975                 0.2417
 IR Inten    --      5.2666                 2.2362                 6.1542

                     19                     20                     21
                      A                      A                      A
 Frequencies --    424.4385               432.2873               455.0269
 Red. masses --      2.3671                 2.2448                 2.7336
 Frc consts  --      0.2512                 0.2472                 0.3335
 IR Inten    --      0.3771                 0.4512                 0.0524

                     22                     23                     24
                      A                      A                      A
 Frequencies --    476.8360               502.3541               539.6365
 Red. masses --      3.2590                 3.5138                 2.6959
 Frc consts  --      0.4366                 0.5224                 0.4626
 IR Inten    --      1.0073                 7.7700                 3.5330

                     25                     26                     27
                      A                      A                      A
 Frequencies --    631.1122               638.2962               648.0791
 Red. masses --      3.9348                 3.6308                 3.8259
 Frc consts  --      0.9234                 0.8716                 0.9468
 IR Inten    --      9.1856                 2.2192                 2.7871

                     28                     29                     30
                      A                      A                      A
 Frequencies --    700.6776               735.6583               783.1451
 Red. masses --      2.5415                 4.1283                 1.9184
 Frc consts  --      0.7351                 1.3164                 0.6932
 IR Inten    --     37.9715                10.9849                 4.4291

                     31                     32                     33
                      A                      A                      A
 Frequencies --    789.9632               856.6300               864.5321
 Red. masses --      1.9733                 1.4140                 2.4177
 Frc consts  --      0.7255                 0.6114                 1.0647
 IR Inten    --      8.9004                12.4539                 1.6199

                     34                     35                     36
                      A                      A                      A
 Frequencies --    900.1713               904.5325               924.9944
 Red. masses --      1.5071                 1.7386                 1.9111
 Frc consts  --      0.7195                 0.8381                 0.9634
 IR Inten    --     12.2486               138.6059                 1.8527

                     37                     38                     39
                      A                      A                      A
 Frequencies --    954.2960               962.7366               976.9089
 Red. masses --      1.4964                 3.0175                 1.8369
 Frc consts  --      0.8029                 1.6479                 1.0329
 IR Inten    --     17.2934                43.3106                35.9478

                     40                     41                     42
                      A                      A                      A
 Frequencies --    980.6059              1011.5804              1016.2032
 Red. masses --      1.5352                 3.5136                 1.3330
 Frc consts  --      0.8698                 2.1184                 0.8110
 IR Inten    --     13.6919                12.2991                 3.4899

                     43                     44                     45
                      A                      A                      A
 Frequencies --   1055.3544              1060.5301              1081.4651
 Red. masses --      2.6801                 2.0151                 1.5765
 Frc consts  --      1.7587                 1.3353                 1.0863
 IR Inten    --      5.1446                 7.2994                 3.3244

                     46                     47                     48
                      A                      A                      A
 Frequencies --   1092.8332              1116.7632              1145.8551
 Red. masses --      2.2252                 2.5502                 2.1266
 Frc consts  --      1.5657                 1.8739                 1.6451
 IR Inten    --      6.5486                13.7735                 3.6829

                     49                     50                     51
                      A                      A                      A
 Frequencies --   1151.9917              1157.2930              1176.2898
 Red. masses --      1.7358                 1.3423                 1.8968
 Frc consts  --      1.3572                 1.0592                 1.5464
 IR Inten    --     14.0451                 9.8859                 1.1590

                     52                     53                     54
                      A                      A                      A
 Frequencies --   1186.0900              1195.9419              1208.4880
 Red. masses --      1.5743                 1.8080                 1.7970
 Frc consts  --      1.3049                 1.5236                 1.5462
 IR Inten    --     15.4049                 9.4421                 0.5171

                     55                     56                     57
                      A                      A                      A
 Frequencies --   1226.5271              1245.8952              1267.3559
 Red. masses --      1.6153                 1.8102                 1.8401
 Frc consts  --      1.4317                 1.6556                 1.7414
 IR Inten    --     12.0388                16.7524                25.9692

                     58                     59                     60
                      A                      A                      A
 Frequencies --   1275.0098              1299.7615              1317.2558
 Red. masses --      1.4897                 1.3527                 1.6772
 Frc consts  --      1.4268                 1.3464                 1.7146
 IR Inten    --      9.0478                 1.4140                17.5142

                     61                     62                     63
                      A                      A                      A
 Frequencies --   1340.3797              1357.2429              1369.5210
 Red. masses --      2.1191                 1.6946                 1.4471
 Frc consts  --      2.2432                 1.8392                 1.5991
 IR Inten    --     25.6164                 0.7850                 6.8705

                     64                     65                     66
                      A                      A                      A
 Frequencies --   1374.2177              1388.8965              1404.1308
 Red. masses --      1.3973                 1.4479                 2.4084
 Frc consts  --      1.5547                 1.6456                 2.7976
 IR Inten    --     17.3991                14.6377                 1.6133

                     67                     68                     69
                      A                      A                      A
 Frequencies --   1408.2146              1412.0213              1419.6802
 Red. masses --      1.4973                 1.5938                 1.5525
 Frc consts  --      1.7494                 1.8722                 1.8436
 IR Inten    --      3.0244                 2.0173                15.6644

                     70                     71                     72
                      A                      A                      A
 Frequencies --   1431.8426              1434.5103              1442.0436
 Red. masses --      1.5881                 1.3480                 1.3059
 Frc consts  --      1.9183                 1.6344                 1.5999
 IR Inten    --      3.9423                16.5066                 6.4761

                     73                     74                     75
                      A                      A                      A
 Frequencies --   1448.8561              1469.8021              1490.2042
 Red. masses --      2.3572                 1.6875                 1.8992
 Frc consts  --      2.9153                 2.1479                 2.4850
 IR Inten    --     37.1580                 4.9748                 6.4803

                     76                     77                     78
                      A                      A                      A
 Frequencies --   1501.7569              1511.3270              1517.2480
 Red. masses --      1.0965                 1.0644                 1.1041
 Frc consts  --      1.4570                 1.4324                 1.4976
 IR Inten    --      2.9346                 7.1493                 0.7495

                     79                     80                     81
                      A                      A                      A
 Frequencies --   1520.6034              1527.4730              1529.9979
 Red. masses --      1.0602                 1.0516                 1.0451
 Frc consts  --      1.4444                 1.4456                 1.4414
 IR Inten    --      2.1574                 2.7453                 5.6211

                     82                     83                     84
                      A                      A                      A
 Frequencies --   1533.1740              1543.6128              1564.3661
 Red. masses --      1.0479                 1.1538                 1.0873
 Frc consts  --      1.4513                 1.6197                 1.5678
 IR Inten    --      2.5267                 5.7882                 2.1865

                     85                     86                     87
                      A                      A                      A
 Frequencies --   1612.0032              1698.4471              2978.2789
 Red. masses --      4.9056                 1.0911                 1.0669
 Frc consts  --      7.5107                 1.8544                 5.5759
 IR Inten    --     13.9729                22.1515                86.2412

                     88                     89                     90
                      A                      A                      A
 Frequencies --   2993.8995              2996.9893              3023.5883
 Red. masses --      1.0870                 1.0850                 1.0850
 Frc consts  --      5.7403                 5.7421                 5.8444
 IR Inten    --     16.4546                39.3191                46.9408

                     91                     92                     93
                      A                      A                      A
 Frequencies --   3032.5779              3038.8901              3043.1495
 Red. masses --      1.0599                 1.0415                 1.0551
 Frc consts  --      5.7429                 5.6670                 5.7567
 IR Inten    --     45.4569                18.5344                63.6655

                     94                     95                     96
                      A                      A                      A
 Frequencies --   3048.1966              3049.7531              3062.8324
 Red. masses --      1.0475                 1.0775                 1.0384
 Frc consts  --      5.7346                 5.9045                 5.7392
 IR Inten    --     47.4075                 5.8316                54.9534

                     97                     98                     99
                      A                      A                      A
 Frequencies --   3079.8097              3101.3606              3105.1843
 Red. masses --      1.1019                 1.1007                 1.1022
 Frc consts  --      6.1578                 6.2379                 6.2615
 IR Inten    --     46.4461                18.5899                26.9688

                    100                    101                    102
                      A                      A                      A
 Frequencies --   3109.7478              3111.5323              3123.2187
 Red. masses --      1.1020                 1.1010                 1.1033
 Frc consts  --      6.2786                 6.2802                 6.3406
 IR Inten    --     49.7876                37.9711                43.3839

                    103                    104                    105
                      A                      A                      A
 Frequencies --   3135.2168              3171.7021              3243.7510
 Red. masses --      1.0988                 1.1049                 1.0951
 Frc consts  --      6.3633                 6.5490                 6.7887
 IR Inten    --     16.2723                 6.7020                 6.1194

                    106                    107                    108
                      A                      A                      A
 Frequencies --   3265.7757              3450.6840              3535.0661
 Red. masses --      1.0972                 1.0500                 1.0914
 Frc consts  --      6.8946                 7.3663                 8.0356
 IR Inten    --      1.1172                 2.4076                 0.7516

 - Thermochemistry -
 -------------------
 Temperature   298.150 Kelvin.  Pressure   1.00000 Atm.
 Atom     1 has atomic number  6 and mass  12.00000

 Molecular mass:   222.18445 amu.
 Principal axes and moments of inertia in atomic units:
                           1         2         3
     Eigenvalues --  2858.610144411.621925390.70583
           X            0.99985  -0.01759   0.00024
           Y            0.01757   0.99934   0.03177
           Z           -0.00080  -0.03176   0.99950
 This molecule is an asymmetric top.
 Rotational symmetry number  1.
 Warning -- assumption of classical behavior for rotation
           may cause significant error
 Rotational temperatures (Kelvin)      0.03030     0.01963     0.01607
 Rotational constants (GHZ):           0.63134     0.40909     0.33479
 Zero-point vibrational energy     894715.6 (Joules/Mol)
                                  213.84216 (Kcal/Mol)
 Warning -- explicit consideration of  24 degrees of freedom as
           vibrations may cause significant error
 Vibrational temperatures:     17.04    60.29    65.87    89.39   110.29
          (Kelvin)            169.69   181.26   222.41   245.66   268.84
                              335.91   344.52   360.99   383.39   391.09
                              434.54   479.69   530.39   610.67   621.96
                              654.68   686.06   722.78   776.42   908.03
                              918.37   932.44  1008.12  1058.45  1126.77
                             1136.58  1232.50  1243.87  1295.15  1301.42
                             1330.86  1373.02  1385.16  1405.55  1410.87
                             1455.44  1462.09  1518.42  1525.87  1555.99
                             1572.34  1606.77  1648.63  1657.46  1665.09
                             1692.42  1706.52  1720.69  1738.74  1764.70
                             1792.57  1823.44  1834.45  1870.07  1895.24
                             1928.51  1952.77  1970.44  1977.19  1998.31
                             2020.23  2026.11  2031.58  2042.60  2060.10
                             2063.94  2074.78  2084.58  2114.72  2144.07
                             2160.69  2174.46  2182.98  2187.81  2197.69
                             2201.33  2205.90  2220.91  2250.77  2319.31
                             2443.69  4285.08  4307.55  4312.00  4350.27
                             4363.20  4372.29  4378.41  4385.67  4387.91
                             4406.73  4431.16  4462.17  4467.67  4474.23
                             4476.80  4493.62  4510.88  4563.37  4667.03
                             4698.72  4964.76  5086.17

 Zero-point correction=                           0.340779 (Hartree/Particle)
 Thermal correction to Energy=                    0.357874
 Thermal correction to Enthalpy=                  0.358818
 Thermal correction to Gibbs Free Energy=         0.294294
 Sum of electronic and zero-point Energies=           -689.223228
 Sum of electronic and thermal Energies=              -689.206133
 Sum of electronic and thermal Enthalpies=            -689.205189
 Sum of electronic and thermal Free Energies=         -689.269713

                     E (Thermal)             CV                S
                      KCal/Mol        Cal/Mol-Kelvin    Cal/Mol-Kelvin
 Total                  224.570             63.815            135.803
 Electronic               0.000              0.000              0.000
 Translational            0.889              2.981             42.098
 Rotational               0.889              2.981             32.586
 Vibrational            222.792             57.853             61.119
 Vibration     1          0.593              1.987              7.675
 Vibration     2          0.595              1.980              5.167
 Vibration     3          0.595              1.979              4.992
 Vibration     4          0.597              1.972              4.388
 Vibration     5          0.599              1.965              3.975
 Vibration     6          0.608              1.934              3.134
 Vibration     7          0.611              1.927              3.007
 Vibration     8          0.620              1.898              2.615
 Vibration     9          0.626              1.878              2.427
 Vibration    10          0.632              1.858              2.259
 Vibration    11          0.654              1.790              1.852
 Vibration    12          0.657              1.780              1.807
 Vibration    13          0.663              1.761              1.724
 Vibration    14          0.672              1.735              1.619
 Vibration    15          0.675              1.725              1.585
 Vibration    16          0.694              1.670              1.406
 Vibration    17          0.715              1.609              1.244
 Vibration    18          0.741              1.537              1.085
 Vibration    19          0.786              1.417              0.877
 Vibration    20          0.793              1.400              0.851
 Vibration    21          0.813              1.350              0.781
 Vibration    22          0.833              1.301              0.719
 Vibration    23          0.858              1.245              0.652
 Vibration    24          0.895              1.162              0.566

 Optimization completed on the basis of negligible forces.
    -- Stationary point found.
 Normal termination of Gaussian 16 at Fri Dec 11 00:43:09 2020.

 ----------------------------------------------------------------------
 # B3LYP/6-311++G(d,p) empiricaldispersion=gd3bj scf=xqc pop=npa geom=c
 heck
 ----------------------------------------------------------------------

 ---------------------------------------
 CID_116429238_JID_6654_Energie_neutraal
 ---------------------------------------
 Structure from the checkpoint file:  "JID_6654.chk"
 Charge =  0 Multiplicity = 1

 SCF Done:  E(RB3LYP) =  -689.757336492     A.U. after   15 cycles
 Normal termination of Gaussian 16 at Fri Dec 11 00:51:17 2020.

 ----------------------------------------------------------------------
 # B3LYP/6-311++G(d,p) empiricaldispersion=gd3bj scf=xqc pop=npa geom=c
 heck
 ----------------------------------------------------------------------

 -------------------------------------
 CID_116429238_JID_6654_Energie_kation
 -------------------------------------
 Structure from the checkpoint file:  "JID_6654.chk"
 Charge =  1 Multiplicity = 2

 SCF Done:  E(UB3LYP) =  -689.495582296     A.U. after   24 cycles
 Normal termination of Gaussian 16 at Fri Dec 11 01:09:37 2020.
 Gaussian 16:  ES64L-G16RevA.03 25-Dec-2016

 ----------------------------------------------------------------------
 # B3LYP/6-311++G(d,p) empiricaldispersion=gd3bj scf=xqc pop=npa geom=c
 heck
 ----------------------------------------------------------------------

 ------------------------------------
 CID_116429238_JID_6654_Energie_anion
 ------------------------------------
 Structure from the checkpoint file:  "JID_6654.chk"
 Charge = -1 Multiplicity = 2

                         Standard orientation:
 ---------------------------------------------------------------------
 Center     Atomic      Atomic             Coordinates (Angstroms)
 Number     Number       Type             X           Y           Z
 ---------------------------------------------------------------------
      1          6           0        3.657458   -1.541315   -1.219387
      2          6           0        2.367121   -1.011728   -0.601584
      3          6           0        2.381675   -0.887379    0.928260
      4          6           0        1.224398    0.074565    1.212716
      5          7           0        1.363541    1.035860    0.109585
      6          6           0        1.987451    0.413326   -1.055998
      7          6           0        0.386381    2.074240   -0.111774
      8          6           0       -0.873152    1.712516   -0.945661
      9          6           0       -1.582713    0.497919   -0.409706
     10          6           0       -1.576448   -0.785688   -0.928782
     11          7           0       -2.270146   -1.576350   -0.063845
     12          7           0       -2.754420   -0.879404    0.988485
     13          6           0       -2.337048    0.371263    0.783952
     14          6           0       -2.617132   -2.974114   -0.215693
     15          7           0       -1.697400    2.929143   -1.036601
     16          6           0        1.305152    0.743728    2.581566
     17          1           0        3.592512   -1.580484   -2.313476
     18          1           0        3.883110   -2.552768   -0.861961
     19          1           0        4.504430   -0.895245   -0.957736
     20          1           0        1.539800   -1.683365   -0.871763
     21          1           0        2.264347   -1.849108    1.438805
     22          1           0        3.326682   -0.436517    1.260892
     23          1           0        0.280474   -0.491410    1.161714
     24          1           0        2.878933    0.982470   -1.368068
     25          1           0        1.322014    0.372836   -1.932223
     26          1           0        0.051226    2.442773    0.865973
     27          1           0        0.862773    2.926110   -0.615357
     28          1           0       -0.546227    1.486638   -1.967926
     29          1           0       -1.120485   -1.187809   -1.822720
     30          1           0       -2.582745    1.136643    1.509364
     31          1           0       -2.617025   -3.441010    0.770645
     32          1           0       -3.609196   -3.089723   -0.666316
     33          1           0       -1.873222   -3.461129   -0.850612
     34          1           0       -2.543021    2.719617   -1.565910
     35          1           0       -2.018305    3.183793   -0.101851
     36          1           0        0.452066    1.407488    2.760821
     37          1           0        1.298269   -0.013812    3.373735
     38          1           0        2.223715    1.335274    2.663137
 ---------------------------------------------------------------------

 SCF Done:  E(UB3LYP) =  -689.745771533     A.U. after   32 cycles

 The electronic state is 2-A.
 Alpha  occ. eigenvalues --  -14.29357 -14.23308 -14.20960 -14.19975 -10.11162
 Alpha  occ. eigenvalues --  -10.10793 -10.10525 -10.10090 -10.09946 -10.09307
 Alpha  occ. eigenvalues --  -10.09164 -10.07508 -10.07265 -10.06856 -10.06653
 Alpha  occ. eigenvalues --  -10.06290  -0.95359  -0.83702  -0.80215  -0.74429
 Alpha  occ. eigenvalues --   -0.70661  -0.69280  -0.67197  -0.62775  -0.60335
 Alpha  occ. eigenvalues --   -0.58745  -0.56674  -0.53323  -0.48619  -0.47944
 Alpha  occ. eigenvalues --   -0.47378  -0.45418  -0.42729  -0.41675  -0.39514
 Alpha  occ. eigenvalues --   -0.37911  -0.37627  -0.35428  -0.35103  -0.34477
 Alpha  occ. eigenvalues --   -0.34186  -0.33449  -0.31933  -0.31417  -0.30712
 Alpha  occ. eigenvalues --   -0.30074  -0.29659  -0.29406  -0.28523  -0.27458
 Alpha  occ. eigenvalues --   -0.26461  -0.25858  -0.24761  -0.23311  -0.22708
 Alpha  occ. eigenvalues --   -0.22052  -0.19987  -0.17379  -0.15998  -0.14259
 Alpha  occ. eigenvalues --   -0.10441   0.04294
 Alpha virt. eigenvalues --    0.06301   0.06779   0.07179   0.08075   0.08683
 Alpha virt. eigenvalues --    0.08940   0.09072   0.09794   0.10010   0.10660
 Alpha virt. eigenvalues --    0.11434   0.11563   0.11701   0.12111   0.12267

  Beta  occ. eigenvalues --  -14.29357 -14.23299 -14.20950 -14.19971 -10.11155
  Beta  occ. eigenvalues --  -10.10734 -10.10498 -10.10088 -10.09941 -10.09300
  Beta  occ. eigenvalues --  -10.09153 -10.07495 -10.07265 -10.06852 -10.06643
  Beta  occ. eigenvalues --  -10.06263  -0.95350  -0.83690  -0.80199  -0.74408
  Beta  occ. eigenvalues --   -0.70639  -0.69257  -0.67181  -0.62744  -0.60283
  Beta  occ. eigenvalues --   -0.58714  -0.56642  -0.53298  -0.48592  -0.47899
  Beta  occ. eigenvalues --   -0.47327  -0.45390  -0.42676  -0.41649  -0.39494
  Beta  occ. eigenvalues --   -0.37883  -0.37601  -0.35401  -0.35073  -0.34446
  Beta  occ. eigenvalues --   -0.34157  -0.33423  -0.31909  -0.31381  -0.30671
  Beta  occ. eigenvalues --   -0.30046  -0.29644  -0.29375  -0.28502  -0.27437
  Beta  occ. eigenvalues --   -0.26441  -0.25837  -0.24747  -0.23287  -0.22675
  Beta  occ. eigenvalues --   -0.22031  -0.19967  -0.17367  -0.15980  -0.14245
  Beta  occ. eigenvalues --   -0.10422
  Beta virt. eigenvalues --    0.06189   0.06939   0.07368   0.07645   0.08384
  Beta virt. eigenvalues --    0.09072   0.09218   0.09298   0.10114   0.10231
  Beta virt. eigenvalues --    0.10877   0.11720   0.11763   0.12028   0.12311

 Mulliken charges and spin densities:
               1          2
     1  C    0.533194  -1.344408
     2  C   -0.936703   1.374677
     3  C    0.007493  -0.657320
     4  C   -0.109258   0.257395
     5  N    0.250851   0.023318
     6  C    0.245181  -0.642290
     7  C   -0.064815  -0.255699
     8  C    0.038286  -0.788213
     9  C    0.611645   0.364155
    10  C   -0.724789  -0.392141
    11  N    0.246282   0.090000
    12  N   -0.449590   0.269257
    13  C    0.004437  -0.382657
    14  C    1.615013  -1.900385
    15  N   -0.221626   0.054269
    16  C   -0.586906  -0.039706
    17  H   -0.315621   0.461839
    18  H   -0.288630   0.437760
    19  H    0.041300   0.085282
    20  H    0.244362  -0.032114
    21  H   -0.119353   0.286018
    22  H    0.162707  -0.011547
    23  H    0.154280  -0.059431
    24  H   -0.000395   0.147206
    25  H    0.236155  -0.124990
    26  H    0.074628   0.039720
    27  H    0.173606  -0.000150
    28  H   -0.018263   0.251776
    29  H   -1.062677   1.240834
    30  H    0.047590   0.078713
    31  H   -0.203353   0.368034
    32  H   -0.447712   0.632016
    33  H   -0.701543   0.872276
    34  H    0.109235   0.124312
    35  H    0.173113   0.053877
    36  H    0.088441   0.029323
    37  H    0.081776   0.054452
    38  H    0.111661   0.034542
 Sum of Mulliken charges =  -1.00000   1.00000

 Dipole moment (field-independent basis, Debye):
    X=              1.6403    Y=              7.8349    Z=              4.7913  Tot=              9.3291
 Quadrupole moment (field-independent basis, Debye-Ang):
   XX=           -158.8468   YY=           -166.7865   ZZ=           -143.1802
   XY=             -6.2271   XZ=              2.0211   YZ=             -7.2083

 Summary of Natural Population Analysis:

                                       Natural Population
                Natural  -----------------------------------------------
    Atom  No    Charge         Core      Valence    Rydberg      Total
 -----------------------------------------------------------------------
      C    1   -0.28124      0.99965     2.27539    0.00620     3.28124
      C    2   -0.11909      0.99960     2.10901    0.01047     3.11909
      C    3   -0.18465      0.99960     2.17547    0.00958     3.18465
      C    4   -0.00583      0.99959     1.99362    0.01263     3.00583
      N    5   -0.28948      0.99970     2.77797    0.01181     3.78948
      C    6   -0.07276      0.99961     2.06281    0.01034     3.07276
      C    7   -0.07374      0.99959     2.06316    0.01098     3.07374
      C    8   -0.02903      0.99956     2.01730    0.01217     3.02903
      C    9   -0.08728      0.99950     2.07334    0.01444     3.08728
      C   10   -0.00132      0.99948     1.98918    0.01266     3.00132
      N   11   -0.10420      0.99967     2.59079    0.01374     3.60420
      N   12   -0.15186      0.99973     2.64008    0.01205     3.65186
      C   13   -0.01643      0.99956     2.00348    0.01339     3.01643
      C   14   -0.17148      0.99963     2.16321    0.00863     3.17148
      N   15   -0.41537      0.99978     2.90717    0.00843     3.91537
      C   16   -0.28502      0.99964     2.28052    0.00486     3.28502
      H   17    0.10167      0.00000     0.39723    0.00109     0.39833
      H   18    0.10137      0.00000     0.39761    0.00103     0.39863
      H   19    0.09314      0.00000     0.40592    0.00094     0.40686
      H   20    0.09885      0.00000     0.39775    0.00340     0.40115
      H   21    0.10284      0.00000     0.39636    0.00081     0.39716
      H   22    0.09204      0.00000     0.40669    0.00127     0.40796
      H   23    0.08888      0.00000     0.40803    0.00309     0.41112
      H   24    0.08449      0.00000     0.41415    0.00135     0.41551
      H   25    0.08759      0.00000     0.41078    0.00163     0.41241
      H   26    0.09115      0.00000     0.40776    0.00108     0.40885
      H   27    0.09634      0.00000     0.40257    0.00109     0.40366
      H   28    0.09580      0.00000     0.40222    0.00198     0.40420
      H   29    0.11122      0.00000     0.38561    0.00317     0.38878
      H   30    0.09479      0.00000     0.40411    0.00110     0.40521
      H   31    0.10512      0.00000     0.39320    0.00168     0.39488
      H   32    0.09902      0.00000     0.39904    0.00194     0.40098
      H   33    0.10721      0.00000     0.38913    0.00366     0.39279
      H   34    0.17645      0.00000     0.32189    0.00165     0.32355
      H   35    0.16814      0.00000     0.33014    0.00172     0.33186
      H   36    0.09648      0.00000     0.40254    0.00097     0.40352
      H   37    0.09929      0.00000     0.39995    0.00076     0.40071
      H   38    0.09690      0.00000     0.40189    0.00120     0.40310
 =======================================================================
   * Total *   -0.00000     15.99389    44.79708    0.20902    61.00000

 Normal termination of Gaussian 16 at Fri Dec 11 01:33:14 2020.
