 Gaussian 16, Revision A.03,

 -----------------------------------------------------------
 # opt freq B3LYP/6-31G(d) empiricaldispersion=gd3bj scf=xqc
 -----------------------------------------------------------

 ------------------------------
 CID_87791465_JID_1015_neutraal
 ------------------------------
 Symbolic Z-matrix:
 Charge =  0 Multiplicity = 1

 SCF Done:  E(RB3LYP) =  -483.183743295     A.U. after   13 cycles
 SCF Done:  E(RB3LYP) =  -483.187665534     A.U. after   12 cycles
 SCF Done:  E(RB3LYP) =  -483.188261289     A.U. after   11 cycles
 SCF Done:  E(RB3LYP) =  -483.188365745     A.U. after   11 cycles
 SCF Done:  E(RB3LYP) =  -483.188393668     A.U. after   11 cycles
 SCF Done:  E(RB3LYP) =  -483.188399591     A.U. after    9 cycles
 SCF Done:  E(RB3LYP) =  -483.188400643     A.U. after    8 cycles
 SCF Done:  E(RB3LYP) =  -483.188400771     A.U. after    7 cycles
 Optimization completed.
    -- Stationary point found.
 Normal termination of Gaussian 16 at Tue Dec  8 19:09:37 2020.

 --------------------------------------------------------------------
 #N Geom=AllCheck Guess=TCheck SCRF=Check GenChk RB3LYP/6-31G(d) Freq
 --------------------------------------------------------------------

 Structure from the checkpoint file:  "JID_1015.chk"
 ------------------------------
 CID_87791465_JID_1015_neutraal
 ------------------------------
 Charge =  0 Multiplicity = 1

 SCF Done:  E(RB3LYP) =  -483.188400771     A.U. after    1 cycles

  Exact polarizability: 120.554 -10.276  99.922  -0.943   3.887  92.671
 Approx polarizability: 146.834 -18.540 149.371  -2.135   7.184 135.864

                      1                      2                      3
                      A                      A                      A
 Frequencies --     50.0441                65.6487               119.7275
 Red. masses --      3.1206                 2.9686                 1.8778
 Frc consts  --      0.0046                 0.0075                 0.0159
 IR Inten    --      0.1221                 0.4469                 0.0193

                      4                      5                      6
                      A                      A                      A
 Frequencies --    151.6981               195.7911               209.8192
 Red. masses --      1.9739                 3.3483                 1.4231
 Frc consts  --      0.0268                 0.0756                 0.0369
 IR Inten    --      0.9011                 1.4485                 2.0074

                      7                      8                      9
                      A                      A                      A
 Frequencies --    237.1465               264.6181               286.4889
 Red. masses --      2.6187                 2.2508                 2.6412
 Frc consts  --      0.0868                 0.0929                 0.1277
 IR Inten    --      1.9931                 0.0341                 4.4095

                     10                     11                     12
                      A                      A                      A
 Frequencies --    331.3407               363.1099               411.3725
 Red. masses --      2.9989                 2.2617                 1.8214
 Frc consts  --      0.1940                 0.1757                 0.1816
 IR Inten    --      0.5491                26.9604                26.8317

                     13                     14                     15
                      A                      A                      A
 Frequencies --    458.3554               464.1469               484.9954
 Red. masses --      1.5773                 2.6141                 2.2482
 Frc consts  --      0.1952                 0.3318                 0.3116
 IR Inten    --     73.1463                10.3926                12.1247

                     16                     17                     18
                      A                      A                      A
 Frequencies --    524.4238               541.0648               654.4213
 Red. masses --      2.5899                 2.4322                 2.6317
 Frc consts  --      0.4197                 0.4195                 0.6641
 IR Inten    --     12.5473                 3.1465                11.7550

                     19                     20                     21
                      A                      A                      A
 Frequencies --    785.7397               827.1430               836.9956
 Red. masses --      2.7252                 1.7883                 1.6971
 Frc consts  --      0.9913                 0.7209                 0.7005
 IR Inten    --      8.5584                 0.9051                 2.1272

                     22                     23                     24
                      A                      A                      A
 Frequencies --    868.8536               883.9723               920.7052
 Red. masses --      2.6726                 1.3983                 2.2362
 Frc consts  --      1.1887                 0.6438                 1.1169
 IR Inten    --      4.4297                 6.2638                 2.0710

                     25                     26                     27
                      A                      A                      A
 Frequencies --    949.6511               992.9258              1004.4382
 Red. masses --      1.6181                 1.2862                 2.4394
 Frc consts  --      0.8598                 0.7471                 1.4501
 IR Inten    --     34.0952                 1.5511                18.6240

                     28                     29                     30
                      A                      A                      A
 Frequencies --   1013.9429              1056.2509              1058.2619
 Red. masses --      1.0936                 3.0225                 2.1620
 Frc consts  --      0.6624                 1.9868                 1.4265
 IR Inten    --     32.9457                 3.4458                18.9821

                     31                     32                     33
                      A                      A                      A
 Frequencies --   1080.1185              1088.0795              1096.6769
 Red. masses --      1.5289                 1.7611                 2.8394
 Frc consts  --      1.0509                 1.2285                 2.0120
 IR Inten    --      0.2377                 9.8233               145.6125

                     34                     35                     36
                      A                      A                      A
 Frequencies --   1118.3000              1137.6280              1164.0889
 Red. masses --      2.3268                 2.8825                 2.0763
 Frc consts  --      1.7144                 2.1980                 1.6578
 IR Inten    --     48.3234                 6.5235                11.7361

                     37                     38                     39
                      A                      A                      A
 Frequencies --   1189.1255              1194.7488              1251.3392
 Red. masses --      1.2102                 2.2958                 1.6046
 Frc consts  --      1.0082                 1.9308                 1.4804
 IR Inten    --      3.8805                13.3775                23.7238

                     40                     41                     42
                      A                      A                      A
 Frequencies --   1284.7527              1304.5885              1312.5081
 Red. masses --      1.3697                 1.2500                 1.1749
 Frc consts  --      1.3321                 1.2535                 1.1925
 IR Inten    --     36.8504                 3.7489                 8.2265

                     43                     44                     45
                      A                      A                      A
 Frequencies --   1316.9042              1346.4608              1355.0305
 Red. masses --      1.2661                 1.3198                 1.3721
 Frc consts  --      1.2937                 1.4097                 1.4843
 IR Inten    --     21.8909                 4.6867                30.9961

                     46                     47                     48
                      A                      A                      A
 Frequencies --   1370.5124              1391.1932              1401.2646
 Red. masses --      1.2913                 1.3586                 1.4245
 Frc consts  --      1.4290                 1.5493                 1.6480
 IR Inten    --      1.7073                15.6542                 0.6836

                     49                     50                     51
                      A                      A                      A
 Frequencies --   1402.9721              1419.1867              1436.0550
 Red. masses --      1.4645                 1.3445                 1.4944
 Frc consts  --      1.6983                 1.5955                 1.8158
 IR Inten    --      1.8729                 0.7667                22.7460

                     52                     53                     54
                      A                      A                      A
 Frequencies --   1441.4448              1458.3982              1505.8751
 Red. masses --      1.2566                 1.4688                 1.0976
 Frc consts  --      1.5383                 1.8406                 1.4664
 IR Inten    --      2.9914                31.5108                 0.9027

                     55                     56                     57
                      A                      A                      A
 Frequencies --   1510.0109              1513.5773              1521.7924
 Red. masses --      1.0452                 1.0860                 1.0578
 Frc consts  --      1.4042                 1.4659                 1.4434
 IR Inten    --      6.1061                 5.8742                10.7781

                     58                     59                     60
                      A                      A                      A
 Frequencies --   1523.4758              1529.6600              1543.9622
 Red. masses --      1.1030                 1.0853                 1.0988
 Frc consts  --      1.5084                 1.4962                 1.5432
 IR Inten    --      5.7719                 0.0807                 4.4511

                     61                     62                     63
                      A                      A                      A
 Frequencies --   1759.4203              2936.9096              2947.1284
 Red. masses --      5.9285                 1.0725                 1.0722
 Frc consts  --     10.8126                 5.4506                 5.4869
 IR Inten    --     13.1286                25.7576                66.4353

                     64                     65                     66
                      A                      A                      A
 Frequencies --   2987.4122              3026.8418              3033.5590
 Red. masses --      1.0845                 1.0668                 1.0375
 Frc consts  --      5.7023                 5.7586                 5.6250
 IR Inten    --     45.6652                25.6143                37.3983

                     67                     68                     69
                      A                      A                      A
 Frequencies --   3042.9949              3043.6807              3069.5829
 Red. masses --      1.0609                 1.0620                 1.0874
 Frc consts  --      5.7879                 5.7965                 6.0365
 IR Inten    --     24.4375                25.1576                55.5909

                     70                     71                     72
                      A                      A                      A
 Frequencies --   3078.5495              3080.3068              3085.4446
 Red. masses --      1.0936                 1.1001                 1.1046
 Frc consts  --      6.1069                 6.1497                 6.1955
 IR Inten    --     58.4446                22.7874                26.5641

                     73                     74                     75
                      A                      A                      A
 Frequencies --   3091.2891              3112.2862              3117.5532
 Red. masses --      1.1055                 1.0889                 1.0972
 Frc consts  --      6.2243                 6.2144                 6.2827
 IR Inten    --     73.5712                19.7839                 5.1328

                     76                     77                     78
                      A                      A                      A
 Frequencies --   3138.0367              3168.9865              3706.2705
 Red. masses --      1.0918                 1.0889                 1.0646
 Frc consts  --      6.3344                 6.4431                 8.6161
 IR Inten    --     35.0129                15.1308                10.6183

 - Thermochemistry -
 -------------------
 Temperature   298.150 Kelvin.  Pressure   1.00000 Atm.
 Atom     1 has atomic number  6 and mass  12.00000

 Molecular mass:   155.13101 amu.
 Principal axes and moments of inertia in atomic units:
                           1         2         3
     Eigenvalues --  1085.866362804.913233194.13325
           X            0.99984  -0.01779   0.00346
           Y            0.01774   0.99974   0.01432
           Z           -0.00371  -0.01426   0.99989
 This molecule is an asymmetric top.
 Rotational symmetry number  1.
 Warning -- assumption of classical behavior for rotation
           may cause significant error
 Rotational temperatures (Kelvin)      0.07976     0.03088     0.02712
 Rotational constants (GHZ):           1.66203     0.64342     0.56502
 Zero-point vibrational energy     667809.8 (Joules/Mol)
                                  159.61037 (Kcal/Mol)
 Warning -- explicit consideration of  17 degrees of freedom as
           vibrations may cause significant error
 Vibrational temperatures:     72.00    94.45   172.26   218.26   281.70
          (Kelvin)            301.88   341.20   380.73   412.19   476.73
                              522.43   591.87   659.47   667.80   697.80
                              754.53   778.47   941.57  1130.50  1190.07
                             1204.25  1250.09  1271.84  1324.69  1366.34
                             1428.60  1445.16  1458.84  1519.71  1522.60
                             1554.05  1565.50  1577.87  1608.98  1636.79
                             1674.86  1710.89  1718.98  1800.40  1848.47
                             1877.01  1888.41  1894.73  1937.26  1949.59
                             1971.86  2001.62  2016.11  2018.56  2041.89
                             2066.16  2073.92  2098.31  2166.62  2172.57
                             2177.70  2189.52  2191.94  2200.84  2221.42
                             2531.41  4225.56  4240.26  4298.22  4354.95
                             4364.61  4378.19  4379.18  4416.45  4429.35
                             4431.87  4439.27  4447.68  4477.89  4485.46
                             4514.93  4559.46  5332.50

 Zero-point correction=                           0.254355 (Hartree/Particle)
 Thermal correction to Energy=                    0.265936
 Thermal correction to Enthalpy=                  0.266880
 Thermal correction to Gibbs Free Energy=         0.216928
 Sum of electronic and zero-point Energies=           -482.934045
 Sum of electronic and thermal Energies=              -482.922465
 Sum of electronic and thermal Enthalpies=            -482.921521
 Sum of electronic and thermal Free Energies=         -482.971473

                     E (Thermal)             CV                S
                      KCal/Mol        Cal/Mol-Kelvin    Cal/Mol-Kelvin
 Total                  166.877             44.444            105.134
 Electronic               0.000              0.000              0.000
 Translational            0.889              2.981             41.027
 Rotational               0.889              2.981             30.654
 Vibrational            165.100             38.483             33.453
 Vibration     1          0.595              1.978              4.816
 Vibration     2          0.597              1.971              4.280
 Vibration     3          0.609              1.933              3.105
 Vibration     4          0.619              1.901              2.651
 Vibration     5          0.636              1.846              2.172
 Vibration     6          0.642              1.826              2.045
 Vibration     7          0.656              1.784              1.824
 Vibration     8          0.671              1.738              1.631
 Vibration     9          0.684              1.699              1.495
 Vibration    10          0.714              1.613              1.254
 Vibration    11          0.737              1.548              1.109
 Vibration    12          0.775              1.446              0.922
 Vibration    13          0.816              1.342              0.771
 Vibration    14          0.822              1.330              0.754
 Vibration    15          0.841              1.283              0.697
 Vibration    16          0.879              1.196              0.600
 Vibration    17          0.896              1.159              0.563

                           ! Non-Optimized Parameters !
 Normal termination of Gaussian 16 at Tue Dec  8 19:15:08 2020.

 ----------------------------------------------------------------------
 # B3LYP/6-311++G(d,p) empiricaldispersion=gd3bj scf=xqc pop=npa geom=c
 heck
 ----------------------------------------------------------------------

 --------------------------------------
 CID_87791465_JID_1015_Energie_neutraal
 --------------------------------------
 Structure from the checkpoint file:  "JID_1015.chk"
 Charge =  0 Multiplicity = 1

 SCF Done:  E(RB3LYP) =  -483.333180745     A.U. after   13 cycles
 Normal termination of Gaussian 16 at Tue Dec  8 19:17:04 2020.

 ----------------------------------------------------------------------
 # B3LYP/6-311++G(d,p) empiricaldispersion=gd3bj scf=xqc pop=npa geom=c
 heck
 ----------------------------------------------------------------------

 ------------------------------------
 CID_87791465_JID_1015_Energie_kation
 ------------------------------------
 Structure from the checkpoint file:  "JID_1015.chk"
 Charge =  1 Multiplicity = 2

 SCF Done:  E(UB3LYP) =  -483.037231492     A.U. after   20 cycles
 Normal termination of Gaussian 16 at Tue Dec  8 19:20:58 2020.
 Gaussian 16:  ES64L-G16RevA.03 25-Dec-2016

 ----------------------------------------------------------------------
 # B3LYP/6-311++G(d,p) empiricaldispersion=gd3bj scf=xqc pop=npa geom=c
 heck
 ----------------------------------------------------------------------

 -----------------------------------
 CID_87791465_JID_1015_Energie_anion
 -----------------------------------
 Structure from the checkpoint file:  "JID_1015.chk"
 Charge = -1 Multiplicity = 2

                         Standard orientation:
 ---------------------------------------------------------------------
 Center     Atomic      Atomic             Coordinates (Angstroms)
 Number     Number       Type             X           Y           Z
 ---------------------------------------------------------------------
      1          6           0        3.690824   -1.410371    0.624941
      2          6           0        2.681929   -0.673248   -0.205560
      3          6           0        1.895010    0.310336    0.234200
      4          6           0        0.846828    0.980039   -0.613429
      5          7           0       -0.525567    0.515870   -0.390576
      6          6           0       -0.817047   -0.774949   -1.009865
      7          6           0       -2.323396   -1.049012   -0.982621
      8          6           0       -2.868296   -0.976068    0.449032
      9          6           0       -2.464370    0.349604    1.105528
     10          6           0       -0.951068    0.548736    1.013506
     11          8           0        0.907880    2.370509   -0.345360
     12          1           0        3.703998   -1.044162    1.656677
     13          1           0        4.701691   -1.300081    0.210404
     14          1           0        3.476496   -2.487232    0.647802
     15          1           0        2.607384   -0.975085   -1.252130
     16          1           0        1.955358    0.643187    1.269326
     17          1           0        1.059276    0.772052   -1.674630
     18          1           0       -0.280118   -1.597913   -0.499248
     19          1           0       -0.454970   -0.750881   -2.044755
     20          1           0       -2.525274   -2.031968   -1.425610
     21          1           0       -2.826138   -0.297814   -1.605151
     22          1           0       -3.958091   -1.097990    0.453980
     23          1           0       -2.452560   -1.807941    1.036049
     24          1           0       -2.963562    1.183312    0.594964
     25          1           0       -2.775884    0.372906    2.157000
     26          1           0       -0.653752    1.514594    1.431059
     27          1           0       -0.448155   -0.240217    1.603902
     28          1           0        0.107745    2.739676   -0.757129
 ---------------------------------------------------------------------

 SCF Done:  E(UB3LYP) =  -483.315692547     A.U. after   32 cycles

 The electronic state is 2-A.
 Alpha  occ. eigenvalues --  -19.02590 -14.20654 -10.14787 -10.08836 -10.08759
 Alpha  occ. eigenvalues --  -10.07558 -10.06668 -10.06495 -10.06398 -10.06213
 Alpha  occ. eigenvalues --  -10.06068  -0.93816  -0.82138  -0.70464  -0.68573
 Alpha  occ. eigenvalues --   -0.65208  -0.61649  -0.55778  -0.52619  -0.50949
 Alpha  occ. eigenvalues --   -0.46478  -0.44534  -0.42096  -0.39291  -0.36813
 Alpha  occ. eigenvalues --   -0.35609  -0.34932  -0.32777  -0.32282  -0.31316
 Alpha  occ. eigenvalues --   -0.31070  -0.29824  -0.28679  -0.27980  -0.26310
 Alpha  occ. eigenvalues --   -0.25128  -0.24482  -0.22954  -0.21665  -0.21315
 Alpha  occ. eigenvalues --   -0.19020  -0.15976  -0.12403   0.04677
 Alpha virt. eigenvalues --    0.06521   0.07293   0.07547   0.08738   0.09177
 Alpha virt. eigenvalues --    0.09788   0.09831   0.10116   0.10954   0.11178
 Alpha virt. eigenvalues --    0.11796   0.12296   0.13199   0.13460   0.13948

  Beta  occ. eigenvalues --  -19.02583 -14.20645 -10.14776 -10.08827 -10.08742
  Beta  occ. eigenvalues --  -10.07545 -10.06628 -10.06493 -10.06381 -10.06192
  Beta  occ. eigenvalues --  -10.06045  -0.93798  -0.82116  -0.70434  -0.68538
  Beta  occ. eigenvalues --   -0.65176  -0.61604  -0.55732  -0.52570  -0.50901
  Beta  occ. eigenvalues --   -0.46426  -0.44484  -0.42063  -0.39247  -0.36774
  Beta  occ. eigenvalues --   -0.35578  -0.34902  -0.32732  -0.32246  -0.31272
  Beta  occ. eigenvalues --   -0.31036  -0.29790  -0.28643  -0.27943  -0.26271
  Beta  occ. eigenvalues --   -0.25090  -0.24447  -0.22915  -0.21625  -0.21280
  Beta  occ. eigenvalues --   -0.19001  -0.15956  -0.12354
  Beta virt. eigenvalues --    0.06866   0.07476   0.07879   0.08150   0.09343
  Beta virt. eigenvalues --    0.09724   0.10056   0.10406   0.10466   0.11356
  Beta virt. eigenvalues --    0.11746   0.12226   0.12683   0.13604   0.13803

 Mulliken charges and spin densities:
               1          2
     1  C    2.040861  -2.790534
     2  C   -1.332655   1.494602
     3  C    0.108856   0.060849
     4  C    0.177642  -0.683562
     5  N    0.010812   0.180822
     6  C   -0.180040  -0.180932
     7  C    0.887065  -1.302878
     8  C   -0.368017   0.103966
     9  C    0.483088  -0.922920
    10  C   -0.170364  -0.091011
    11  O   -0.217894   0.017021
    12  H   -0.260590   0.393844
    13  H   -0.208114   0.349911
    14  H   -0.470711   0.629790
    15  H   -0.630708   0.771651
    16  H   -0.025860   0.184330
    17  H    0.040772   0.160662
    18  H    0.319191  -0.175348
    19  H   -0.215427   0.367419
    20  H   -0.478611   0.643505
    21  H   -0.061045   0.197801
    22  H   -0.537928   0.706497
    23  H    0.030521   0.090545
    24  H   -0.090049   0.221709
    25  H   -0.135045   0.287215
    26  H    0.208202  -0.021550
    27  H   -0.017649   0.154452
    28  H    0.093696   0.152143
 Sum of Mulliken charges =  -1.00000   1.00000

 Dipole moment (field-independent basis, Debye):
    X=             -0.9978    Y=              3.9834    Z=              1.1794  Tot=              4.2725
 Quadrupole moment (field-independent basis, Debye-Ang):
   XX=           -148.0947   YY=           -113.0297   ZZ=           -104.2816
   XY=              3.1038   XZ=             -1.2169   YZ=             -2.5417

 Summary of Natural Population Analysis:

                                       Natural Population
                Natural  -----------------------------------------------
    Atom  No    Charge         Core      Valence    Rydberg      Total
 -----------------------------------------------------------------------
      C    1   -0.30057      0.99965     2.29474    0.00618     3.30057
      C    2   -0.07762      0.99953     2.06858    0.00952     3.07762
      C    3   -0.11307      0.99947     2.10364    0.00995     3.11307
      C    4    0.14822      0.99955     1.83539    0.01685     2.85178
      N    5   -0.28702      0.99970     2.77408    0.01325     3.78702
      C    6   -0.08709      0.99960     2.07474    0.01274     3.08709
      C    7   -0.19210      0.99963     2.18312    0.00935     3.19210
      C    8   -0.18991      0.99963     2.18191    0.00837     3.18991
      C    9   -0.19323      0.99963     2.18401    0.00960     3.19323
      C   10   -0.08918      0.99961     2.07999    0.00958     3.08918
      O   11   -0.37239      0.99989     3.36642    0.00608     4.37239
      H   12    0.09909      0.00000     0.39984    0.00107     0.40091
      H   13    0.10321      0.00000     0.39540    0.00139     0.39679
      H   14    0.10635      0.00000     0.39185    0.00180     0.39365
      H   15    0.09210      0.00000     0.40609    0.00182     0.40790
      H   16    0.09612      0.00000     0.40260    0.00127     0.40388
      H   17    0.07864      0.00000     0.41877    0.00259     0.42136
      H   18    0.08407      0.00000     0.41393    0.00200     0.41593
      H   19    0.09807      0.00000     0.39994    0.00198     0.40193
      H   20    0.10084      0.00000     0.39776    0.00140     0.39916
      H   21    0.09521      0.00000     0.40296    0.00182     0.40479
      H   22    0.10005      0.00000     0.39839    0.00156     0.39995
      H   23    0.09305      0.00000     0.40549    0.00146     0.40695
      H   24    0.09525      0.00000     0.40307    0.00168     0.40475
      H   25    0.09783      0.00000     0.40123    0.00094     0.40217
      H   26    0.10154      0.00000     0.39690    0.00155     0.39846
      H   27    0.08241      0.00000     0.41586    0.00173     0.41759
      H   28    0.23012      0.00000     0.26671    0.00317     0.26988
 =======================================================================
   * Total *    0.00000     10.99588    31.86341    0.14072    43.00000

 Normal termination of Gaussian 16 at Tue Dec  8 19:27:06 2020.
