 Gaussian 16, Revision A.03,

 -----------------------------------------------------------
 # opt freq B3LYP/6-31G(d) empiricaldispersion=gd3bj scf=xqc
 -----------------------------------------------------------

 ------------------------------
 CID_17863100_JID_2670_neutraal
 ------------------------------
 Symbolic Z-matrix:
 Charge =  0 Multiplicity = 1

 SCF Done:  E(RB3LYP) =  -554.759035922     A.U. after   15 cycles
 SCF Done:  E(RB3LYP) =  -554.763220656     A.U. after   13 cycles
 SCF Done:  E(RB3LYP) =  -554.763681568     A.U. after   12 cycles
 SCF Done:  E(RB3LYP) =  -554.763983702     A.U. after   12 cycles
 SCF Done:  E(RB3LYP) =  -554.764035622     A.U. after   11 cycles
 SCF Done:  E(RB3LYP) =  -554.764087648     A.U. after   11 cycles
 SCF Done:  E(RB3LYP) =  -554.764120944     A.U. after   11 cycles
 SCF Done:  E(RB3LYP) =  -554.764156332     A.U. after   11 cycles
 SCF Done:  E(RB3LYP) =  -554.764191907     A.U. after   11 cycles
 SCF Done:  E(RB3LYP) =  -554.764222576     A.U. after   12 cycles
 SCF Done:  E(RB3LYP) =  -554.764463861     A.U. after    9 cycles
 SCF Done:  E(RB3LYP) =  -554.764464044     A.U. after    8 cycles
 SCF Done:  E(RB3LYP) =  -554.764464096     A.U. after    8 cycles
 SCF Done:  E(RB3LYP) =  -554.764464103     A.U. after    7 cycles
 Optimization completed.
    -- Stationary point found.
 Normal termination of Gaussian 16 at Wed Dec  9 17:40:08 2020.

 --------------------------------------------------------------------
 #N Geom=AllCheck Guess=TCheck SCRF=Check GenChk RB3LYP/6-31G(d) Freq
 --------------------------------------------------------------------

 Structure from the checkpoint file:  "JID_2670.chk"
 ------------------------------
 CID_17863100_JID_2670_neutraal
 ------------------------------
 Charge =  0 Multiplicity = 1

 SCF Done:  E(RB3LYP) =  -554.764464103     A.U. after    1 cycles

  Exact polarizability: 135.097   6.221 104.127   8.616  -6.271  65.101
 Approx polarizability: 170.111   3.355 177.626  18.233 -17.260 102.002

                      1                      2                      3
                      A                      A                      A
 Frequencies --     25.2641                60.9151                78.1867
 Red. masses --      4.0374                 3.1009                 3.8153
 Frc consts  --      0.0015                 0.0068                 0.0137
 IR Inten    --      0.4976                 0.1507                 1.2486

                      4                      5                      6
                      A                      A                      A
 Frequencies --     91.8502               135.2740               195.5461
 Red. masses --      4.1216                 4.8961                 4.7517
 Frc consts  --      0.0205                 0.0528                 0.1071
 IR Inten    --      0.5586                 2.0581                 0.7163

                      7                      8                      9
                      A                      A                      A
 Frequencies --    226.9896               249.6719               353.7816
 Red. masses --      3.7680                 3.6610                 3.1409
 Frc consts  --      0.1144                 0.1345                 0.2316
 IR Inten    --      3.0568                 1.4478                 2.8169

                     10                     11                     12
                      A                      A                      A
 Frequencies --    404.0108               438.8788               554.4509
 Red. masses --      2.7471                 4.9536                 2.0131
 Frc consts  --      0.2642                 0.5622                 0.3646
 IR Inten    --      1.6414                 4.0398                28.8162

                     13                     14                     15
                      A                      A                      A
 Frequencies --    576.8874               612.8734               662.1488
 Red. masses --      2.5797                 3.1460                 3.4376
 Frc consts  --      0.5058                 0.6962                 0.8880
 IR Inten    --     10.8828                 3.8552                40.3645

                     16                     17                     18
                      A                      A                      A
 Frequencies --    678.0061               757.3049               766.2067
 Red. masses --      4.4024                 2.6223                 1.7219
 Frc consts  --      1.1924                 0.8861                 0.5956
 IR Inten    --     34.7514                 5.9242                65.2308

                     19                     20                     21
                      A                      A                      A
 Frequencies --    789.0114               829.9326               831.5830
 Red. masses --      1.0942                 1.5930                 1.4735
 Frc consts  --      0.4014                 0.6465                 0.6004
 IR Inten    --      0.2845                 7.2792                 4.4467

                     22                     23                     24
                      A                      A                      A
 Frequencies --    846.3456               878.4177               909.9343
 Red. masses --      1.5467                 1.3219                 6.2405
 Frc consts  --      0.6528                 0.6010                 3.0443
 IR Inten    --      8.1711                 1.4500                 5.2816

                     25                     26                     27
                      A                      A                      A
 Frequencies --    926.4881               941.0183               964.0727
 Red. masses --      1.6962                 3.6632                 2.4885
 Frc consts  --      0.8579                 1.9112                 1.3627
 IR Inten    --      2.6399                14.6331                24.8834

                     28                     29                     30
                      A                      A                      A
 Frequencies --   1023.6372              1055.7902              1067.1143
 Red. masses --      2.2226                 1.3467                 1.3581
 Frc consts  --      1.3721                 0.8844                 0.9112
 IR Inten    --      0.9817                30.5160                 4.8625

                     31                     32                     33
                      A                      A                      A
 Frequencies --   1088.5604              1123.3867              1141.4978
 Red. masses --      1.3808                 2.0573                 1.8994
 Frc consts  --      0.9640                 1.5297                 1.4582
 IR Inten    --      2.8248                 0.8703                15.3120

                     34                     35                     36
                      A                      A                      A
 Frequencies --   1150.0510              1180.5025              1195.0817
 Red. masses --      1.6705                 2.1110                 1.8835
 Frc consts  --      1.3017                 1.7333                 1.5849
 IR Inten    --      2.9102                51.3347                 8.2930

                     37                     38                     39
                      A                      A                      A
 Frequencies --   1211.6918              1231.9388              1237.3219
 Red. masses --      1.4086                 3.3643                 1.8243
 Frc consts  --      1.2185                 3.0083                 1.6455
 IR Inten    --      0.2707                37.0190                 1.8478

                     40                     41                     42
                      A                      A                      A
 Frequencies --   1268.8904              1296.8579              1358.2551
 Red. masses --      1.7332                 1.3288                 1.3846
 Frc consts  --      1.6442                 1.3167                 1.5050
 IR Inten    --      7.3667                32.0133                57.3886

                     43                     44                     45
                      A                      A                      A
 Frequencies --   1395.8903              1435.6469              1450.0204
 Red. masses --      2.8433                 1.8614                 2.2830
 Frc consts  --      3.2642                 2.2604                 2.8282
 IR Inten    --    138.7412                 3.1447                61.8850

                     46                     47                     48
                      A                      A                      A
 Frequencies --   1486.0436              1495.9308              1520.4355
 Red. masses --      1.7413                 1.0925                 4.4392
 Frc consts  --      2.2656                 1.4405                 6.0464
 IR Inten    --    130.3356                 2.8172                80.3254

                     49                     50                     51
                      A                      A                      A
 Frequencies --   1534.1174              1544.9804              1620.5324
 Red. masses --      1.2961                 1.1670                 5.4563
 Frc consts  --      1.7972                 1.6413                 8.4423
 IR Inten    --      0.3134                 1.8415                28.3917

                     52                     53                     54
                      A                      A                      A
 Frequencies --   1769.5948              2999.2486              3109.0388
 Red. masses --      8.5615                 1.0728                 1.0897
 Frc consts  --     15.7961                 5.6859                 6.2057
 IR Inten    --    368.1530                44.0496                10.8076

                     55                     56                     57
                      A                      A                      A
 Frequencies --   3145.6018              3151.1370              3162.5829
 Red. masses --      1.0523                 1.0578                 1.0902
 Frc consts  --      6.1349                 6.1885                 6.4245
 IR Inten    --     15.8312                13.5500                 9.9179

                     58                     59                     60
                      A                      A                      A
 Frequencies --   3222.4306              3236.1692              3269.8097
 Red. masses --      1.1189                 1.1157                 1.0907
 Frc consts  --      6.8454                 6.8842                 6.8710
 IR Inten    --      0.5710                22.1109                 4.0799

                     61                     62                     63
                      A                      A                      A
 Frequencies --   3285.2111              3303.1995              3591.2675
 Red. masses --      1.0972                 1.1051                 1.0754
 Frc consts  --      6.9768                 7.1044                 8.1718
 IR Inten    --      1.6003                 0.8735                32.7632

 - Thermochemistry -
 -------------------
 Temperature   298.150 Kelvin.  Pressure   1.00000 Atm.
 Atom     1 has atomic number  6 and mass  12.00000

 Molecular mass:   165.07898 amu.
 Principal axes and moments of inertia in atomic units:
                           1         2         3
     Eigenvalues --   878.588383876.146684549.49414
           X            0.99999   0.00471  -0.00060
           Y           -0.00471   0.99996  -0.00817
           Z            0.00056   0.00818   0.99997
 This molecule is an asymmetric top.
 Rotational symmetry number  1.
 Warning -- assumption of classical behavior for rotation
           may cause significant error
 Rotational temperatures (Kelvin)      0.09858     0.02235     0.01904
 Rotational constants (GHZ):           2.05414     0.46560     0.39669
 Zero-point vibrational energy     497314.7 (Joules/Mol)
                                  118.86106 (Kcal/Mol)
 Warning -- explicit consideration of  14 degrees of freedom as
           vibrations may cause significant error
 Vibrational temperatures:     36.35    87.64   112.49   132.15   194.63
          (Kelvin)            281.35   326.59   359.22   509.01   581.28
                              631.45   797.73   830.01   881.79   952.68
                              975.50  1089.59  1102.40  1135.21  1194.09
                             1196.46  1217.70  1263.85  1309.19  1333.01
                             1353.92  1387.09  1472.79  1519.05  1535.34
                             1566.20  1616.30  1642.36  1654.67  1698.48
                             1719.46  1743.35  1772.49  1780.23  1825.65
                             1865.89  1954.23  2008.37  2065.58  2086.26
                             2138.09  2152.31  2187.57  2207.25  2222.88
                             2331.58  2546.05  4315.25  4473.21  4525.82
                             4533.78  4550.25  4636.36  4656.13  4704.53
                             4726.69  4752.57  5167.03

 Zero-point correction=                           0.189417 (Hartree/Particle)
 Thermal correction to Energy=                    0.200479
 Thermal correction to Enthalpy=                  0.201424
 Thermal correction to Gibbs Free Energy=         0.150605
 Sum of electronic and zero-point Energies=           -554.575047
 Sum of electronic and thermal Energies=              -554.563985
 Sum of electronic and thermal Enthalpies=            -554.563040
 Sum of electronic and thermal Free Energies=         -554.613859

                     E (Thermal)             CV                S
                      KCal/Mol        Cal/Mol-Kelvin    Cal/Mol-Kelvin
 Total                  125.803             40.965            106.957
 Electronic               0.000              0.000              0.000
 Translational            0.889              2.981             41.212
 Rotational               0.889              2.981             31.116
 Vibrational            124.025             35.003             34.628
 Vibration     1          0.593              1.985              6.170
 Vibration     2          0.597              1.973              4.427
 Vibration     3          0.599              1.964              3.936
 Vibration     4          0.602              1.955              3.620
 Vibration     5          0.613              1.918              2.870
 Vibration     6          0.636              1.846              2.175
 Vibration     7          0.651              1.800              1.903
 Vibration     8          0.662              1.763              1.733
 Vibration     9          0.730              1.567              1.149
 Vibration    10          0.769              1.461              0.948
 Vibration    11          0.799              1.385              0.830
 Vibration    12          0.910              1.130              0.535
 Vibration    13          0.933              1.081              0.491
 Vibration    14          0.972              1.005              0.428

 Optimization completed.
    -- Stationary point found.
 Normal termination of Gaussian 16 at Wed Dec  9 17:44:17 2020.

 ----------------------------------------------------------------------
 # B3LYP/6-311++G(d,p) empiricaldispersion=gd3bj scf=xqc pop=npa geom=c
 heck
 ----------------------------------------------------------------------

 --------------------------------------
 CID_17863100_JID_2670_Energie_neutraal
 --------------------------------------
 Structure from the checkpoint file:  "JID_2670.chk"
 Charge =  0 Multiplicity = 1

 SCF Done:  E(RB3LYP) =  -554.924337093     A.U. after   14 cycles
 Normal termination of Gaussian 16 at Wed Dec  9 17:46:08 2020.

 ----------------------------------------------------------------------
 # B3LYP/6-311++G(d,p) empiricaldispersion=gd3bj scf=xqc pop=npa geom=c
 heck
 ----------------------------------------------------------------------

 ------------------------------------
 CID_17863100_JID_2670_Energie_kation
 ------------------------------------
 Structure from the checkpoint file:  "JID_2670.chk"
 Charge =  1 Multiplicity = 2

 SCF Done:  E(UB3LYP) =  -554.603982655     A.U. after   33 cycles
 SCF Done:  E(UB3LYP) =  -554.605807735     a.u. after   11 cycles
 Normal termination of Gaussian 16 at Wed Dec  9 18:27:59 2020.
 Gaussian 16:  ES64L-G16RevA.03 25-Dec-2016

 ----------------------------------------------------------------------
 # B3LYP/6-311++G(d,p) empiricaldispersion=gd3bj scf=xqc pop=npa geom=c
 heck
 ----------------------------------------------------------------------

 -----------------------------------
 CID_17863100_JID_2670_Energie_anion
 -----------------------------------
 Structure from the checkpoint file:  "JID_2670.chk"
 Charge = -1 Multiplicity = 2

                         Standard orientation:
 ---------------------------------------------------------------------
 Center     Atomic      Atomic             Coordinates (Angstroms)
 Number     Number       Type             X           Y           Z
 ---------------------------------------------------------------------
      1          6           0        3.930828    0.209067    0.256835
      2          6           0        3.861694   -1.179332   -0.329279
      3          6           0        2.735152   -0.208667   -0.569508
      4          6           0        1.402633   -0.421448    0.110135
      5          7           0        0.745691    0.857144    0.357913
      6          6           0       -0.562714    1.220160    0.156199
      7          8           0       -0.901634    2.396635    0.087919
      8          6           0       -1.560922    0.128100    0.077557
      9          6           0       -1.646221   -1.154553    0.558144
     10          6           0       -2.954597   -1.628805    0.235658
     11          6           0       -3.570242   -0.601954   -0.419021
     12          8           0       -2.745800    0.468238   -0.517037
     13          1           0        4.632853    0.917695   -0.172184
     14          1           0        3.794502    0.310934    1.330877
     15          1           0        4.513620   -1.422990   -1.162591
     16          1           0        3.681701   -2.008341    0.350351
     17          1           0        2.661787    0.220728   -1.566680
     18          1           0        0.750887   -1.036906   -0.516151
     19          1           0        1.560508   -0.969917    1.051967
     20          1           0        1.355165    1.661568    0.447488
     21          1           0       -0.881440   -1.687965    1.102864
     22          1           0       -3.376435   -2.597434    0.463084
     23          1           0       -4.547187   -0.481769   -0.861798
 ---------------------------------------------------------------------

 SCF Done:  E(UB3LYP) =  -554.914155841     A.U. after   33 cycles
 SCF Done:  E(UB3LYP) =  -554.914155841     a.u. after    1 cycles

 The electronic state is 2-A.
 Alpha  occ. eigenvalues --  -19.06812 -18.95787 -14.21423 -10.14748 -10.11026
 Alpha  occ. eigenvalues --  -10.10541 -10.10418 -10.08229 -10.07443 -10.07346
 Alpha  occ. eigenvalues --  -10.06561 -10.06069  -0.99993  -0.91092  -0.80835
 Alpha  occ. eigenvalues --   -0.75878  -0.69187  -0.64711  -0.60862  -0.51995
 Alpha  occ. eigenvalues --   -0.50375  -0.49413  -0.48023  -0.44387  -0.42105
 Alpha  occ. eigenvalues --   -0.40924  -0.37820  -0.36198  -0.35268  -0.33579
 Alpha  occ. eigenvalues --   -0.32165  -0.30964  -0.29865  -0.28660  -0.27441
 Alpha  occ. eigenvalues --   -0.26955  -0.26000  -0.25830  -0.20457  -0.19716
 Alpha  occ. eigenvalues --   -0.17625  -0.14218  -0.13615  -0.12485   0.04701
 Alpha virt. eigenvalues --    0.06375   0.07079   0.07800   0.08299   0.09112
 Alpha virt. eigenvalues --    0.09806   0.11117   0.11417   0.12564   0.12753
 Alpha virt. eigenvalues --    0.13489   0.13878   0.15161   0.15532   0.16150

  Beta  occ. eigenvalues --  -19.06637 -18.95652 -14.21384 -10.14637 -10.10892
  Beta  occ. eigenvalues --  -10.10459 -10.10406 -10.08221 -10.07420 -10.07313
  Beta  occ. eigenvalues --  -10.06603 -10.05965  -0.99707  -0.90848  -0.80726
  Beta  occ. eigenvalues --   -0.75835  -0.69022  -0.64427  -0.60795  -0.51696
  Beta  occ. eigenvalues --   -0.50245  -0.49331  -0.47967  -0.44219  -0.41975
  Beta  occ. eigenvalues --   -0.40864  -0.37746  -0.36048  -0.34853  -0.33169
  Beta  occ. eigenvalues --   -0.32020  -0.30848  -0.29770  -0.28537  -0.27142
  Beta  occ. eigenvalues --   -0.26915  -0.25846  -0.25467  -0.20405  -0.19665
  Beta  occ. eigenvalues --   -0.17069  -0.13965  -0.13230  -0.11723
  Beta virt. eigenvalues --    0.07050   0.07503   0.08316   0.08502   0.08786
  Beta virt. eigenvalues --    0.09320   0.10126   0.11640   0.11965   0.12674
  Beta virt. eigenvalues --    0.12871   0.13890   0.13988   0.15244   0.15437

 Mulliken charges and spin densities:
               1          2
     1  C    0.653205  -1.103279
     2  C    1.418588  -1.835357
     3  C   -3.118700   3.375354
     4  C    1.627449  -2.245184
     5  N   -0.158027   0.044861
     6  C    0.710972  -0.733621
     7  O   -0.397135   0.050253
     8  C   -0.240423  -0.318502
     9  C   -0.526199   1.230729
    10  C    0.679458  -1.295714
    11  C   -0.173809   0.431032
    12  O   -0.038592   0.043310
    13  H   -0.122211   0.271725
    14  H   -0.281303   0.436087
    15  H   -0.584050   0.743687
    16  H   -0.269598   0.396232
    17  H   -0.416485   0.652159
    18  H    0.246113  -0.086084
    19  H    0.011755   0.135722
    20  H    0.308721   0.009921
    21  H   -0.257272   0.428072
    22  H   -0.141509   0.283313
    23  H    0.069052   0.085285
 Sum of Mulliken charges =  -1.00000   1.00000

 Dipole moment (field-independent basis, Debye):
    X=             -4.2820    Y=             -0.8672    Z=              0.5375  Tot=              4.4019
 Quadrupole moment (field-independent basis, Debye-Ang):
   XX=           -144.4870   YY=           -106.6005   ZZ=            -96.5156
   XY=             12.0284   XZ=              6.6352   YZ=              0.3134

 Summary of Natural Population Analysis:

                                       Natural Population
                Natural  -----------------------------------------------
    Atom  No    Charge         Core      Valence    Rydberg      Total
 -----------------------------------------------------------------------
      C    1   -0.20195      0.99962     2.19258    0.00974     3.20195
      C    2   -0.19619      0.99962     2.18638    0.01018     3.19619
      C    3   -0.11983      0.99959     2.10967    0.01057     3.11983
      C    4   -0.08867      0.99959     2.07733    0.01175     3.08867
      N    5   -0.31459      0.99968     2.80570    0.00921     3.81459
      C    6    0.32938      0.99962     1.64949    0.02151     2.67062
      O    7   -0.31017      0.99988     3.30487    0.00542     4.31017
      C    8    0.11464      0.99944     1.87199    0.01394     2.88536
      C    9   -0.12418      0.99953     2.11556    0.00909     3.12418
      C   10   -0.17087      0.99957     2.16232    0.00897     3.17087
      C   11    0.08730      0.99953     1.89881    0.01435     2.91270
      O   12   -0.20695      0.99986     3.19858    0.00851     4.20695
      H   13    0.10409      0.00000     0.39471    0.00120     0.39591
      H   14    0.10161      0.00000     0.39738    0.00101     0.39839
      H   15    0.10630      0.00000     0.39133    0.00236     0.39370
      H   16    0.10169      0.00000     0.39693    0.00138     0.39831
      H   17    0.10496      0.00000     0.39381    0.00123     0.39504
      H   18    0.10545      0.00000     0.39297    0.00157     0.39455
      H   19    0.08701      0.00000     0.41132    0.00167     0.41299
      H   20    0.19003      0.00000     0.30707    0.00290     0.30997
      H   21    0.10720      0.00000     0.39179    0.00100     0.39280
      H   22    0.10476      0.00000     0.39442    0.00082     0.39524
      H   23    0.08897      0.00000     0.41012    0.00091     0.41103
 =======================================================================
   * Total *    0.00000     11.99552    31.85517    0.14931    44.00000

 Normal termination of Gaussian 16 at Wed Dec  9 18:32:50 2020.
