 Gaussian 16, Revision A.03,

 -----------------------------------------------------------
 # opt freq B3LYP/6-31G(d) empiricaldispersion=gd3bj scf=xqc
 -----------------------------------------------------------

 -------------------------------
 CID_136659721_JID_2921_neutraal
 -------------------------------
 Symbolic Z-matrix:
 Charge =  0 Multiplicity = 1

 SCF Done:  E(RB3LYP) =  -513.827681994     A.U. after   14 cycles
 SCF Done:  E(RB3LYP) =  -513.833906213     A.U. after   13 cycles
 SCF Done:  E(RB3LYP) =  -513.835422854     A.U. after   12 cycles
 SCF Done:  E(RB3LYP) =  -513.836673295     A.U. after   13 cycles
 SCF Done:  E(RB3LYP) =  -513.837002494     A.U. after   12 cycles
 SCF Done:  E(RB3LYP) =  -513.837170955     A.U. after   10 cycles
 SCF Done:  E(RB3LYP) =  -513.837204641     A.U. after   10 cycles
 SCF Done:  E(RB3LYP) =  -513.837215834     A.U. after    9 cycles
 SCF Done:  E(RB3LYP) =  -513.837220957     A.U. after    9 cycles
 SCF Done:  E(RB3LYP) =  -513.837223763     A.U. after   10 cycles
 SCF Done:  E(RB3LYP) =  -513.837224425     A.U. after    9 cycles
 SCF Done:  E(RB3LYP) =  -513.837224753     A.U. after    9 cycles
 SCF Done:  E(RB3LYP) =  -513.837224775     A.U. after    7 cycles
 Optimization completed.
    -- Stationary point found.

 1\1\GINC-NODE220\FOpt\RB3LYP\6-31G(d)\C9H11N3\VSC10255\09-Dec-2020\0\\
 # opt freq B3LYP/6-31G(d) empiricaldispersion=gd3bj scf=xqc\\CID_13665
 9721_JID_2921_neutraal\\0,1\C,1.3716485205,0.1361712666,0.2424333994\C
 ,0.4840391603,-0.5942857237,1.2314175543\N,-0.5895772931,-0.0949573505
 ,1.7291535021\C,0.887942199,-1.9662979732,1.6361689336\C,0.0412901945,
 -2.7220424122,2.3777541634\C,0.4456085533,-4.0512251203,2.7463300843\C
 ,1.7414238499,-4.5377145112,2.6046822904\C,2.8097097456,-3.6196655519,
 2.0909418719\C,2.1936318618,-2.5739326068,1.1348282781\C,1.6891926179,

 Normal termination of Gaussian 16 at Wed Dec  9 18:13:44 2020.

 --------------------------------------------------------------------
 #N Geom=AllCheck Guess=TCheck SCRF=Check GenChk RB3LYP/6-31G(d) Freq
 --------------------------------------------------------------------

 Structure from the checkpoint file:  "JID_2921.chk"
 -------------------------------
 CID_136659721_JID_2921_neutraal
 -------------------------------
 Charge =  0 Multiplicity = 1

 SCF Done:  E(RB3LYP) =  -513.837224774     A.U. after    1 cycles

  Exact polarizability: 177.942  -4.020 112.676  -1.700   0.674  57.005
 Approx polarizability: 274.301  -2.728 189.542  -6.164   1.632  89.683

                      1                      2                      3
                      A                      A                      A
 Frequencies --     37.3915                86.4802               145.3308
 Red. masses --      3.7351                 4.7272                 2.7443
 Frc consts  --      0.0031                 0.0208                 0.0342
 IR Inten    --      3.5144                 0.5543                 0.3996

                      4                      5                      6
                      A                      A                      A
 Frequencies --    192.4387               212.8823               256.7792
 Red. masses --      2.0833                 1.3759                 2.9486
 Frc consts  --      0.0455                 0.0367                 0.1145
 IR Inten    --      1.0813                 0.7721                 1.9596

                      7                      8                      9
                      A                      A                      A
 Frequencies --    307.7717               331.4865               375.4547
 Red. masses --      3.1897                 4.3659                 4.7164
 Frc consts  --      0.1780                 0.2827                 0.3917
 IR Inten    --      1.0052                 0.2504                 1.6181

                     10                     11                     12
                      A                      A                      A
 Frequencies --    424.0560               481.5666               495.8894
 Red. masses --      2.4705                 2.9110                 1.8376
 Frc consts  --      0.2617                 0.3978                 0.2662
 IR Inten    --      5.6724                26.2413                35.1314

                     13                     14                     15
                      A                      A                      A
 Frequencies --    506.8905               569.5251               598.8762
 Red. masses --      3.4787                 3.0150                 2.6890
 Frc consts  --      0.5266                 0.5762                 0.5682
 IR Inten    --     10.5664                24.3064                15.6895

                     16                     17                     18
                      A                      A                      A
 Frequencies --    670.9863               687.8932               717.2576
 Red. masses --      3.4188                 2.8991                 4.3398
 Frc consts  --      0.9069                 0.8083                 1.3154
 IR Inten    --      9.6888                31.4578                 2.6339

                     19                     20                     21
                      A                      A                      A
 Frequencies --    764.1897               799.5313               855.0375
 Red. masses --      2.3223                 4.2166                 1.1777
 Frc consts  --      0.7990                 1.5881                 0.5073
 IR Inten    --      3.1183                14.8367                21.6586

                     22                     23                     24
                      A                      A                      A
 Frequencies --    871.3006               934.1008               941.9728
 Red. masses --      1.2927                 2.2516                 1.6063
 Frc consts  --      0.5782                 1.1575                 0.8398
 IR Inten    --     22.2416                15.4712                14.1500

                     25                     26                     27
                      A                      A                      A
 Frequencies --    973.1184               979.0730              1002.2398
 Red. masses --      4.1943                 2.8289                 2.1101
 Frc consts  --      2.3401                 1.5977                 1.2488
 IR Inten    --     66.2691                 8.0388                12.1876

                     28                     29                     30
                      A                      A                      A
 Frequencies --   1052.6186              1066.1802              1083.3469
 Red. masses --      2.0799                 1.6691                 1.6280
 Frc consts  --      1.3578                 1.1178                 1.1258
 IR Inten    --      0.0404                 5.7804                 8.8162

                     31                     32                     33
                      A                      A                      A
 Frequencies --   1130.7461              1153.2214              1194.4052
 Red. masses --      3.0160                 1.6704                 1.5430
 Frc consts  --      2.2720                 1.3089                 1.2970
 IR Inten    --     45.1346               127.1631                 0.5446

                     34                     35                     36
                      A                      A                      A
 Frequencies --   1220.2064              1240.1283              1271.5246
 Red. masses --      1.6616                 1.6967                 1.5274
 Frc consts  --      1.4576                 1.5374                 1.4550
 IR Inten    --      9.2381                 8.7173                 4.0242

                     37                     38                     39
                      A                      A                      A
 Frequencies --   1291.6960              1348.3987              1357.3218
 Red. masses --      2.0346                 1.8316                 1.6063
 Frc consts  --      2.0001                 1.9621                 1.7436
 IR Inten    --      1.1827                 6.4272                14.2723

                     40                     41                     42
                      A                      A                      A
 Frequencies --   1383.9608              1404.0177              1432.1368
 Red. masses --      1.8048                 1.8342                 1.5912
 Frc consts  --      2.0367                 2.1304                 1.9229
 IR Inten    --     39.7127                34.4984                 9.9926

                     43                     44                     45
                      A                      A                      A
 Frequencies --   1440.8016              1452.8168              1499.3806
 Red. masses --      2.0593                 3.0598                 1.0761
 Frc consts  --      2.5188                 3.8051                 1.4253
 IR Inten    --     27.8533                 1.3687                 5.6892

                     46                     47                     48
                      A                      A                      A
 Frequencies --   1510.2751              1513.5539              1519.9682
 Red. masses --      1.0707                 1.0878                 1.0935
 Frc consts  --      1.4389                 1.4682                 1.4884
 IR Inten    --      8.4744                10.8403                13.0469

                     49                     50                     51
                      A                      A                      A
 Frequencies --   1549.6458              1616.7789              1643.1988
 Red. masses --      5.2446                 4.9540                 5.8740
 Frc consts  --      7.4204                 7.6297                 9.3447
 IR Inten    --     15.9779                22.4476               110.7394

                     52                     53                     54
                      A                      A                      A
 Frequencies --   1702.9776              2996.5381              3012.5398
 Red. masses --      8.1451                 1.0742                 1.0698
 Frc consts  --     13.9175                 5.6832                 5.7205
 IR Inten    --     24.3701                17.0001                48.7541

                     55                     56                     57
                      A                      A                      A
 Frequencies --   3047.7206              3088.6280              3106.3698
 Red. masses --      1.0372                 1.0917                 1.0972
 Frc consts  --      5.6762                 6.1360                 6.2382
 IR Inten    --      7.9621                28.3679                11.4777

                     58                     59                     60
                      A                      A                      A
 Frequencies --   3110.8641              3134.3677              3215.3452
 Red. masses --      1.0907                 1.1025                 1.0906
 Frc consts  --      6.2189                 6.3816                 6.6431
 IR Inten    --     33.2739                22.4410                 0.7588

                     61                     62                     63
                      A                      A                      A
 Frequencies --   3255.5459              3433.6981              3660.9689
 Red. masses --      1.0960                 1.0749                 1.0811
 Frc consts  --      6.8440                 7.4668                 8.5373
 IR Inten    --     13.6716                 4.6267                67.8157

 - Thermochemistry -
 -------------------
 Temperature   298.150 Kelvin.  Pressure   1.00000 Atm.
 Atom     1 has atomic number  6 and mass  12.00000

 Molecular mass:   161.09530 amu.
 Principal axes and moments of inertia in atomic units:
                           1         2         3
     Eigenvalues --   764.876343130.719093815.74946
           X            0.99998   0.00542   0.00383
           Y           -0.00542   0.99998  -0.00089
           Z           -0.00383   0.00087   0.99999
 This molecule is an asymmetric top.
 Rotational symmetry number  1.
 Warning -- assumption of classical behavior for rotation
           may cause significant error
 Rotational temperatures (Kelvin)      0.11324     0.02767     0.02270
 Rotational constants (GHZ):           2.35952     0.57646     0.47297
 Zero-point vibrational energy     504593.3 (Joules/Mol)
                                  120.60070 (Kcal/Mol)
 Warning -- explicit consideration of  15 degrees of freedom as
           vibrations may cause significant error
 Vibrational temperatures:     53.80   124.43   209.10   276.88   306.29
          (Kelvin)            369.45   442.81   476.94   540.20   610.12
                              692.87   713.47   729.30   819.42   861.65
                              965.40   989.72  1031.97  1099.50  1150.35
                             1230.21  1253.61  1343.96  1355.29  1400.10
                             1408.67  1442.00  1514.48  1534.00  1558.69
                             1626.89  1659.23  1718.48  1755.60  1784.27
                             1829.44  1858.46  1940.04  1952.88  1991.21
                             2020.07  2060.53  2072.99  2090.28  2157.27
                             2172.95  2177.67  2186.90  2229.59  2326.18
                             2364.20  2450.20  4311.35  4334.37  4384.99
                             4443.85  4469.37  4475.84  4509.66  4626.16
                             4684.00  4940.33  5267.32

 Zero-point correction=                           0.192189 (Hartree/Particle)
 Thermal correction to Energy=                    0.202455
 Thermal correction to Enthalpy=                  0.203399
 Thermal correction to Gibbs Free Energy=         0.155892
 Sum of electronic and zero-point Energies=           -513.645035
 Sum of electronic and thermal Energies=              -513.634770
 Sum of electronic and thermal Enthalpies=            -513.633826
 Sum of electronic and thermal Free Energies=         -513.681333

                     E (Thermal)             CV                S
                      KCal/Mol        Cal/Mol-Kelvin    Cal/Mol-Kelvin
 Total                  127.042             39.985             99.986
 Electronic               0.000              0.000              0.000
 Translational            0.889              2.981             41.139
 Rotational               0.889              2.981             30.592
 Vibrational            125.265             34.024             28.255
 Vibration     1          0.594              1.982              5.393
 Vibration     2          0.601              1.959              3.738
 Vibration     3          0.617              1.908              2.732
 Vibration     4          0.634              1.850              2.204
 Vibration     5          0.644              1.821              2.019
 Vibration     6          0.666              1.751              1.684
 Vibration     7          0.698              1.659              1.374
 Vibration     8          0.714              1.613              1.253
 Vibration     9          0.746              1.522              1.057
 Vibration    10          0.786              1.418              0.878
 Vibration    11          0.838              1.291              0.706
 Vibration    12          0.851              1.259              0.668
 Vibration    13          0.862              1.235              0.641
 Vibration    14          0.926              1.097              0.505
 Vibration    15          0.957              1.034              0.452

 Optimization completed.
    -- Stationary point found.

 1\1\GINC-NODE220\Freq\RB3LYP\6-31G(d)\C9H11N3\VSC10255\09-Dec-2020\0\\
 #N Geom=AllCheck Guess=TCheck SCRF=Check GenChk RB3LYP/6-31G(d) Freq\\
 CID_136659721_JID_2921_neutraal\\0,1\C,1.3716485205,0.1361712666,0.242
 4333994\C,0.4840391603,-0.5942857237,1.2314175543\N,-0.5895772931,-0.0
 949573505,1.7291535021\C,0.887942199,-1.9662979732,1.6361689336\C,0.04
 12901945,-2.7220424122,2.3777541634\C,0.4456085533,-4.0512251203,2.746
 3300843\C,1.7414238499,-4.5377145112,2.6046822904\C,2.8097097456,-3.61
 96655519,2.0909418719\C,2.1936318618,-2.5739326068,1.1348282781\C,1.68

 Normal termination of Gaussian 16 at Wed Dec  9 18:19:15 2020.

 ----------------------------------------------------------------------
 # B3LYP/6-311++G(d,p) empiricaldispersion=gd3bj scf=xqc pop=npa geom=c
 heck
 ----------------------------------------------------------------------

 ---------------------------------------
 CID_136659721_JID_2921_Energie_neutraal
 ---------------------------------------
 Structure from the checkpoint file:  "JID_2921.chk"
 Charge =  0 Multiplicity = 1

 SCF Done:  E(RB3LYP) =  -513.977203656     A.U. after   15 cycles
 Normal termination of Gaussian 16 at Wed Dec  9 18:21:26 2020.

 ----------------------------------------------------------------------
 # B3LYP/6-311++G(d,p) empiricaldispersion=gd3bj scf=xqc pop=npa geom=c
 heck
 ----------------------------------------------------------------------

 -------------------------------------
 CID_136659721_JID_2921_Energie_kation
 -------------------------------------
 Structure from the checkpoint file:  "JID_2921.chk"
 Charge =  1 Multiplicity = 2

 SCF Done:  E(UB3LYP) =  -513.695953334     A.U. after   24 cycles
 Normal termination of Gaussian 16 at Wed Dec  9 18:27:11 2020.
 Gaussian 16:  ES64L-G16RevA.03 25-Dec-2016

 ------------------------------------
 CID_136659721_JID_2921_Energie_anion
 ------------------------------------
 Structure from the checkpoint file:  "JID_2921.chk"
 Charge = -1 Multiplicity = 2

                         Standard orientation:
 ---------------------------------------------------------------------
 Center     Atomic      Atomic             Coordinates (Angstroms)
 Number     Number       Type             X           Y           Z
 ---------------------------------------------------------------------
      1          6           0        3.592765    0.668236    0.243309
      2          6           0        2.567639   -0.414410   -0.033282
      3          7           0        2.872799   -1.633201   -0.300018
      4          6           0        1.132160   -0.031632    0.014273
      5          6           0        0.180014   -0.994341   -0.053004
      6          6           0       -1.201875   -0.603724    0.009039
      7          6           0       -1.645184    0.709801   -0.109291
      8          6           0       -0.643297    1.793341   -0.374134
      9          6           0        0.719565    1.417485    0.249247
     10          6           0       -3.047446    0.623258   -0.024730
     11          7           0       -3.459638   -0.641292    0.146163
     12          7           0       -2.321090   -1.368120    0.150699
     13          1           0        4.595814    0.237279    0.310805
     14          1           0        3.377550    1.195859    1.179742
     15          1           0        3.598619    1.420694   -0.554730
     16          1           0        3.889292   -1.757123   -0.282766
     17          1           0        0.476134   -2.033829   -0.153646
     18          1           0       -0.970693    2.761023    0.020755
     19          1           0       -0.521699    1.923527   -1.460623
     20          1           0        0.667037    1.584322    1.337495
     21          1           0        1.480062    2.107030   -0.126841
     22          1           0       -3.782590    1.415998   -0.074863
     23          1           0       -2.380061   -2.364570    0.298211
 ---------------------------------------------------------------------

 SCF Done:  E(UB3LYP) =  -513.986288663     A.U. after   29 cycles

 The electronic state is 2-A.
 Alpha  occ. eigenvalues --  -14.22695 -14.17495 -14.10745 -10.04803 -10.04418
 Alpha  occ. eigenvalues --  -10.04112 -10.04038 -10.03695 -10.03192 -10.01029
 Alpha  occ. eigenvalues --   -9.99889  -9.98919  -0.89313  -0.73649  -0.68726
 Alpha  occ. eigenvalues --   -0.67023  -0.61152  -0.59025  -0.58126  -0.49275
 Alpha  occ. eigenvalues --   -0.47135  -0.45626  -0.41901  -0.36494  -0.34497
 Alpha  occ. eigenvalues --   -0.32234  -0.31204  -0.30112  -0.29407  -0.29256
 Alpha  occ. eigenvalues --   -0.28543  -0.26597  -0.25077  -0.24126  -0.22952
 Alpha  occ. eigenvalues --   -0.20538  -0.17623  -0.17373  -0.14857  -0.13576
 Alpha  occ. eigenvalues --   -0.11254  -0.09802  -0.05644   0.05100
 Alpha virt. eigenvalues --    0.08612   0.09642   0.10480   0.11070   0.11430
 Alpha virt. eigenvalues --    0.12152   0.13028   0.13457   0.14235   0.15013
 Alpha virt. eigenvalues --    0.15859   0.16519   0.17475   0.17874   0.18264

  Beta  occ. eigenvalues --  -14.22494 -14.17291 -14.10328 -10.04829 -10.04483
  Beta  occ. eigenvalues --  -10.04114 -10.03864 -10.03711 -10.03207 -10.00891
  Beta  occ. eigenvalues --   -9.99654  -9.98593  -0.89003  -0.72952  -0.68417
  Beta  occ. eigenvalues --   -0.66746  -0.60836  -0.58577  -0.57925  -0.49041
  Beta  occ. eigenvalues --   -0.46690  -0.45324  -0.41668  -0.36231  -0.34129
  Beta  occ. eigenvalues --   -0.31968  -0.30958  -0.29932  -0.29181  -0.28960
  Beta  occ. eigenvalues --   -0.28110  -0.26399  -0.24897  -0.23990  -0.22676
  Beta  occ. eigenvalues --   -0.20323  -0.17404  -0.15561  -0.14578  -0.12196
  Beta  occ. eigenvalues --   -0.10396  -0.09266  -0.03824
  Beta virt. eigenvalues --    0.08528   0.09550   0.10379   0.10840   0.11030
  Beta virt. eigenvalues --    0.11794   0.12178   0.12988   0.13482   0.14163
  Beta virt. eigenvalues --    0.14949   0.16376   0.16471   0.17484   0.17853

 Mulliken charges and spin densities:
               1          2
     1  C   -0.638675  -0.018116
     2  C   -0.626304   0.057326
     3  N   -0.360870   0.256825
     4  C    1.402292   0.073742
     5  C   -0.756004   0.331669
     6  C   -0.604466   0.034528
     7  C    1.480573   0.167327
     8  C   -1.103097  -0.182693
     9  C   -0.919404   0.044072
    10  C    0.046655  -0.038661
    11  N   -0.305459   0.105324
    12  N   -0.025326   0.058724
    13  H    0.088698   0.005448
    14  H    0.115515   0.025229
    15  H    0.123500   0.011092
    16  H    0.162064  -0.007487
    17  H    0.161085  -0.009772
    18  H    0.104178   0.016426
    19  H    0.117653  -0.000491
    20  H    0.080721   0.051831
    21  H    0.088917  -0.000640
    22  H    0.104218   0.012721
    23  H    0.263535   0.005577
 Sum of Mulliken charges =  -1.00000   1.00000

 Dipole moment (field-independent basis, Debye):
    X=              0.5547    Y=              3.2174    Z=              0.3433  Tot=              3.2828
 Quadrupole moment (field-independent basis, Debye-Ang):
   XX=           -114.4509   YY=            -82.9202   ZZ=            -82.0665
   XY=              5.9097   XZ=              2.0376   YZ=             -2.2442

 Summary of Natural Population Analysis:

                                       Natural Population
                Natural  -----------------------------------------------
    Atom  No    Charge         Core      Valence    Rydberg      Total
 -----------------------------------------------------------------------
      C    1   -0.31281      0.99964     2.30854    0.00463     3.31281
      C    2    0.14618      0.99961     1.83937    0.01483     2.85382
      N    3   -0.27828      0.99971     2.76967    0.00890     3.77828
      C    4    0.00742      0.99947     1.97928    0.01383     2.99258
      C    5   -0.04820      0.99946     2.04051    0.00823     3.04820
      C    6    0.06793      0.99947     1.92079    0.01180     2.93207
      C    7   -0.05150      0.99946     2.04229    0.00975     3.05150
      C    8   -0.18620      0.99962     2.17998    0.00659     3.18620
      C    9   -0.19172      0.99962     2.18610    0.00601     3.19172
      C   10   -0.04063      0.99959     2.02567    0.01538     3.04063
      N   11   -0.14858      0.99975     2.63362    0.01522     3.64858
      N   12   -0.14582      0.99965     2.63374    0.01242     3.64582
      H   13    0.09172      0.00000     0.40678    0.00149     0.40828
      H   14    0.09924      0.00000     0.39963    0.00113     0.40076
      H   15    0.09857      0.00000     0.40031    0.00113     0.40143
      H   16    0.14134      0.00000     0.35627    0.00239     0.35866
      H   17    0.10702      0.00000     0.39179    0.00119     0.39298
      H   18    0.09203      0.00000     0.40615    0.00182     0.40797
      H   19    0.09199      0.00000     0.40657    0.00144     0.40801
      H   20    0.09238      0.00000     0.40494    0.00268     0.40762
      H   21    0.09384      0.00000     0.40503    0.00113     0.40616
      H   22    0.08730      0.00000     0.41163    0.00107     0.41270
      H   23    0.18678      0.00000     0.31108    0.00214     0.31322
 =======================================================================
   * Total *   -0.00000     11.99504    30.85975    0.14521    43.00000

 Normal termination of Gaussian 16 at Wed Dec  9 18:33:17 2020.
