 Gaussian 16, Revision A.03,

 -----------------------------------------------------------
 # opt freq B3LYP/6-31G(d) empiricaldispersion=gd3bj scf=xqc
 -----------------------------------------------------------

 -------------------------------
 CID_149674778_JID_3159_neutraal
 -------------------------------
 Symbolic Z-matrix:
 Charge =  0 Multiplicity = 1

 SCF Done:  E(RB3LYP) =  -1033.02887936     A.U. after   16 cycles
 SCF Done:  E(RB3LYP) =  -1033.04062533     A.U. after   15 cycles
 SCF Done:  E(RB3LYP) =  -1033.04297125     A.U. after   14 cycles
 SCF Done:  E(RB3LYP) =  -1033.04458292     A.U. after   16 cycles
 SCF Done:  E(RB3LYP) =  -1033.04509975     A.U. after   14 cycles
 SCF Done:  E(RB3LYP) =  -1033.04544451     A.U. after   13 cycles
 SCF Done:  E(RB3LYP) =  -1033.04561749     A.U. after   12 cycles
 SCF Done:  E(RB3LYP) =  -1033.04570403     A.U. after   13 cycles
 SCF Done:  E(RB3LYP) =  -1033.04575155     A.U. after   12 cycles
 SCF Done:  E(RB3LYP) =  -1033.04580160     A.U. after   12 cycles
 SCF Done:  E(RB3LYP) =  -1033.04748278     A.U. after   10 cycles
 SCF Done:  E(RB3LYP) =  -1033.04748613     A.U. after   10 cycles
 SCF Done:  E(RB3LYP) =  -1033.04748722     A.U. after   10 cycles
 SCF Done:  E(RB3LYP) =  -1033.04748722     A.U. after    7 cycles
 SCF Done:  E(RB3LYP) =  -1033.04748725     A.U. after    7 cycles
 Optimization completed.
    -- Stationary point found.
 Normal termination of Gaussian 16 at Wed Dec  9 22:34:15 2020.

 --------------------------------------------------------------------
 #N Geom=AllCheck Guess=TCheck SCRF=Check GenChk RB3LYP/6-31G(d) Freq
 --------------------------------------------------------------------

 Structure from the checkpoint file:  "JID_3159.chk"
 -------------------------------
 CID_149674778_JID_3159_neutraal
 -------------------------------
 Charge =  0 Multiplicity = 1

 SCF Done:  E(RB3LYP) =  -1033.04748725     A.U. after    1 cycles

  Exact polarizability: 116.135 -19.093 102.439  -8.739   1.126  77.506
 Approx polarizability: 179.831 -50.674 182.497 -35.414   9.044 154.679

                      1                      2                      3
                      A                      A                      A
 Frequencies --     24.9333                43.8931                67.0021
 Red. masses --      9.7341                 5.4991                 2.0144
 Frc consts  --      0.0036                 0.0062                 0.0053
 IR Inten    --      1.5297                 2.2756                 2.6469

                      4                      5                      6
                      A                      A                      A
 Frequencies --     83.4200                86.7777               153.7402
 Red. masses --      2.1897                 3.5095                13.9718
 Frc consts  --      0.0090                 0.0156                 0.1946
 IR Inten    --      3.2537                 3.7844                 0.2023

                      7                      8                      9
                      A                      A                      A
 Frequencies --    184.7617               216.4620               251.6979
 Red. masses --      4.2394                 7.2724                10.3629
 Frc consts  --      0.0853                 0.2008                 0.3868
 IR Inten    --      1.4052                 1.7934                 0.2497

                     10                     11                     12
                      A                      A                      A
 Frequencies --    296.4223               326.1589               371.7201
 Red. masses --      2.2458                 8.2467                12.5698
 Frc consts  --      0.1163                 0.5169                 1.0233
 IR Inten    --      4.6447                 5.3356                 4.5030

                     13                     14                     15
                      A                      A                      A
 Frequencies --    401.0137               409.2257               508.6703
 Red. masses --     12.0080                 2.6939                 8.2664
 Frc consts  --      1.1377                 0.2658                 1.2602
 IR Inten    --      0.1303                 4.8520                85.4467

                     16                     17                     18
                      A                      A                      A
 Frequencies --    533.7887               567.3571               640.6373
 Red. masses --     13.8602                13.8197                 4.5540
 Frc consts  --      2.3268                 2.6210                 1.1012
 IR Inten    --     88.9441                16.8996                20.0933

                     19                     20                     21
                      A                      A                      A
 Frequencies --    670.1740               701.0805               710.9764
 Red. masses --      5.3741                12.7214                 9.8406
 Frc consts  --      1.4221                 3.6840                 2.9308
 IR Inten    --     10.4561                 6.5297                44.9127

                     22                     23                     24
                      A                      A                      A
 Frequencies --    753.0686               792.1551               814.0316
 Red. masses --      3.5759                 2.9637                 1.8828
 Frc consts  --      1.1948                 1.0957                 0.7351
 IR Inten    --     25.8062                12.0125                24.8211

                     25                     26                     27
                      A                      A                      A
 Frequencies --    904.7186              1022.6741              1062.2412
 Red. masses --      1.8732                 3.3343                 4.1242
 Frc consts  --      0.9034                 2.0546                 2.7418
 IR Inten    --     20.4128                20.5846                21.7258

                     28                     29                     30
                      A                      A                      A
 Frequencies --   1083.2008              1133.6989              1160.1399
 Red. masses --      2.3629                 3.8966                 1.3242
 Frc consts  --      1.6335                 2.9508                 1.0501
 IR Inten    --      4.0343                99.1074                 0.0914

                     31                     32                     33
                      A                      A                      A
 Frequencies --   1164.0153              1173.4590              1269.3674
 Red. masses --      1.7742                 1.7456                 4.4856
 Frc consts  --      1.4164                 1.4162                 4.2584
 IR Inten    --      8.7910               111.4639               114.2021

                     34                     35                     36
                      A                      A                      A
 Frequencies --   1288.4245              1292.9940              1324.1933
 Red. masses --      1.8683                 3.0532                 4.2881
 Frc consts  --      1.8273                 3.0074                 4.4302
 IR Inten    --     57.4697                10.0228                10.8795

                     37                     38                     39
                      A                      A                      A
 Frequencies --   1373.6744              1399.9988              1460.8107
 Red. masses --      9.4916                 4.7238                 1.4374
 Frc consts  --     10.5526                 5.4550                 1.8072
 IR Inten    --    143.0377                 9.1532                 5.4200

                     40                     41                     42
                      A                      A                      A
 Frequencies --   1467.9407              1506.2843              1513.4733
 Red. masses --      1.1742                 2.1791                 1.0417
 Frc consts  --      1.4907                 2.9131                 1.4058
 IR Inten    --      8.5876                11.5517                11.4846

                     43                     44                     45
                      A                      A                      A
 Frequencies --   1535.7973              1593.3791              2264.2741
 Red. masses --      1.3044                 5.7748                13.9833
 Frc consts  --      1.8127                 8.6382                42.2394
 IR Inten    --     18.0502                 1.6282               395.6579

                     46                     47                     48
                      A                      A                      A
 Frequencies --   3078.6450              3103.2983              3148.2675
 Red. masses --      1.0334                 1.0584                 1.1071
 Frc consts  --      5.7710                 6.0055                 6.4649
 IR Inten    --     27.7447                 3.0966                10.0318

                     49                     50                     51
                      A                      A                      A
 Frequencies --   3167.1162              3191.1346              3300.3028
 Red. masses --      1.1085                 1.1032                 1.0997
 Frc consts  --      6.5512                 6.6188                 7.0572
 IR Inten    --      1.1692                 0.4631                 1.6294

 - Thermochemistry -
 -------------------
 Temperature   298.150 Kelvin.  Pressure   1.00000 Atm.
 Atom     1 has atomic number  6 and mass  12.00000

 Molecular mass:   202.02730 amu.
 Principal axes and moments of inertia in atomic units:
                           1         2         3
     Eigenvalues --  1403.240433414.884904161.86479
           X            0.99959  -0.02840   0.00463
           Y            0.02837   0.99958   0.00548
           Z           -0.00479  -0.00535   0.99997
 This molecule is an asymmetric top.
 Rotational symmetry number  1.
 Warning -- assumption of classical behavior for rotation
           may cause significant error
 Rotational temperatures (Kelvin)      0.06172     0.02536     0.02081
 Rotational constants (GHZ):           1.28612     0.52849     0.43364
 Zero-point vibrational energy     338499.5 (Joules/Mol)
                                   80.90332 (Kcal/Mol)
 Warning -- explicit consideration of  17 degrees of freedom as
           vibrations may cause significant error
 Vibrational temperatures:     35.87    63.15    96.40   120.02   124.85
          (Kelvin)            221.20   265.83   311.44   362.14   426.49
                              469.27   534.82   576.97   588.78   731.86
                              768.00   816.30   921.73   964.23  1008.70
                             1022.94  1083.50  1139.73  1171.21  1301.69
                             1471.40  1528.33  1558.48  1631.14  1669.18
                             1674.76  1688.35  1826.34  1853.76  1860.33
                             1905.22  1976.41  2014.29  2101.78  2112.04
                             2167.21  2177.55  2209.67  2292.52  3257.79
                             4429.48  4464.95  4529.65  4556.77  4591.33
                             4748.40

 Zero-point correction=                           0.128928 (Hartree/Particle)
 Thermal correction to Energy=                    0.141466
 Thermal correction to Enthalpy=                  0.142411
 Thermal correction to Gibbs Free Energy=         0.087765
 Sum of electronic and zero-point Energies=          -1032.918560
 Sum of electronic and thermal Energies=             -1032.906021
 Sum of electronic and thermal Enthalpies=           -1032.905077
 Sum of electronic and thermal Free Energies=        -1032.959722

                     E (Thermal)             CV                S
                      KCal/Mol        Cal/Mol-Kelvin    Cal/Mol-Kelvin
 Total                   88.772             43.562            115.011
 Electronic               0.000              0.000              0.000
 Translational            0.889              2.981             41.814
 Rotational               0.889              2.981             31.367
 Vibrational             86.994             37.600             41.829
 Vibration     1          0.593              1.985              6.197
 Vibration     2          0.595              1.980              5.075
 Vibration     3          0.598              1.970              4.240
 Vibration     4          0.600              1.961              3.809
 Vibration     5          0.601              1.958              3.731
 Vibration     6          0.619              1.899              2.625
 Vibration     7          0.631              1.861              2.280
 Vibration     8          0.645              1.816              1.988
 Vibration     9          0.664              1.760              1.719
 Vibration    10          0.690              1.680              1.437
 Vibration    11          0.710              1.623              1.279
 Vibration    12          0.743              1.530              1.073
 Vibration    13          0.767              1.468              0.959
 Vibration    14          0.774              1.450              0.929
 Vibration    15          0.864              1.231              0.637
 Vibration    16          0.889              1.175              0.579
 Vibration    17          0.923              1.102              0.509

 Optimization completed.
    -- Stationary point found.
 Normal termination of Gaussian 16 at Wed Dec  9 22:38:47 2020.

 ----------------------------------------------------------------------
 # B3LYP/6-311++G(d,p) empiricaldispersion=gd3bj scf=xqc pop=npa geom=c
 heck
 ----------------------------------------------------------------------

 ---------------------------------------
 CID_149674778_JID_3159_Energie_neutraal
 ---------------------------------------
 Structure from the checkpoint file:  "JID_3159.chk"
 Charge =  0 Multiplicity = 1

 SCF Done:  E(RB3LYP) =  -1033.25064056     A.U. after   17 cycles
 Normal termination of Gaussian 16 at Wed Dec  9 22:41:01 2020.

 ----------------------------------------------------------------------
 # B3LYP/6-311++G(d,p) empiricaldispersion=gd3bj scf=xqc pop=npa geom=c
 heck
 ----------------------------------------------------------------------

 -------------------------------------
 CID_149674778_JID_3159_Energie_kation
 -------------------------------------
 Structure from the checkpoint file:  "JID_3159.chk"
 Charge =  1 Multiplicity = 2

 SCF Done:  E(UB3LYP) =  -1032.89152739     A.U. after   33 cycles
 SCF Done:  E(UB3LYP) =  -1032.89152739     a.u. after    1 cycles
 Normal termination of Gaussian 16 at Wed Dec  9 22:47:19 2020.
 Gaussian 16:  ES64L-G16RevA.03 25-Dec-2016

 ----------------------------------------------------------------------
 # B3LYP/6-311++G(d,p) empiricaldispersion=gd3bj scf=xqc pop=npa geom=c
 heck
 ----------------------------------------------------------------------

 ------------------------------------
 CID_149674778_JID_3159_Energie_anion
 ------------------------------------
 Structure from the checkpoint file:  "JID_3159.chk"
 Charge = -1 Multiplicity = 2

                         Standard orientation:
 ---------------------------------------------------------------------
 Center     Atomic      Atomic             Coordinates (Angstroms)
 Number     Number       Type             X           Y           Z
 ---------------------------------------------------------------------
      1          6           0       -3.806884    0.808200   -0.233008
      2          7           0       -2.629949   -0.038615   -0.140826
      3          6           0       -1.488289    0.000197   -0.865609
      4          6           0       -0.713169   -1.013160   -0.334692
      5          7           0       -1.416870   -1.606685    0.675647
      6          7           0       -2.573963   -1.022853    0.790680
      7          6           0        0.665049   -1.439083   -0.671969
      8         16           0        1.939011   -0.344711    0.061711
      9          8           0        1.698963   -0.170711    1.490900
     10          8           0        3.237044   -0.723136   -0.477789
     11          7           0        1.516636    1.173142   -0.766463
     12          7           0        0.924881    1.971117   -0.018001
     13          7           0        0.381113    2.760030    0.592386
     14          1           0       -4.519288    0.443743    0.507037
     15          1           0       -3.544731    1.846417   -0.012003
     16          1           0       -4.245578    0.742290   -1.232215
     17          1           0       -1.321567    0.706438   -1.664083
     18          1           0        0.881620   -2.425054   -0.251315
     19          1           0        0.884113   -1.437543   -1.741988
 ---------------------------------------------------------------------

 SCF Done:  E(UB3LYP) =  -1033.27142042     A.U. after   29 cycles

 The electronic state is 2-A.
 Alpha  occ. eigenvalues --  -88.91097 -18.99397 -18.99313 -14.30394 -14.29594
 Alpha  occ. eigenvalues --  -14.26716 -14.23190 -14.21521 -14.20770 -10.12808
 Alpha  occ. eigenvalues --  -10.11167 -10.10373 -10.10337  -7.97747  -5.93966
 Alpha  occ. eigenvalues --   -5.93934  -5.93794  -0.99917  -0.99712  -0.97020
 Alpha  occ. eigenvalues --   -0.88747  -0.82120  -0.81699  -0.72562  -0.66254
 Alpha  occ. eigenvalues --   -0.63413  -0.54955  -0.51006  -0.50054  -0.43918
 Alpha  occ. eigenvalues --   -0.41641  -0.39830  -0.37417  -0.36827  -0.36739
 Alpha  occ. eigenvalues --   -0.35327  -0.34137  -0.33006  -0.32231  -0.31517
 Alpha  occ. eigenvalues --   -0.31223  -0.29634  -0.25188  -0.23783  -0.21319
 Alpha  occ. eigenvalues --   -0.20514  -0.19296  -0.18782  -0.17512  -0.16847
 Alpha  occ. eigenvalues --   -0.14626  -0.12730   0.03738
 Alpha virt. eigenvalues --    0.05769   0.07944   0.09165   0.09996   0.10971
 Alpha virt. eigenvalues --    0.11608   0.11956   0.12322   0.13316   0.14056
 Alpha virt. eigenvalues --    0.15611   0.16160   0.16715   0.17379   0.17678

  Beta  occ. eigenvalues --  -88.90938 -18.99328 -18.99258 -14.30346 -14.29135
  Beta  occ. eigenvalues --  -14.26721 -14.23194 -14.21524 -14.20026 -10.12784
  Beta  occ. eigenvalues --  -10.11098 -10.10363 -10.10282  -7.97569  -5.93835
  Beta  occ. eigenvalues --   -5.93681  -5.93616  -0.99776  -0.99382  -0.96201
  Beta  occ. eigenvalues --   -0.88582  -0.82062  -0.81097  -0.72460  -0.66099
  Beta  occ. eigenvalues --   -0.63291  -0.54286  -0.50732  -0.49982  -0.43737
  Beta  occ. eigenvalues --   -0.41391  -0.39692  -0.37192  -0.36634  -0.36142
  Beta  occ. eigenvalues --   -0.34187  -0.33753  -0.32695  -0.32105  -0.31238
  Beta  occ. eigenvalues --   -0.30938  -0.28102  -0.24439  -0.23769  -0.21072
  Beta  occ. eigenvalues --   -0.20265  -0.19124  -0.18632  -0.17506  -0.16133
  Beta  occ. eigenvalues --   -0.13986  -0.12427
  Beta virt. eigenvalues --    0.06490   0.08116   0.09225   0.10008   0.10837
  Beta virt. eigenvalues --    0.11202   0.11837   0.12275   0.12684   0.13329
  Beta virt. eigenvalues --    0.14264   0.15631   0.16325   0.16711   0.17398

 Mulliken charges and spin densities:
               1          2
     1  C    0.309460  -0.590390
     2  N    0.172481   0.075549
     3  C   -0.405191  -0.109720
     4  C    0.248199   0.021017
     5  N   -0.177001   0.004492
     6  N   -0.008457   0.025758
     7  C   -1.056545  -0.002745
     8  S    0.679913   0.061151
     9  O   -0.330553   0.013988
    10  O   -0.202349   0.023922
    11  N   -0.670384  -0.009630
    12  N    0.512517   0.116821
    13  N   -0.339749   0.453462
    14  H    0.076692   0.084007
    15  H    0.123843   0.060775
    16  H   -0.323801   0.498700
    17  H   -0.055965   0.236753
    18  H    0.225191   0.004121
    19  H    0.221701   0.031970
 Sum of Mulliken charges =  -1.00000   1.00000

 Dipole moment (field-independent basis, Debye):
    X=             -2.8206    Y=             -1.9906    Z=             -2.2078  Tot=              4.0979
 Quadrupole moment (field-independent basis, Debye-Ang):
   XX=           -124.5115   YY=           -106.1088   ZZ=           -102.4019
   XY=             -4.6651   XZ=             -2.3039   YZ=              3.3020

 Summary of Natural Population Analysis:

                                       Natural Population
                Natural  -----------------------------------------------
    Atom  No    Charge         Core      Valence    Rydberg      Total
 -----------------------------------------------------------------------
      C    1   -0.17688      0.99964     2.16984    0.00741     3.17688
      N    2   -0.09823      0.99967     2.58593    0.01264     3.59823
      C    3    0.00004      0.99949     1.98872    0.01176     2.99996
      C    4    0.02345      0.99956     1.96067    0.01632     2.97655
      N    5   -0.13172      0.99972     2.61886    0.01314     3.63172
      N    6   -0.05033      0.99978     2.53425    0.01629     3.55033
      C    7   -0.29125      0.99953     2.27824    0.01348     3.29125
      S    8    1.09667      4.99935     1.80472    0.09926     6.90333
      O    9   -0.45247      0.99990     3.44641    0.00616     4.45247
      O   10   -0.45693      0.99990     3.45145    0.00558     4.45693
      N   11   -0.33373      0.99974     2.81808    0.01591     3.83373
      N   12    0.13937      0.99971     2.34552    0.01540     3.36063
      N   13    0.06420      0.99981     2.42341    0.01258     3.43580
      H   14    0.10871      0.00000     0.39006    0.00123     0.39129
      H   15    0.10316      0.00000     0.39592    0.00092     0.39684
      H   16    0.10168      0.00000     0.39608    0.00223     0.39832
      H   17    0.11478      0.00000     0.38393    0.00129     0.38522
      H   18    0.12017      0.00000     0.37880    0.00103     0.37983
      H   19    0.11931      0.00000     0.37988    0.00080     0.38069
 =======================================================================
   * Total *    0.00000     16.99580    34.75077    0.25343    52.00000

 Normal termination of Gaussian 16 at Wed Dec  9 22:52:40 2020.
