 Gaussian 16, Revision A.03,

 -----------------------------------------------------------
 # opt freq B3LYP/6-31G(d) empiricaldispersion=gd3bj scf=xqc
 -----------------------------------------------------------

 ------------------------------
 CID_12704400_JID_1609_neutraal
 ------------------------------
 Symbolic Z-matrix:
 Charge =  0 Multiplicity = 1

 SCF Done:  E(RB3LYP) =  -500.635078642     A.U. after   14 cycles
 SCF Done:  E(RB3LYP) =  -500.637931588     A.U. after   11 cycles
 SCF Done:  E(RB3LYP) =  -500.638274868     A.U. after   11 cycles
 SCF Done:  E(RB3LYP) =  -500.638354600     A.U. after   11 cycles
 SCF Done:  E(RB3LYP) =  -500.638406303     A.U. after   11 cycles
 SCF Done:  E(RB3LYP) =  -500.638434523     A.U. after   10 cycles
 SCF Done:  E(RB3LYP) =  -500.638477148     A.U. after   11 cycles
 SCF Done:  E(RB3LYP) =  -500.638500005     A.U. after   10 cycles
 SCF Done:  E(RB3LYP) =  -500.638508272     A.U. after   10 cycles
 SCF Done:  E(RB3LYP) =  -500.638513661     A.U. after    9 cycles
 SCF Done:  E(RB3LYP) =  -500.638907425     A.U. after   11 cycles
 SCF Done:  E(RB3LYP) =  -500.638917117     A.U. after   11 cycles
 SCF Done:  E(RB3LYP) =  -500.638920108     A.U. after   10 cycles
 SCF Done:  E(RB3LYP) =  -500.638920090     A.U. after    8 cycles
 SCF Done:  E(RB3LYP) =  -500.638920179     A.U. after    8 cycles
 SCF Done:  E(RB3LYP) =  -500.638920194     A.U. after    7 cycles
 Optimization completed.
    -- Stationary point found.

 1\1\GINC-NODE125\FOpt\RB3LYP\6-31G(d)\C9H12O2\VSC10255\08-Dec-2020\0\\
 # opt freq B3LYP/6-31G(d) empiricaldispersion=gd3bj scf=xqc\\CID_12704
 400_JID_1609_neutraal\\0,1\C,1.9083844967,-0.3446146284,0.4471503562\C
 ,0.549975852,-0.2886560243,-0.1546719508\C,-0.1808934511,-1.143105902,
 -0.9241477932\C,-1.4382622309,-0.4980769395,-1.1858630448\C,-1.3899666
 752,0.7054210931,-0.5531087268\O,-0.1822672547,0.8512773752,0.08184252
 54\C,-2.3611616547,1.8423388748,-0.4442341281\C,-2.6110216288,2.291456
 6758,1.028419228\C,-4.1149677613,2.0152321228,1.2391925093\C,-4.417107

 Normal termination of Gaussian 16 at Tue Dec  8 21:01:07 2020.

 --------------------------------------------------------------------
 #N Geom=AllCheck Guess=TCheck SCRF=Check GenChk RB3LYP/6-31G(d) Freq
 --------------------------------------------------------------------

 Structure from the checkpoint file:  "JID_1609.chk"
 ------------------------------
 CID_12704400_JID_1609_neutraal
 ------------------------------
 Charge =  0 Multiplicity = 1

 SCF Done:  E(RB3LYP) =  -500.638920194     A.U. after    1 cycles

  Exact polarizability: 120.747   2.243  93.716  -4.485   5.769  67.690
 Approx polarizability: 150.629   4.367 149.950 -11.040  11.462 103.086

                      1                      2                      3
                      A                      A                      A
 Frequencies --     32.2244                57.6425               121.1664
 Red. masses --      2.7032                 3.2564                 1.9453
 Frc consts  --      0.0017                 0.0064                 0.0168
 IR Inten    --      1.1022                 0.8200                 1.1733

                      4                      5                      6
                      A                      A                      A
 Frequencies --    133.8614               146.6925               227.6814
 Red. masses --      1.5154                 2.8653                 2.4600
 Frc consts  --      0.0160                 0.0363                 0.0751
 IR Inten    --      0.5182                 1.9468                 2.3910

                      7                      8                      9
                      A                      A                      A
 Frequencies --    258.1303               329.5281               356.1872
 Red. masses --      2.9597                 3.1414                 4.5982
 Frc consts  --      0.1162                 0.2010                 0.3437
 IR Inten    --      1.0625                 8.2056                 0.2876

                     10                     11                     12
                      A                      A                      A
 Frequencies --    467.9024               596.9938               627.9286
 Red. masses --      4.1377                 2.1805                 3.3693
 Frc consts  --      0.5337                 0.4579                 0.7827
 IR Inten    --      0.4423                 2.1428                 0.3158

                     13                     14                     15
                      A                      A                      A
 Frequencies --    639.8109               670.8608               721.8553
 Red. masses --      4.4313                 4.7119                 5.4031
 Frc consts  --      1.0688                 1.2494                 1.6588
 IR Inten    --      1.8096                 2.4048                 5.0860

                     16                     17                     18
                      A                      A                      A
 Frequencies --    738.3772               806.2945               852.3435
 Red. masses --      2.6010                 1.1954                 1.3243
 Frc consts  --      0.8355                 0.4579                 0.5668
 IR Inten    --      2.4341                34.5068                 0.6566

                     19                     20                     21
                      A                      A                      A
 Frequencies --    872.4762               909.0441               927.7780
 Red. masses --      1.8555                 2.3409                 2.2839
 Frc consts  --      0.8322                 1.1398                 1.1583
 IR Inten    --      5.8975                 3.5647                 9.2752

                     22                     23                     24
                      A                      A                      A
 Frequencies --    939.1274               956.9574               982.2414
 Red. masses --      2.5093                 3.5087                 2.0928
 Frc consts  --      1.3039                 1.8931                 1.1897
 IR Inten    --      2.1649                27.4710                 3.0428

                     25                     26                     27
                      A                      A                      A
 Frequencies --    992.9665              1024.7949              1046.5642
 Red. masses --      4.0653                 1.7918                 1.5836
 Frc consts  --      2.3616                 1.1087                 1.0220
 IR Inten    --      6.5693                 8.0064                23.2451

                     28                     29                     30
                      A                      A                      A
 Frequencies --   1056.3118              1081.3279              1115.4809
 Red. masses --      2.0875                 1.4505                 8.2925
 Frc consts  --      1.3724                 0.9993                 6.0794
 IR Inten    --      4.0383                 2.1270               129.6370

                     31                     32                     33
                      A                      A                      A
 Frequencies --   1118.7082              1220.3325              1229.1594
 Red. masses --      1.7051                 1.3723                 1.4310
 Frc consts  --      1.2573                 1.2041                 1.2738
 IR Inten    --      0.7798                 1.9106                 4.3280

                     34                     35                     36
                      A                      A                      A
 Frequencies --   1235.8575              1248.5154              1254.4606
 Red. masses --      1.4679                 3.3332                 4.4324
 Frc consts  --      1.3209                 3.0612                 4.1096
 IR Inten    --      9.1580                 5.4432                10.6004

                     37                     38                     39
                      A                      A                      A
 Frequencies --   1269.7323              1317.8521              1327.4174
 Red. masses --      1.2591                 1.2288                 1.3370
 Frc consts  --      1.1961                 1.2574                 1.3880
 IR Inten    --      5.4501                 2.9864                 2.4990

                     40                     41                     42
                      A                      A                      A
 Frequencies --   1355.5178              1371.5993              1395.9324
 Red. masses --      1.3837                 1.5758                 1.8734
 Frc consts  --      1.4980                 1.7467                 2.1508
 IR Inten    --      2.2027                39.4967                12.3112

                     43                     44                     45
                      A                      A                      A
 Frequencies --   1412.5791              1445.4444              1502.7953
 Red. masses --      1.6702                 1.2854                 1.0430
 Frc consts  --      1.9635                 1.5824                 1.3879
 IR Inten    --      9.0020                 2.2311                 6.4872

                     46                     47                     48
                      A                      A                      A
 Frequencies --   1516.8586              1522.4079              1533.4316
 Red. masses --      1.0875                 1.1012                 1.0895
 Frc consts  --      1.4743                 1.5038                 1.5094
 IR Inten    --      0.4344                 5.0869                 2.7315

                     49                     50                     51
                      A                      A                      A
 Frequencies --   1548.0745              1618.5793              1671.9526
 Red. masses --      1.1049                 7.6924                 6.3296
 Frc consts  --      1.5602                11.8736                10.4250
 IR Inten    --      1.3077                16.2673                 5.5746

                     52                     53                     54
                      A                      A                      A
 Frequencies --   3011.8129              3041.9877              3047.5343
 Red. masses --      1.0711                 1.0384                 1.0854
 Frc consts  --      5.7245                 5.6617                 5.9392
 IR Inten    --     50.6561                38.7502                32.4912

                     55                     56                     57
                      A                      A                      A
 Frequencies --   3073.6543              3090.2063              3093.4125
 Red. masses --      1.0611                 1.1015                 1.0614
 Frc consts  --      5.9065                 6.1975                 5.9844
 IR Inten    --     26.0873                19.6674                24.3989

                     58                     59                     60
                      A                      A                      A
 Frequencies --   3117.3998              3125.5143              3139.8367
 Red. masses --      1.1014                 1.0985                 1.0990
 Frc consts  --      6.3062                 6.3225                 6.3836
 IR Inten    --     15.9560                37.1716                13.1982

                     61                     62                     63
                      A                      A                      A
 Frequencies --   3140.8819              3262.3367              3287.8599
 Red. masses --      1.1070                 1.0950                 1.0986
 Frc consts  --      6.4343                 6.8661                 6.9971
 IR Inten    --     43.9844                 8.2925                 0.8032

 - Thermochemistry -
 -------------------
 Temperature   298.150 Kelvin.  Pressure   1.00000 Atm.
 Atom     1 has atomic number  6 and mass  12.00000

 Molecular mass:   152.08373 amu.
 Principal axes and moments of inertia in atomic units:
                           1         2         3
     Eigenvalues --   660.764192695.837003057.11425
           X            0.99999  -0.00118   0.00354
           Y            0.00112   0.99985   0.01701
           Z           -0.00356  -0.01700   0.99985
 This molecule is an asymmetric top.
 Rotational symmetry number  1.
 Warning -- assumption of classical behavior for rotation
           may cause significant error
 Rotational temperatures (Kelvin)      0.13108     0.03213     0.02833
 Rotational constants (GHZ):           2.73129     0.66945     0.59034
 Zero-point vibrational energy     515830.9 (Joules/Mol)
                                  123.28655 (Kcal/Mol)
 Warning -- explicit consideration of  11 degrees of freedom as
           vibrations may cause significant error
 Vibrational temperatures:     46.36    82.93   174.33   192.60   211.06
          (Kelvin)            327.58   371.39   474.12   512.47   673.21
                              858.94   903.45   920.55   965.22  1038.59
                             1062.36  1160.08  1226.33  1255.30  1307.91
                             1334.87  1351.19  1376.85  1413.23  1428.66
                             1474.45  1505.77  1519.80  1555.79  1604.93
                             1609.57  1755.79  1768.49  1778.12  1796.34
                             1804.89  1826.86  1896.10  1909.86  1950.29
                             1973.43  2008.44  2032.39  2079.67  2162.19
                             2182.42  2190.41  2206.27  2227.33  2328.77
                             2405.57  4333.33  4376.74  4384.72  4422.30
                             4446.12  4450.73  4485.24  4496.92  4517.52
                             4519.03  4693.77  4730.50

 Zero-point correction=                           0.196470 (Hartree/Particle)
 Thermal correction to Energy=                    0.206572
 Thermal correction to Enthalpy=                  0.207516
 Thermal correction to Gibbs Free Energy=         0.159598
 Sum of electronic and zero-point Energies=           -500.442451
 Sum of electronic and thermal Energies=              -500.432348
 Sum of electronic and thermal Enthalpies=            -500.431404
 Sum of electronic and thermal Free Energies=         -500.479323

                     E (Thermal)             CV                S
                      KCal/Mol        Cal/Mol-Kelvin    Cal/Mol-Kelvin
 Total                  129.626             37.620            100.854
 Electronic               0.000              0.000              0.000
 Translational            0.889              2.981             40.968
 Rotational               0.889              2.981             30.078
 Vibrational            127.849             31.658             29.808
 Vibration     1          0.594              1.983              5.688
 Vibration     2          0.596              1.974              4.536
 Vibration     3          0.609              1.932              3.082
 Vibration     4          0.613              1.920              2.890
 Vibration     5          0.617              1.906              2.715
 Vibration     6          0.651              1.799              1.897
 Vibration     7          0.667              1.749              1.674
 Vibration     8          0.712              1.617              1.262
 Vibration     9          0.732              1.563              1.139
 Vibration    10          0.825              1.321              0.743
 Vibration    11          0.955              1.038              0.455

 Optimization completed.
    -- Stationary point found.

 1\1\GINC-NODE125\Freq\RB3LYP\6-31G(d)\C9H12O2\VSC10255\08-Dec-2020\0\\
 #N Geom=AllCheck Guess=TCheck SCRF=Check GenChk RB3LYP/6-31G(d) Freq\\
 CID_12704400_JID_1609_neutraal\\0,1\C,1.9083844967,-0.3446146284,0.447
 1503562\C,0.549975852,-0.2886560243,-0.1546719508\C,-0.1808934511,-1.1
 43105902,-0.9241477932\C,-1.4382622309,-0.4980769395,-1.1858630448\C,-
 1.3899666752,0.7054210931,-0.5531087268\O,-0.1822672547,0.8512773752,0
 .0818425254\C,-2.3611616547,1.8423388748,-0.4442341281\C,-2.6110216288
 ,2.2914566758,1.028419228\C,-4.1149677613,2.0152321228,1.2391925093\C,

 Normal termination of Gaussian 16 at Tue Dec  8 21:06:39 2020.

 ----------------------------------------------------------------------
 # B3LYP/6-311++G(d,p) empiricaldispersion=gd3bj scf=xqc pop=npa geom=c
 heck
 ----------------------------------------------------------------------

 --------------------------------------
 CID_12704400_JID_1609_Energie_neutraal
 --------------------------------------
 Structure from the checkpoint file:  "JID_1609.chk"
 Charge =  0 Multiplicity = 1

 SCF Done:  E(RB3LYP) =  -500.776998822     A.U. after   14 cycles
 Normal termination of Gaussian 16 at Tue Dec  8 21:09:30 2020.

 ----------------------------------------------------------------------
 # B3LYP/6-311++G(d,p) empiricaldispersion=gd3bj scf=xqc pop=npa geom=c
 heck
 ----------------------------------------------------------------------

 ------------------------------------
 CID_12704400_JID_1609_Energie_kation
 ------------------------------------
 Structure from the checkpoint file:  "JID_1609.chk"
 Charge =  1 Multiplicity = 2

 SCF Done:  E(UB3LYP) =  -500.487230637     A.U. after   21 cycles
 Normal termination of Gaussian 16 at Tue Dec  8 21:14:12 2020.
 Gaussian 16:  ES64L-G16RevA.03 25-Dec-2016

 -----------------------------------
 CID_12704400_JID_1609_Energie_anion
 -----------------------------------
 Structure from the checkpoint file:  "JID_1609.chk"
 Charge = -1 Multiplicity = 2

                         Standard orientation:
 ---------------------------------------------------------------------
 Center     Atomic      Atomic             Coordinates (Angstroms)
 Number     Number       Type             X           Y           Z
 ---------------------------------------------------------------------
      1          6           0       -3.625574   -0.942257    0.246151
      2          6           0       -2.425845   -0.074278    0.112518
      3          6           0       -2.185699    1.249335    0.328681
      4          6           0       -0.803681    1.480791    0.009323
      5          6           0       -0.293560    0.279695   -0.375725
      6          8           0       -1.270425   -0.682370   -0.319682
      7          6           0        1.065618   -0.152377   -0.837901
      8          6           0        1.611070   -1.387061   -0.056313
      9          6           0        2.879472   -0.843965    0.635629
     10          6           0        2.633822    0.665593    0.628175
     11          8           0        1.994625    0.913518   -0.623917
     12          1           0       -3.901979   -1.399725   -0.712038
     13          1           0       -3.457924   -1.756800    0.961956
     14          1           0       -4.473491   -0.348063    0.597657
     15          1           0       -2.907345    1.976500    0.674823
     16          1           0       -0.257301    2.411014    0.053015
     17          1           0        1.053143   -0.341691   -1.918407
     18          1           0        0.871647   -1.732276    0.670399
     19          1           0        1.830900   -2.221789   -0.726731
     20          1           0        3.022032   -1.249294    1.641864
     21          1           0        3.771091   -1.075351    0.043866
     22          1           0        1.979028    0.963670    1.461545
     23          1           0        3.542851    1.271766    0.657615
 ---------------------------------------------------------------------

 SCF Done:  E(UB3LYP) =  -500.759909987     A.U. after   32 cycles

 The electronic state is 2-A.
 Alpha  occ. eigenvalues --  -19.07856 -19.02568 -10.13043 -10.12110 -10.11566
 Alpha  occ. eigenvalues --  -10.11391 -10.07101 -10.06949 -10.06915 -10.06238
 Alpha  occ. eigenvalues --  -10.06192  -1.00260  -0.94438  -0.69588  -0.69235
 Alpha  occ. eigenvalues --   -0.67789  -0.64262  -0.57770  -0.51050  -0.49764
 Alpha  occ. eigenvalues --   -0.48240  -0.44513  -0.41491  -0.40302  -0.37816
 Alpha  occ. eigenvalues --   -0.35704  -0.34148  -0.32486  -0.31615  -0.30808
 Alpha  occ. eigenvalues --   -0.29993  -0.29254  -0.28391  -0.26932  -0.25751
 Alpha  occ. eigenvalues --   -0.25141  -0.23348  -0.22596  -0.17672  -0.16740
 Alpha  occ. eigenvalues --   -0.11310   0.04634
 Alpha virt. eigenvalues --    0.06306   0.07703   0.08234   0.08813   0.09141
 Alpha virt. eigenvalues --    0.10029   0.10887   0.11088   0.11243   0.11703
 Alpha virt. eigenvalues --    0.12229   0.13231   0.14923   0.15255   0.16372

  Beta  occ. eigenvalues --  -19.07845 -19.02565 -10.13035 -10.12106 -10.11565
  Beta  occ. eigenvalues --  -10.11372 -10.07052 -10.06925 -10.06886 -10.06227
  Beta  occ. eigenvalues --  -10.06183  -1.00244  -0.94427  -0.69565  -0.69212
  Beta  occ. eigenvalues --   -0.67748  -0.64219  -0.57715  -0.51008  -0.49703
  Beta  occ. eigenvalues --   -0.48193  -0.44489  -0.41455  -0.40249  -0.37778
  Beta  occ. eigenvalues --   -0.35672  -0.34116  -0.32453  -0.31582  -0.30764
  Beta  occ. eigenvalues --   -0.29946  -0.29217  -0.28364  -0.26900  -0.25703
  Beta  occ. eigenvalues --   -0.25102  -0.23312  -0.22574  -0.17649  -0.16719
  Beta  occ. eigenvalues --   -0.11279
  Beta virt. eigenvalues --    0.06888   0.07520   0.08288   0.08758   0.09496
  Beta virt. eigenvalues --    0.09799   0.10497   0.11205   0.11569   0.11632
  Beta virt. eigenvalues --    0.12316   0.12520   0.13633   0.15151   0.15321

 Mulliken charges and spin densities:
               1          2
     1  C    2.619698  -3.230756
     2  C   -1.686167   1.833691
     3  C    0.196830  -0.373309
     4  C   -0.807069   0.760447
     5  C    1.320665  -1.530370
     6  O   -0.038943   0.065962
     7  C   -1.003839   1.043080
     8  C    0.738605  -1.142449
     9  C    0.412496  -0.783221
    10  C    0.453894  -0.690532
    11  O   -0.114557  -0.009053
    12  H   -0.241853   0.398073
    13  H   -0.312765   0.465691
    14  H   -0.648306   0.816289
    15  H   -0.540559   0.696954
    16  H   -0.050466   0.228019
    17  H   -0.205576   0.445287
    18  H    0.055436   0.126584
    19  H   -0.401001   0.547616
    20  H   -0.485175   0.626096
    21  H   -0.094475   0.258688
    22  H    0.114675   0.012008
    23  H   -0.281547   0.435208
 Sum of Mulliken charges =  -1.00000   1.00000

 Dipole moment (field-independent basis, Debye):
    X=              2.1078    Y=              2.2728    Z=             -0.8304  Tot=              3.2091
 Quadrupole moment (field-independent basis, Debye-Ang):
   XX=           -149.3076   YY=           -101.5534   ZZ=            -97.1731
   XY=              1.3510   XZ=              2.2504   YZ=              1.2023

 Summary of Natural Population Analysis:

                                       Natural Population
                Natural  -----------------------------------------------
    Atom  No    Charge         Core      Valence    Rydberg      Total
 -----------------------------------------------------------------------
      C    1   -0.30571      0.99963     2.30044    0.00564     3.30571
      C    2    0.15242      0.99947     1.83357    0.01454     2.84758
      C    3   -0.15251      0.99949     2.14376    0.00926     3.15251
      C    4   -0.14713      0.99948     2.13925    0.00839     3.14713
      C    5    0.14157      0.99943     1.84431    0.01470     2.85843
      O    6   -0.24494      0.99985     3.23656    0.00854     4.24494
      C    7    0.04670      0.99952     1.93848    0.01530     2.95330
      C    8   -0.19866      0.99963     2.19101    0.00802     3.19866
      C    9   -0.20398      0.99964     2.19631    0.00803     3.20398
      C   10   -0.01303      0.99960     2.00020    0.01323     3.01303
      O   11   -0.29930      0.99990     3.29061    0.00879     4.29930
      H   12    0.10728      0.00000     0.39093    0.00179     0.39272
      H   13    0.10743      0.00000     0.39101    0.00157     0.39257
      H   14    0.11027      0.00000     0.38750    0.00222     0.38973
      H   15    0.10761      0.00000     0.39140    0.00100     0.39239
      H   16    0.11122      0.00000     0.38779    0.00099     0.38878
      H   17    0.09786      0.00000     0.40049    0.00165     0.40214
      H   18    0.10519      0.00000     0.39300    0.00182     0.39481
      H   19    0.10457      0.00000     0.39370    0.00173     0.39543
      H   20    0.10348      0.00000     0.39489    0.00163     0.39652
      H   21    0.09883      0.00000     0.39934    0.00183     0.40117
      H   22    0.07959      0.00000     0.41891    0.00150     0.42041
      H   23    0.09126      0.00000     0.40734    0.00141     0.40874
 =======================================================================
   * Total *    0.00000     10.99564    29.87078    0.13359    41.00000

 Normal termination of Gaussian 16 at Tue Dec  8 21:21:23 2020.
