 Gaussian 16, Revision A.03,

 -----------------------------------------------------------
 # opt freq B3LYP/6-31G(d) empiricaldispersion=gd3bj scf=xqc
 -----------------------------------------------------------

 ------------------------------
 CID_21192972_JID_5725_neutraal
 ------------------------------
 Symbolic Z-matrix:
 Charge =  0 Multiplicity = 1

 SCF Done:  E(RB3LYP) =  -630.609356558     A.U. after   15 cycles
 SCF Done:  E(RB3LYP) =  -630.613056881     A.U. after   12 cycles
 SCF Done:  E(RB3LYP) =  -630.613503654     A.U. after   11 cycles
 SCF Done:  E(RB3LYP) =  -630.613568394     A.U. after   11 cycles
 SCF Done:  E(RB3LYP) =  -630.613577196     A.U. after    9 cycles
 SCF Done:  E(RB3LYP) =  -630.613580078     A.U. after    9 cycles
 SCF Done:  E(RB3LYP) =  -630.613580796     A.U. after    7 cycles
 SCF Done:  E(RB3LYP) =  -630.613581015     A.U. after    7 cycles
 Optimization completed.
    -- Stationary point found.
 Normal termination of Gaussian 16 at Thu Dec 10 16:36:25 2020.

 --------------------------------------------------------------------
 #N Geom=AllCheck Guess=TCheck SCRF=Check GenChk RB3LYP/6-31G(d) Freq
 --------------------------------------------------------------------

 Structure from the checkpoint file:  "JID_5725.chk"
 ------------------------------
 CID_21192972_JID_5725_neutraal
 ------------------------------
 Charge =  0 Multiplicity = 1

 SCF Done:  E(RB3LYP) =  -630.613581015     A.U. after    1 cycles

  Exact polarizability: 191.618 -11.474 148.405   3.794   9.551  83.924
 Approx polarizability: 271.387 -32.482 263.168   3.916  28.623 132.511

                      1                      2                      3
                      A                      A                      A
 Frequencies --     43.0073                70.4277                87.2981
 Red. masses --      3.5886                 3.8725                 3.9129
 Frc consts  --      0.0039                 0.0113                 0.0176
 IR Inten    --      0.1566                 0.1554                 0.4903

                      4                      5                      6
                      A                      A                      A
 Frequencies --    175.4898               203.3685               225.1220
 Red. masses --      3.5670                 5.9097                 3.4578
 Frc consts  --      0.0647                 0.1440                 0.1032
 IR Inten    --      0.7867                 0.1577                 0.5199

                      7                      8                      9
                      A                      A                      A
 Frequencies --    254.8618               264.2497               351.3833
 Red. masses --      1.9262                 4.2864                 3.2473
 Frc consts  --      0.0737                 0.1763                 0.2362
 IR Inten    --      0.4385                 1.3488                 2.4005

                     10                     11                     12
                      A                      A                      A
 Frequencies --    375.6943               428.1241               438.7017
 Red. masses --      2.5060                 2.8333                 2.8139
 Frc consts  --      0.2084                 0.3060                 0.3191
 IR Inten    --      3.1079                 7.6527                 1.8240

                     13                     14                     15
                      A                      A                      A
 Frequencies --    465.9885               503.4621               540.9679
 Red. masses --      3.0619                 4.1903                 1.7416
 Frc consts  --      0.3917                 0.6258                 0.3003
 IR Inten    --      0.6739                 9.2401                27.0127

                     16                     17                     18
                      A                      A                      A
 Frequencies --    582.3276               587.6314               632.7090
 Red. masses --      3.7242                 6.6070                 5.2148
 Frc consts  --      0.7441                 1.3442                 1.2300
 IR Inten    --      1.9766                 3.0621                 3.4382

                     19                     20                     21
                      A                      A                      A
 Frequencies --    699.0644               732.3726               744.2711
 Red. masses --      4.9086                 3.0234                 1.5206
 Frc consts  --      1.4133                 0.9554                 0.4963
 IR Inten    --      8.8547                 1.3005                27.1700

                     22                     23                     24
                      A                      A                      A
 Frequencies --    773.0710               787.3431               795.6491
 Red. masses --      3.4384                 2.7425                 1.3891
 Frc consts  --      1.2107                 1.0017                 0.5181
 IR Inten    --     18.4047                53.9384                23.4026

                     25                     26                     27
                      A                      A                      A
 Frequencies --    829.3076               830.2352               836.3207
 Red. masses --      1.4832                 1.5063                 2.4419
 Frc consts  --      0.6010                 0.6117                 1.0063
 IR Inten    --      4.0597                 0.1827                27.8265

                     28                     29                     30
                      A                      A                      A
 Frequencies --    857.8385               916.3315               918.8721
 Red. masses --      2.6414                 2.2284                 4.8107
 Frc consts  --      1.1452                 1.1024                 2.3932
 IR Inten    --      7.8556                 0.1877                 9.8762

                     31                     32                     33
                      A                      A                      A
 Frequencies --    926.9060               928.6071               970.0004
 Red. masses --      1.4730                 1.7667                 1.2448
 Frc consts  --      0.7456                 0.8976                 0.6901
 IR Inten    --      0.6680                 1.5070                 0.1904

                     34                     35                     36
                      A                      A                      A
 Frequencies --   1008.1891              1025.5940              1040.0409
 Red. masses --      1.4564                 2.4038                 2.9492
 Frc consts  --      0.8722                 1.4897                 1.8796
 IR Inten    --      1.3221                 1.3636                36.0676

                     37                     38                     39
                      A                      A                      A
 Frequencies --   1067.0581              1079.2178              1113.5466
 Red. masses --      1.8388                 2.0577                 2.5790
 Frc consts  --      1.2336                 1.4121                 1.8841
 IR Inten    --      8.5116                 1.6754                 4.8085

                     40                     41                     42
                      A                      A                      A
 Frequencies --   1145.8938              1167.3588              1174.9134
 Red. masses --      2.3600                 1.4518                 2.1582
 Frc consts  --      1.8258                 1.1657                 1.7553
 IR Inten    --      6.7010                 2.2423                21.0047

                     43                     44                     45
                      A                      A                      A
 Frequencies --   1181.7116              1182.1710              1217.0237
 Red. masses --      1.3426                 1.3574                 1.7645
 Frc consts  --      1.1046                 1.1177                 1.5398
 IR Inten    --      0.4578                 1.3551                 2.2845

                     46                     47                     48
                      A                      A                      A
 Frequencies --   1241.1861              1269.7979              1292.8759
 Red. masses --      1.2017                 1.7674                 1.6664
 Frc consts  --      1.0907                 1.6790                 1.6411
 IR Inten    --      1.2436                11.9508                 3.1456

                     49                     50                     51
                      A                      A                      A
 Frequencies --   1308.8332              1319.5841              1334.5800
 Red. masses --      2.5219                 1.3941                 1.6676
 Frc consts  --      2.5453                 1.4303                 1.7500
 IR Inten    --      2.1950                 0.4558                 4.6933

                     52                     53                     54
                      A                      A                      A
 Frequencies --   1341.3967              1363.2634              1366.7005
 Red. masses --      1.2790                 1.9961                 1.3481
 Frc consts  --      1.3560                 2.1857                 1.4836
 IR Inten    --      4.8277                16.4375                37.1535

                     55                     56                     57
                      A                      A                      A
 Frequencies --   1383.2603              1390.2270              1417.6470
 Red. masses --      1.3461                 2.1441                 1.7973
 Frc consts  --      1.5176                 2.4415                 2.1282
 IR Inten    --      0.2692                24.4179                 0.7262

                     58                     59                     60
                      A                      A                      A
 Frequencies --   1445.1455              1449.0815              1490.7413
 Red. masses --      2.3666                 1.4915                 2.8419
 Frc consts  --      2.9120                 1.8453                 3.7211
 IR Inten    --      2.0565                20.2495                 3.6657

                     61                     62                     63
                      A                      A                      A
 Frequencies --   1498.8648              1505.8037              1518.6198
 Red. masses --      1.1969                 1.1524                 1.1039
 Frc consts  --      1.5842                 1.5396                 1.5000
 IR Inten    --      4.8455                 0.4965                 6.4316

                     64                     65                     66
                      A                      A                      A
 Frequencies --   1526.4881              1535.6343              1537.5244
 Red. masses --      1.1280                 3.2447                 1.3221
 Frc consts  --      1.5486                 4.5082                 1.8414
 IR Inten    --      0.9219                11.9732                 0.1462

                     67                     68                     69
                      A                      A                      A
 Frequencies --   1563.2887              1587.8553              1697.1473
 Red. masses --      5.7359                 4.7880                 5.8089
 Frc consts  --      8.2590                 7.1126                 9.8579
 IR Inten    --      2.4452                 0.6333                 4.1649

                     70                     71                     72
                      A                      A                      A
 Frequencies --   2899.9022              2909.2189              2981.4175
 Red. masses --      1.0743                 1.0730                 1.0811
 Frc consts  --      5.3229                 5.3508                 5.6621
 IR Inten    --     39.3826               133.5315                30.3158

                     73                     74                     75
                      A                      A                      A
 Frequencies --   3053.5137              3073.0178              3080.9066
 Red. masses --      1.0619                 1.0671                 1.0868
 Frc consts  --      5.8338                 5.9375                 6.0778
 IR Inten    --     22.4837                14.1089                63.4799

                     76                     77                     78
                      A                      A                      A
 Frequencies --   3085.6575              3102.1516              3124.8217
 Red. masses --      1.0834                 1.1032                 1.1024
 Frc consts  --      6.0774                 6.2548                 6.3424
 IR Inten    --     44.3661                22.2730                20.6590

                     79                     80                     81
                      A                      A                      A
 Frequencies --   3205.2821              3218.2144              3227.0381
 Red. masses --      1.0862                 1.0913                 1.0948
 Frc consts  --      6.5752                 6.6595                 6.7171
 IR Inten    --      0.5076                11.7275                13.7305

                     82                     83                     84
                      A                      A                      A
 Frequencies --   3255.1143              3262.2098              3502.9798
 Red. masses --      1.0952                 1.0961                 1.0746
 Frc consts  --      6.8369                 6.8727                 7.7690
 IR Inten    --      4.2670                 9.4356                 2.7817

 - Thermochemistry -
 -------------------
 Temperature   298.150 Kelvin.  Pressure   1.00000 Atm.
 Atom     1 has atomic number  6 and mass  12.00000

 Molecular mass:   201.12660 amu.
 Principal axes and moments of inertia in atomic units:
                           1         2         3
     Eigenvalues --  1217.488035073.796165887.02594
           X            0.99999   0.00180   0.00386
           Y           -0.00177   0.99998  -0.00561
           Z           -0.00387   0.00560   0.99998
 This molecule is an asymmetric top.
 Rotational symmetry number  1.
 Warning -- assumption of classical behavior for rotation
           may cause significant error
 Rotational temperatures (Kelvin)      0.07114     0.01707     0.01471
 Rotational constants (GHZ):           1.48235     0.35570     0.30656
 Zero-point vibrational energy     679160.2 (Joules/Mol)
                                  162.32318 (Kcal/Mol)
 Warning -- explicit consideration of  17 degrees of freedom as
           vibrations may cause significant error
 Vibrational temperatures:     61.88   101.33   125.60   252.49   292.60
          (Kelvin)            323.90   366.69   380.20   505.56   540.54
                              615.98   631.19   670.45   724.37   778.33
                              837.84   845.47   910.33  1005.80  1053.72
                             1070.84  1112.28  1132.81  1144.76  1193.19
                             1194.52  1203.28  1234.24  1318.40  1322.05
                             1333.61  1336.06  1395.61  1450.56  1475.60
                             1496.39  1535.26  1552.75  1602.15  1648.69
                             1679.57  1690.44  1700.22  1700.88  1751.03
                             1785.79  1826.96  1860.16  1883.12  1898.59
                             1920.16  1929.97  1961.43  1966.38  1990.20
                             2000.23  2039.68  2079.24  2084.91  2144.84
                             2156.53  2166.52  2184.96  2196.28  2209.44
                             2212.15  2249.22  2284.57  2441.82  4172.31
                             4185.72  4289.59  4393.33  4421.39  4432.74
                             4439.57  4463.30  4495.92  4611.69  4630.29
                             4642.99  4683.38  4693.59  5040.01

 Zero-point correction=                           0.258678 (Hartree/Particle)
 Thermal correction to Energy=                    0.270466
 Thermal correction to Enthalpy=                  0.271410
 Thermal correction to Gibbs Free Energy=         0.220259
 Sum of electronic and zero-point Energies=           -630.354903
 Sum of electronic and thermal Energies=              -630.343115
 Sum of electronic and thermal Enthalpies=            -630.342171
 Sum of electronic and thermal Free Energies=         -630.393322

                     E (Thermal)             CV                S
                      KCal/Mol        Cal/Mol-Kelvin    Cal/Mol-Kelvin
 Total                  169.720             48.278            107.656
 Electronic               0.000              0.000              0.000
 Translational            0.889              2.981             41.801
 Rotational               0.889              2.981             31.964
 Vibrational            167.943             42.316             33.891
 Vibration     1          0.595              1.980              5.116
 Vibration     2          0.598              1.968              4.141
 Vibration     3          0.601              1.958              3.720
 Vibration     4          0.627              1.873              2.376
 Vibration     5          0.639              1.835              2.102
 Vibration     6          0.650              1.803              1.918
 Vibration     7          0.665              1.755              1.697
 Vibration     8          0.671              1.738              1.634
 Vibration     9          0.728              1.572              1.160
 Vibration    10          0.747              1.522              1.056
 Vibration    11          0.790              1.409              0.865
 Vibration    12          0.799              1.386              0.831
 Vibration    13          0.823              1.326              0.749
 Vibration    14          0.859              1.242              0.650
 Vibration    15          0.896              1.159              0.563
 Vibration    16          0.939              1.070              0.481
 Vibration    17          0.945              1.058              0.471

 Optimization completed.
    -- Stationary point found.
 Normal termination of Gaussian 16 at Thu Dec 10 16:45:42 2020.

 ----------------------------------------------------------------------
 # B3LYP/6-311++G(d,p) empiricaldispersion=gd3bj scf=xqc pop=npa geom=c
 heck
 ----------------------------------------------------------------------

 --------------------------------------
 CID_21192972_JID_5725_Energie_neutraal
 --------------------------------------
 Structure from the checkpoint file:  "JID_5725.chk"
 Charge =  0 Multiplicity = 1

 SCF Done:  E(RB3LYP) =  -630.779807273     A.U. after   15 cycles
 Normal termination of Gaussian 16 at Thu Dec 10 16:52:25 2020.

 ----------------------------------------------------------------------
 # B3LYP/6-311++G(d,p) empiricaldispersion=gd3bj scf=xqc pop=npa geom=c
 heck
 ----------------------------------------------------------------------

 ------------------------------------
 CID_21192972_JID_5725_Energie_kation
 ------------------------------------
 Structure from the checkpoint file:  "JID_5725.chk"
 Charge =  1 Multiplicity = 2

 SCF Done:  E(UB3LYP) =  -630.516733662     A.U. after   23 cycles
 Normal termination of Gaussian 16 at Thu Dec 10 17:07:15 2020.
 Gaussian 16:  ES64L-G16RevA.03 25-Dec-2016

 ----------------------------------------------------------------------
 # B3LYP/6-311++G(d,p) empiricaldispersion=gd3bj scf=xqc pop=npa geom=c
 heck
 ----------------------------------------------------------------------

 -----------------------------------
 CID_21192972_JID_5725_Energie_anion
 -----------------------------------
 Structure from the checkpoint file:  "JID_5725.chk"
 Charge = -1 Multiplicity = 2

                         Standard orientation:
 ---------------------------------------------------------------------
 Center     Atomic      Atomic             Coordinates (Angstroms)
 Number     Number       Type             X           Y           Z
 ---------------------------------------------------------------------
      1          6           0       -1.652166   -0.811143    0.911392
      2          6           0       -3.038995   -1.404212    0.657334
      3          7           0       -3.984757   -0.327539    0.374625
      4          6           0       -3.620636    0.412563   -0.833811
      5          6           0       -2.255778    1.076419   -0.645693
      6          6           0       -1.187643    0.024784   -0.304985
      7          6           0        0.150386    0.653569   -0.072917
      8          7           0        0.384063    1.917766    0.255261
      9          6           0        1.730861    2.055683    0.419176
     10          6           0        2.376227    0.848304    0.191814
     11          7           0        1.331894   -0.054712   -0.125659
     12          6           0        1.586655   -1.378678   -0.425987
     13          6           0        2.868414   -1.834237   -0.416738
     14          6           0        3.952929   -0.955498   -0.097535
     15          6           0        3.705581    0.358175    0.198566
     16          1           0       -0.935156   -1.612456    1.128328
     17          1           0       -1.693582   -0.157406    1.789749
     18          1           0       -2.965889   -2.137277   -0.173276
     19          1           0       -3.383487   -1.950239    1.542763
     20          1           0       -4.922058   -0.710211    0.274830
     21          1           0       -4.385264    1.175427   -1.017438
     22          1           0       -3.583498   -0.237977   -1.732094
     23          1           0       -2.308858    1.806336    0.167389
     24          1           0       -1.969011    1.620561   -1.552077
     25          1           0       -1.106406   -0.660537   -1.165272
     26          1           0        2.178690    3.002624    0.687193
     27          1           0        0.726614   -1.992782   -0.658408
     28          1           0        3.057426   -2.875277   -0.654006
     29          1           0        4.967676   -1.339239   -0.092966
     30          1           0        4.509402    1.045478    0.442000
 ---------------------------------------------------------------------

 SCF Done:  E(UB3LYP) =  -630.772063869     A.U. after   33 cycles
 SCF Done:  E(UB3LYP) =  -630.772063869     a.u. after    1 cycles

 The electronic state is 2-A.
 Alpha  occ. eigenvalues --  -14.25636 -14.19006 -14.17343 -10.10136 -10.08535
 Alpha  occ. eigenvalues --  -10.08502 -10.08320 -10.08234 -10.07511 -10.05701
 Alpha  occ. eigenvalues --  -10.05696 -10.05536 -10.05524 -10.05234 -10.04877
 Alpha  occ. eigenvalues --   -0.90346  -0.80580  -0.78176  -0.70443  -0.68523
 Alpha  occ. eigenvalues --   -0.64873  -0.64566  -0.59519  -0.53737  -0.52513
 Alpha  occ. eigenvalues --   -0.51689  -0.48898  -0.47201  -0.44401  -0.41073
 Alpha  occ. eigenvalues --   -0.39349  -0.37761  -0.35802  -0.34660  -0.34348
 Alpha  occ. eigenvalues --   -0.33859  -0.33412  -0.31819  -0.30799  -0.29681
 Alpha  occ. eigenvalues --   -0.29131  -0.27786  -0.26463  -0.24655  -0.24133
 Alpha  occ. eigenvalues --   -0.23075  -0.22551  -0.21413  -0.20959  -0.18850
 Alpha  occ. eigenvalues --   -0.15413  -0.14143  -0.12394  -0.07565   0.04722
 Alpha virt. eigenvalues --    0.06192   0.07554   0.08191   0.08669   0.09292
 Alpha virt. eigenvalues --    0.09599   0.10462   0.11124   0.11759   0.11854
 Alpha virt. eigenvalues --    0.12127   0.12314   0.13133   0.13636   0.14708

  Beta  occ. eigenvalues --  -14.25550 -14.18981 -14.17261 -10.10164 -10.08541
  Beta  occ. eigenvalues --  -10.08520 -10.08296 -10.07949 -10.07510 -10.05689
  Beta  occ. eigenvalues --  -10.05643 -10.05527 -10.05524 -10.05152 -10.04612
  Beta  occ. eigenvalues --   -0.90179  -0.80544  -0.77961  -0.70336  -0.68290
  Beta  occ. eigenvalues --   -0.64608  -0.64509  -0.59339  -0.53593  -0.52200
  Beta  occ. eigenvalues --   -0.51632  -0.48789  -0.47046  -0.44327  -0.40976
  Beta  occ. eigenvalues --   -0.39247  -0.37576  -0.35660  -0.34621  -0.34110
  Beta  occ. eigenvalues --   -0.33719  -0.33283  -0.31711  -0.30671  -0.29617
  Beta  occ. eigenvalues --   -0.29089  -0.27737  -0.26346  -0.24549  -0.24081
  Beta  occ. eigenvalues --   -0.22896  -0.22140  -0.21348  -0.20794  -0.17867
  Beta  occ. eigenvalues --   -0.15304  -0.13478  -0.12342  -0.06885
  Beta virt. eigenvalues --    0.07117   0.07633   0.08539   0.08796   0.09220
  Beta virt. eigenvalues --    0.09479   0.09830   0.10692   0.11341   0.11889
  Beta virt. eigenvalues --    0.12013   0.12249   0.12288   0.13409   0.13688

 Mulliken charges and spin densities:
               1          2
     1  C   -0.969958   0.697074
     2  C    1.282714  -1.739812
     3  N   -0.365855   0.235558
     4  C    0.238647  -0.726710
     5  C   -0.576746   0.295667
     6  C    0.124689  -0.103653
     7  C   -0.315215  -0.045411
     8  N    0.002897   0.042565
     9  C   -0.151926  -0.054039
    10  C    0.526363  -0.173492
    11  N    0.336261   0.003713
    12  C   -0.336783   0.217547
    13  C    0.087055  -0.252196
    14  C   -0.494039  -0.112475
    15  C   -0.361708   0.424427
    16  H    0.024177   0.143725
    17  H    0.133388   0.023118
    18  H   -0.284288   0.391000
    19  H   -0.366161   0.540580
    20  H   -0.174306   0.426792
    21  H   -0.086695   0.275816
    22  H   -0.155781   0.244146
    23  H    0.195123  -0.006579
    24  H    0.138971   0.025651
    25  H    0.255245  -0.097957
    26  H    0.119920   0.002500
    27  H   -0.048689   0.161931
    28  H    0.014142   0.141768
    29  H    0.097522   0.011153
    30  H    0.111038   0.007593
 Sum of Mulliken charges =  -1.00000   1.00000

 Dipole moment (field-independent basis, Debye):
    X=              4.0884    Y=              1.3880    Z=             -1.1027  Tot=              4.4562
 Quadrupole moment (field-independent basis, Debye-Ang):
   XX=           -163.6427   YY=           -121.5431   ZZ=           -110.4880
   XY=             -6.4880   XZ=              4.5393   YZ=              0.9811

 Summary of Natural Population Analysis:

                                       Natural Population
                Natural  -----------------------------------------------
    Atom  No    Charge         Core      Valence    Rydberg      Total
 -----------------------------------------------------------------------
      C    1   -0.18981      0.99961     2.18086    0.00934     3.18981
      C    2   -0.08761      0.99962     2.07522    0.01277     3.08761
      N    3   -0.34139      0.99974     2.82890    0.01275     3.84139
      C    4   -0.08697      0.99962     2.07514    0.01221     3.08697
      C    5   -0.18900      0.99962     2.17946    0.00993     3.18900
      C    6   -0.13116      0.99956     2.12143    0.01017     3.13116
      C    7    0.17494      0.99959     1.80800    0.01747     2.82506
      N    8   -0.23855      0.99969     2.73058    0.00827     3.73855
      C    9   -0.03586      0.99955     2.02234    0.01397     3.03586
      C   10    0.04599      0.99955     1.94410    0.01036     2.95401
      N   11   -0.17787      0.99959     2.67069    0.00759     3.67787
      C   12    0.05640      0.99955     1.93288    0.01116     2.94360
      C   13   -0.13086      0.99958     2.12226    0.00903     3.13086
      C   14   -0.10382      0.99958     2.09254    0.01171     3.10382
      C   15   -0.06272      0.99954     2.05407    0.00911     3.06272
      H   16    0.10235      0.00000     0.39654    0.00111     0.39765
      H   17    0.10043      0.00000     0.39815    0.00142     0.39957
      H   18    0.07540      0.00000     0.42248    0.00212     0.42460
      H   19    0.09618      0.00000     0.40249    0.00134     0.40382
      H   20    0.17627      0.00000     0.31940    0.00433     0.32373
      H   21    0.09380      0.00000     0.40527    0.00094     0.40620
      H   22    0.07418      0.00000     0.42428    0.00154     0.42582
      H   23    0.10687      0.00000     0.39135    0.00178     0.39313
      H   24    0.10051      0.00000     0.39843    0.00106     0.39949
      H   25    0.09725      0.00000     0.40031    0.00244     0.40275
      H   26    0.09004      0.00000     0.40905    0.00091     0.40996
      H   27    0.09596      0.00000     0.40261    0.00143     0.40404
      H   28    0.09938      0.00000     0.39984    0.00077     0.40062
      H   29    0.09402      0.00000     0.40519    0.00079     0.40598
      H   30    0.09566      0.00000     0.40355    0.00079     0.40434
 =======================================================================
   * Total *   -0.00000     14.99398    38.81741    0.18861    54.00000

 Normal termination of Gaussian 16 at Thu Dec 10 17:26:07 2020.
