 Gaussian 16, Revision A.03,

 -----------------------------------------------------------
 # opt freq B3LYP/6-31G(d) empiricaldispersion=gd3bj scf=xqc
 -----------------------------------------------------------

 -------------------------------
 CID_141118229_JID_1213_neutraal
 -------------------------------
 Symbolic Z-matrix:
 Charge =  0 Multiplicity = 1

 SCF Done:  E(RB3LYP) =  -839.611698873     A.U. after   14 cycles
 SCF Done:  E(RB3LYP) =  -839.613856424     A.U. after   12 cycles
 SCF Done:  E(RB3LYP) =  -839.614122082     A.U. after   11 cycles
 SCF Done:  E(RB3LYP) =  -839.613677793     A.U. after   12 cycles
 SCF Done:  E(RB3LYP) =  -839.614313272     A.U. after   12 cycles
 SCF Done:  E(RB3LYP) =  -839.614340062     A.U. after   11 cycles
 SCF Done:  E(RB3LYP) =  -839.614341335     A.U. after   10 cycles
 SCF Done:  E(RB3LYP) =  -839.614353157     A.U. after   10 cycles
 SCF Done:  E(RB3LYP) =  -839.614354672     A.U. after    9 cycles
 SCF Done:  E(RB3LYP) =  -839.614355006     A.U. after    8 cycles
 SCF Done:  E(RB3LYP) =  -839.614355046     A.U. after    7 cycles
 Optimization completed.
    -- Stationary point found.
 Normal termination of Gaussian 16 at Tue Dec  8 19:25:54 2020.

 --------------------------------------------------------------------
 #N Geom=AllCheck Guess=TCheck SCRF=Check GenChk RB3LYP/6-31G(d) Freq
 --------------------------------------------------------------------

 Structure from the checkpoint file:  "JID_1213.chk"
 -------------------------------
 CID_141118229_JID_1213_neutraal
 -------------------------------
 Charge =  0 Multiplicity = 1

 SCF Done:  E(RB3LYP) =  -839.614355046     A.U. after    1 cycles

  Exact polarizability: 125.690   7.625 121.243 -12.971   4.779  74.330
 Approx polarizability: 176.839  11.354 201.971 -26.219   9.593 121.675

                      1                      2                      3
                      A                      A                      A
 Frequencies --     23.0234                52.9518                97.5743
 Red. masses --      4.9397                 4.5679                 4.1862
 Frc consts  --      0.0015                 0.0075                 0.0235
 IR Inten    --      0.2189                 0.0537                 0.8797

                      4                      5                      6
                      A                      A                      A
 Frequencies --    102.5450               141.6106               226.1203
 Red. masses --      4.2205                 3.4015                 2.7217
 Frc consts  --      0.0261                 0.0402                 0.0820
 IR Inten    --      0.6201                 0.7861                 2.1602

                      7                      8                      9
                      A                      A                      A
 Frequencies --    269.9699               312.8159               329.4008
 Red. masses --      5.4176                 4.7532                 1.2149
 Frc consts  --      0.2326                 0.2740                 0.0777
 IR Inten    --      1.5414                10.4287               115.4764

                     10                     11                     12
                      A                      A                      A
 Frequencies --    346.6075               413.5924               417.1644
 Red. masses --      2.0134                 6.8067                 3.0806
 Frc consts  --      0.1425                 0.6860                 0.3159
 IR Inten    --      1.2688                 1.7011                 0.1244

                     13                     14                     15
                      A                      A                      A
 Frequencies --    485.5025               576.9669               637.3685
 Red. masses --      3.9761                 4.8582                 6.2773
 Frc consts  --      0.5522                 0.9529                 1.5025
 IR Inten    --      2.8537                 5.8374                 0.3321

                     16                     17                     18
                      A                      A                      A
 Frequencies --    676.8631               713.6683               766.8114
 Red. masses --      4.6304                 1.7309                 3.4210
 Frc consts  --      1.2499                 0.5194                 1.1852
 IR Inten    --     16.0277                31.4695                29.3910

                     19                     20                     21
                      A                      A                      A
 Frequencies --    787.5465               826.9624               859.6866
 Red. masses --      2.3290                 4.3595                 1.2555
 Frc consts  --      0.8511                 1.7565                 0.5467
 IR Inten    --      4.8584                 1.9804                 0.1895

                     22                     23                     24
                      A                      A                      A
 Frequencies --    874.7075               893.2895               927.8524
 Red. masses --      1.4680                 2.4442                 1.4246
 Frc consts  --      0.6618                 1.1491                 0.7226
 IR Inten    --     15.7665                40.0845                 4.0647

                     25                     26                     27
                      A                      A                      A
 Frequencies --    967.3454               971.8461               995.5198
 Red. masses --      1.4044                 1.9912                 1.2550
 Frc consts  --      0.7743                 1.1080                 0.7328
 IR Inten    --      2.1501                 7.0290                 0.1928

                     28                     29                     30
                      A                      A                      A
 Frequencies --   1022.6222              1038.2662              1061.3331
 Red. masses --      6.2111                 2.9372                 2.2091
 Frc consts  --      3.8269                 1.8655                 1.4661
 IR Inten    --      0.3592                44.2314                 2.2523

                     31                     32                     33
                      A                      A                      A
 Frequencies --   1110.4851              1117.1017              1189.0964
 Red. masses --      1.5749                 1.5338                 1.1229
 Frc consts  --      1.1443                 1.1277                 0.9355
 IR Inten    --      5.7608                10.1565                 1.8665

                     34                     35                     36
                      A                      A                      A
 Frequencies --   1194.2678              1215.2923              1238.9603
 Red. masses --      1.0902                 1.1343                 2.7180
 Frc consts  --      0.9162                 0.9871                 2.4582
 IR Inten    --      0.1227                 0.5752                 1.5092

                     37                     38                     39
                      A                      A                      A
 Frequencies --   1249.5865              1288.5057              1325.8075
 Red. masses --      1.1948                 1.3112                 1.2416
 Frc consts  --      1.0992                 1.2826                 1.2859
 IR Inten    --     32.4650                10.4045                 7.5305

                     40                     41                     42
                      A                      A                      A
 Frequencies --   1365.1856              1371.2829              1395.9427
 Red. masses --      5.2264                 1.2958                 1.2194
 Frc consts  --      5.7389                 1.4357                 1.4000
 IR Inten    --      0.3003                 0.9625                48.4748

                     43                     44                     45
                      A                      A                      A
 Frequencies --   1493.5101              1497.7057              1508.0587
 Red. masses --      1.0939                 1.3332                 1.6489
 Frc consts  --      1.4376                 1.7619                 2.2094
 IR Inten    --      4.3321                 4.4066                 7.3163

                     46                     47                     48
                      A                      A                      A
 Frequencies --   1524.2066              1548.0406              1646.8813
 Red. masses --      1.0747                 2.2197                 5.5556
 Frc consts  --      1.4710                 3.1341                 8.8778
 IR Inten    --     10.8425                 8.9474                 0.6375

                     49                     50                     51
                      A                      A                      A
 Frequencies --   1666.9668              3042.9512              3089.1554
 Red. masses --      5.5511                 1.0656                 1.0611
 Frc consts  --      9.0882                 5.8133                 5.9659
 IR Inten    --      2.2334                26.8293                14.5221

                     52                     53                     54
                      A                      A                      A
 Frequencies --   3130.5872              3150.0728              3180.2381
 Red. masses --      1.0984                 1.1051                 1.0850
 Frc consts  --      6.3424                 6.4610                 6.4655
 IR Inten    --      7.4838                 4.0846                 3.5535

                     55                     56                     57
                      A                      A                      A
 Frequencies --   3185.1974              3195.0558              3201.8678
 Red. masses --      1.0874                 1.0909                 1.0942
 Frc consts  --      6.4998                 6.5613                 6.6091
 IR Inten    --      0.2456                14.6313                34.6271

                     58                     59                     60
                      A                      A                      A
 Frequencies --   3211.3979              3459.1307              3742.6171
 Red. masses --      1.0981                 1.0759                 1.0683
 Frc consts  --      6.6721                 7.5847                 8.8168
 IR Inten    --     18.6471                 0.6211                22.7241

 - Thermochemistry -
 -------------------
 Temperature   298.150 Kelvin.  Pressure   1.00000 Atm.
 Atom     1 has atomic number  6 and mass  12.00000

 Molecular mass:   169.05614 amu.
 Principal axes and moments of inertia in atomic units:
                           1         2         3
     Eigenvalues --  1255.531552838.729213653.70126
           X            0.99996  -0.00506  -0.00796
           Y            0.00504   0.99998  -0.00225
           Z            0.00798   0.00221   0.99997
 This molecule is an asymmetric top.
 Rotational symmetry number  1.
 Warning -- assumption of classical behavior for rotation
           may cause significant error
 Rotational temperatures (Kelvin)      0.06899     0.03051     0.02371
 Rotational constants (GHZ):           1.43743     0.63576     0.49395
 Zero-point vibrational energy     474634.5 (Joules/Mol)
                                  113.44037 (Kcal/Mol)
 Warning -- explicit consideration of  14 degrees of freedom as
           vibrations may cause significant error
 Vibrational temperatures:     33.13    76.19   140.39   147.54   203.75
          (Kelvin)            325.34   388.43   450.07   473.93   498.69
                              595.07   600.21   698.53   830.13   917.03
                              973.86  1026.81  1103.27  1133.10  1189.81
                             1236.90  1258.51  1285.24  1334.97  1391.79
                             1398.27  1432.33  1471.33  1493.83  1527.02
                             1597.74  1607.26  1710.84  1718.28  1748.53
                             1782.59  1797.88  1853.87  1907.54  1964.20
                             1972.97  2008.45  2148.83  2154.86  2169.76
                             2192.99  2227.29  2369.49  2398.39  4378.13
                             4444.61  4504.22  4532.25  4575.65  4582.79
                             4596.97  4606.77  4620.49  4976.92  5384.79

 Zero-point correction=                           0.180779 (Hartree/Particle)
 Thermal correction to Energy=                    0.191844
 Thermal correction to Enthalpy=                  0.192789
 Thermal correction to Gibbs Free Energy=         0.142162
 Sum of electronic and zero-point Energies=           -839.433576
 Sum of electronic and thermal Energies=              -839.422511
 Sum of electronic and thermal Enthalpies=            -839.421566
 Sum of electronic and thermal Free Energies=         -839.472193

                     E (Thermal)             CV                S
                      KCal/Mol        Cal/Mol-Kelvin    Cal/Mol-Kelvin
 Total                  120.384             40.825            106.553
 Electronic               0.000              0.000              0.000
 Translational            0.889              2.981             41.283
 Rotational               0.889              2.981             30.944
 Vibrational            118.607             34.863             34.326
 Vibration     1          0.593              1.985              6.355
 Vibration     2          0.596              1.976              4.704
 Vibration     3          0.603              1.951              3.502
 Vibration     4          0.605              1.947              3.405
 Vibration     5          0.615              1.912              2.782
 Vibration     6          0.650              1.801              1.910
 Vibration     7          0.674              1.728              1.596
 Vibration     8          0.701              1.649              1.347
 Vibration     9          0.712              1.617              1.263
 Vibration    10          0.725              1.582              1.182
 Vibration    11          0.777              1.441              0.914
 Vibration    12          0.780              1.433              0.902
 Vibration    13          0.842              1.282              0.695
 Vibration    14          0.933              1.081              0.491

 Optimization completed.
    -- Stationary point found.
 Normal termination of Gaussian 16 at Tue Dec  8 19:30:05 2020.

 ----------------------------------------------------------------------
 # B3LYP/6-311++G(d,p) empiricaldispersion=gd3bj scf=xqc pop=npa geom=c
 heck
 ----------------------------------------------------------------------

 ---------------------------------------
 CID_141118229_JID_1213_Energie_neutraal
 ---------------------------------------
 Structure from the checkpoint file:  "JID_1213.chk"
 Charge =  0 Multiplicity = 1

 SCF Done:  E(RB3LYP) =  -839.776502732     A.U. after   14 cycles
 Normal termination of Gaussian 16 at Tue Dec  8 19:31:36 2020.

 ----------------------------------------------------------------------
 # B3LYP/6-311++G(d,p) empiricaldispersion=gd3bj scf=xqc pop=npa geom=c
 heck
 ----------------------------------------------------------------------

 -------------------------------------
 CID_141118229_JID_1213_Energie_kation
 -------------------------------------
 Structure from the checkpoint file:  "JID_1213.chk"
 Charge =  1 Multiplicity = 2

 SCF Done:  E(UB3LYP) =  -839.469088996     A.U. after   27 cycles
 Normal termination of Gaussian 16 at Tue Dec  8 19:35:10 2020.
 Gaussian 16:  ES64L-G16RevA.03 25-Dec-2016

 ----------------------------------------------------------------------
 # B3LYP/6-311++G(d,p) empiricaldispersion=gd3bj scf=xqc pop=npa geom=c
 heck
 ----------------------------------------------------------------------

 ------------------------------------
 CID_141118229_JID_1213_Energie_anion
 ------------------------------------
 Structure from the checkpoint file:  "JID_1213.chk"
 Charge = -1 Multiplicity = 2

                         Standard orientation:
 ---------------------------------------------------------------------
 Center     Atomic      Atomic             Coordinates (Angstroms)
 Number     Number       Type             X           Y           Z
 ---------------------------------------------------------------------
      1          6           0        3.105401    1.011365   -0.419204
      2          6           0        3.036284   -0.359275   -0.682093
      3          6           0        1.966707   -1.110561   -0.200987
      4          6           0        0.953901   -0.506907    0.555238
      5          6           0        1.028385    0.867634    0.809751
      6          6           0        2.098029    1.623104    0.326190
      7          6           0       -0.213569   -1.306069    1.061692
      8         16           0       -1.480609   -1.667242   -0.243820
      9          6           0       -1.832773    0.023654   -0.817918
     10          7           0       -2.405385    0.812102    0.273883
     11          8           0       -2.845783    2.063572   -0.305312
     12          1           0        3.939849    1.597044   -0.794394
     13          1           0        3.817953   -0.842043   -1.262027
     14          1           0        1.908137   -2.174589   -0.415852
     15          1           0        0.235052    1.339643    1.382739
     16          1           0        2.144212    2.688816    0.533306
     17          1           0        0.097173   -2.297319    1.405026
     18          1           0       -0.710260   -0.794042    1.887336
     19          1           0       -0.912079    0.511981   -1.146008
     20          1           0       -2.506826   -0.078297   -1.679286
     21          1           0       -3.277795    0.362332    0.556813
     22          1           0       -2.295919    2.711394    0.162754
 ---------------------------------------------------------------------

 SCF Done:  E(UB3LYP) =  -839.762099496     A.U. after   33 cycles
 SCF Done:  E(UB3LYP) =  -839.762099496     a.u. after    1 cycles

 The electronic state is 2-A.
 Alpha  occ. eigenvalues --  -88.74889 -19.04852 -14.25776 -10.12507 -10.10691
 Alpha  occ. eigenvalues --  -10.08337 -10.07342 -10.07286 -10.07040 -10.06949
 Alpha  occ. eigenvalues --  -10.06896  -7.83503  -5.79891  -5.79534  -5.78878
 Alpha  occ. eigenvalues --   -0.96064  -0.76562  -0.75303  -0.69399  -0.64470
 Alpha  occ. eigenvalues --   -0.63844  -0.58285  -0.51645  -0.50536  -0.47730
 Alpha  occ. eigenvalues --   -0.41479  -0.41032  -0.40101  -0.36937  -0.35903
 Alpha  occ. eigenvalues --   -0.34767  -0.32689  -0.32082  -0.31516  -0.30894
 Alpha  occ. eigenvalues --   -0.28707  -0.25885  -0.25300  -0.24168  -0.22712
 Alpha  occ. eigenvalues --   -0.19777  -0.15829  -0.15644  -0.14958  -0.13659
 Alpha  occ. eigenvalues --    0.04667
 Alpha virt. eigenvalues --    0.06631   0.07130   0.07764   0.08190   0.08592
 Alpha virt. eigenvalues --    0.09036   0.09409   0.10667   0.10901   0.12100
 Alpha virt. eigenvalues --    0.12563   0.13011   0.13517   0.14240   0.15671

  Beta  occ. eigenvalues --  -88.74884 -19.04806 -14.25751 -10.12494 -10.10683
  Beta  occ. eigenvalues --  -10.08323 -10.07328 -10.07270 -10.07012 -10.06926
  Beta  occ. eigenvalues --  -10.06873  -7.83498  -5.79877  -5.79530  -5.78875
  Beta  occ. eigenvalues --   -0.95982  -0.76510  -0.75241  -0.69346  -0.64418
  Beta  occ. eigenvalues --   -0.63789  -0.58237  -0.51592  -0.50482  -0.47677
  Beta  occ. eigenvalues --   -0.41386  -0.40947  -0.40055  -0.36900  -0.35838
  Beta  occ. eigenvalues --   -0.34722  -0.32640  -0.32037  -0.31477  -0.30857
  Beta  occ. eigenvalues --   -0.28662  -0.25840  -0.25235  -0.24122  -0.22681
  Beta  occ. eigenvalues --   -0.19725  -0.15778  -0.15591  -0.14898  -0.13622
  Beta virt. eigenvalues --    0.06927   0.07558   0.07743   0.08134   0.08640
  Beta virt. eigenvalues --    0.08807   0.09765   0.09888   0.10965   0.11362
  Beta virt. eigenvalues --    0.12403   0.12982   0.13271   0.13623   0.14497

 Mulliken charges and spin densities:
               1          2
     1  C    2.169560  -2.512290
     2  C    0.275696  -0.589122
     3  C   -1.924080   1.467349
     4  C    0.421549   0.625592
     5  C   -1.113224   0.743299
     6  C    0.528374  -0.800984
     7  C    1.527837  -1.976622
     8  S    0.098236  -0.087311
     9  C   -0.283795  -0.366343
    10  N   -0.214179  -0.053110
    11  O   -0.195440  -0.003823
    12  H   -0.329166   0.487137
    13  H   -0.690361   0.866021
    14  H   -0.214605   0.352797
    15  H   -0.286940   0.513858
    16  H   -1.188862   1.388983
    17  H    0.039451   0.188521
    18  H    0.026100   0.189779
    19  H    0.317213  -0.104097
    20  H    0.087707   0.098833
    21  H    0.033995   0.203672
    22  H   -0.085065   0.367862
 Sum of Mulliken charges =  -1.00000   1.00000

 Dipole moment (field-independent basis, Debye):
    X=             -3.5751    Y=             -5.8458    Z=             -0.1698  Tot=              6.8544
 Quadrupole moment (field-independent basis, Debye-Ang):
   XX=           -137.2270   YY=           -125.2141   ZZ=           -100.0438
   XY=              1.0542   XZ=              4.7471   YZ=             -5.3477

 Summary of Natural Population Analysis:

                                       Natural Population
                Natural  -----------------------------------------------
    Atom  No    Charge         Core      Valence    Rydberg      Total
 -----------------------------------------------------------------------
      C    1   -0.09808      0.99956     2.08843    0.01010     3.09808
      C    2   -0.10102      0.99956     2.09078    0.01068     3.10102
      C    3   -0.09662      0.99951     2.08631    0.01081     3.09662
      C    4   -0.03472      0.99949     2.02308    0.01214     3.03472
      C    5   -0.10060      0.99951     2.08904    0.01205     3.10060
      C    6   -0.09570      0.99956     2.08462    0.01152     3.09570
      C    7   -0.24564      0.99954     2.23626    0.00984     3.24564
      S    8    0.08393      4.99963     2.89904    0.01740     7.91607
      C    9   -0.16154      0.99963     2.14712    0.01479     3.16154
      N   10   -0.19163      0.99972     2.67499    0.01692     3.69163
      O   11   -0.29948      0.99991     3.29208    0.00749     4.29948
      H   12    0.10251      0.00000     0.39572    0.00177     0.39749
      H   13    0.10138      0.00000     0.39698    0.00165     0.39862
      H   14    0.10017      0.00000     0.39842    0.00141     0.39983
      H   15    0.10816      0.00000     0.38867    0.00317     0.39184
      H   16    0.10559      0.00000     0.39090    0.00352     0.39441
      H   17    0.10807      0.00000     0.39081    0.00112     0.39193
      H   18    0.11041      0.00000     0.38753    0.00206     0.38959
      H   19    0.10573      0.00000     0.39225    0.00202     0.39427
      H   20    0.09549      0.00000     0.40309    0.00142     0.40451
      H   21    0.16520      0.00000     0.33188    0.00292     0.33480
      H   22    0.23840      0.00000     0.25209    0.00951     0.26160
 =======================================================================
   * Total *    0.00000     14.99562    29.84006    0.16432    45.00000

 Normal termination of Gaussian 16 at Tue Dec  8 19:39:40 2020.
