 Gaussian 16, Revision A.03,

 -----------------------------------------------------------
 # opt freq B3LYP/6-31G(d) empiricaldispersion=gd3bj scf=xqc
 -----------------------------------------------------------

 -------------------------------
 CID_117299254_JID_5134_neutraal
 -------------------------------
 Symbolic Z-matrix:
 Charge =  0 Multiplicity = 1

 SCF Done:  E(RB3LYP) =  -673.955423320     A.U. after   14 cycles
 SCF Done:  E(RB3LYP) =  -673.958580144     A.U. after   12 cycles
 SCF Done:  E(RB3LYP) =  -673.958978051     A.U. after   12 cycles
 SCF Done:  E(RB3LYP) =  -673.959046896     A.U. after   11 cycles
 SCF Done:  E(RB3LYP) =  -673.959069748     A.U. after   10 cycles
 SCF Done:  E(RB3LYP) =  -673.959081252     A.U. after   10 cycles
 SCF Done:  E(RB3LYP) =  -673.959084422     A.U. after    8 cycles
 SCF Done:  E(RB3LYP) =  -673.959085294     A.U. after    8 cycles
 SCF Done:  E(RB3LYP) =  -673.959085672     A.U. after    7 cycles
 SCF Done:  E(RB3LYP) =  -673.959085860     A.U. after    7 cycles
 SCF Done:  E(RB3LYP) =  -673.959085919     A.U. after    7 cycles
 SCF Done:  E(RB3LYP) =  -673.959085961     A.U. after    7 cycles
 Optimization completed.
    -- Stationary point found.
 Normal termination of Gaussian 16 at Thu Dec 10 14:46:39 2020.

 --------------------------------------------------------------------
 #N Geom=AllCheck Guess=TCheck SCRF=Check GenChk RB3LYP/6-31G(d) Freq
 --------------------------------------------------------------------

 Structure from the checkpoint file:  "JID_5134.chk"
 -------------------------------
 CID_117299254_JID_5134_neutraal
 -------------------------------
 Charge =  0 Multiplicity = 1

 SCF Done:  E(RB3LYP) =  -673.959085962     A.U. after    1 cycles

  Exact polarizability: 163.584  -4.893 156.686   9.401   4.048 101.304
 Approx polarizability: 242.087   0.015 235.824  22.878  12.327 142.358

                      1                      2                      3
                      A                      A                      A
 Frequencies --     28.4472                52.6104                78.2251
 Red. masses --      3.5838                 4.4061                 2.9661
 Frc consts  --      0.0017                 0.0072                 0.0107
 IR Inten    --      0.0829                 0.5527                 3.9936

                      4                      5                      6
                      A                      A                      A
 Frequencies --     96.7122               135.2886               144.4839
 Red. masses --      3.0664                 2.7707                 1.9747
 Frc consts  --      0.0169                 0.0299                 0.0243
 IR Inten    --      1.1523                 3.8690                 1.4521

                      7                      8                      9
                      A                      A                      A
 Frequencies --    154.8837               162.5305               205.0489
 Red. masses --      2.7399                 1.6422                 2.6977
 Frc consts  --      0.0387                 0.0256                 0.0668
 IR Inten    --      5.4169                 0.0961                 1.5597

                     10                     11                     12
                      A                      A                      A
 Frequencies --    216.4443               233.9980               247.1271
 Red. masses --      1.8583                 2.2391                 1.2983
 Frc consts  --      0.0513                 0.0722                 0.0467
 IR Inten    --      4.9274                 3.7574                 0.7545

                     13                     14                     15
                      A                      A                      A
 Frequencies --    259.3101               279.8477               293.5896
 Red. masses --      2.0564                 1.2157                 1.1603
 Frc consts  --      0.0815                 0.0561                 0.0589
 IR Inten    --      0.3344                47.8475                33.6071

                     16                     17                     18
                      A                      A                      A
 Frequencies --    311.3573               315.6427               343.6790
 Red. masses --      1.5706                 3.3218                 2.4183
 Frc consts  --      0.0897                 0.1950                 0.1683
 IR Inten    --     64.5988                 2.8651                 7.5975

                     19                     20                     21
                      A                      A                      A
 Frequencies --    361.9444               421.7747               430.8978
 Red. masses --      3.7260                 3.9942                 3.5965
 Frc consts  --      0.2876                 0.4186                 0.3934
 IR Inten    --      1.5880                 5.6565                 1.8839

                     22                     23                     24
                      A                      A                      A
 Frequencies --    478.2499               519.0324               543.4881
 Red. masses --      4.0442                 2.8090                 3.8783
 Frc consts  --      0.5450                 0.4459                 0.6750
 IR Inten    --      2.6188                 4.5066                 1.7810

                     25                     26                     27
                      A                      A                      A
 Frequencies --    545.4279               598.9532               625.3530
 Red. masses --      6.0455                 3.3384                 3.1910
 Frc consts  --      1.0596                 0.7056                 0.7352
 IR Inten    --      1.6901                 7.4717                 2.7685

                     28                     29                     30
                      A                      A                      A
 Frequencies --    669.0172               722.0766               782.3264
 Red. masses --      4.4046                 4.7727                 3.2782
 Frc consts  --      1.1615                 1.4662                 1.1821
 IR Inten    --      4.8054                 1.1906                27.0448

                     31                     32                     33
                      A                      A                      A
 Frequencies --    831.7260               860.9783               865.8678
 Red. masses --      2.0041                 1.4371                 1.5604
 Frc consts  --      0.8168                 0.6277                 0.6893
 IR Inten    --      2.1313                20.1658                10.4467

                     34                     35                     36
                      A                      A                      A
 Frequencies --    874.2183               906.4548               939.5133
 Red. masses --      1.5422                 1.3555                 2.5540
 Frc consts  --      0.6945                 0.6562                 1.3282
 IR Inten    --      6.7032               113.9198                10.0106

                     37                     38                     39
                      A                      A                      A
 Frequencies --    951.5600               984.9225              1013.3878
 Red. masses --      3.5334                 2.0530                 1.6025
 Frc consts  --      1.8850                 1.1734                 0.9696
 IR Inten    --      3.4665                 3.9741                12.2419

                     40                     41                     42
                      A                      A                      A
 Frequencies --   1029.3591              1068.7985              1076.6364
 Red. masses --      1.7063                 1.4569                 2.5322
 Frc consts  --      1.0652                 0.9806                 1.7293
 IR Inten    --      8.1414                 1.5089                 9.1358

                     43                     44                     45
                      A                      A                      A
 Frequencies --   1108.6122              1114.0606              1131.3034
 Red. masses --      1.9556                 1.7324                 2.5140
 Frc consts  --      1.4161                 1.2668                 1.8957
 IR Inten    --     14.2671                 7.5994                48.1495

                     46                     47                     48
                      A                      A                      A
 Frequencies --   1148.3765              1186.6671              1187.0467
 Red. masses --      2.4283                 1.6613                 1.2776
 Frc consts  --      1.8868                 1.3784                 1.0607
 IR Inten    --      7.6982                47.4869                 1.5612

                     49                     50                     51
                      A                      A                      A
 Frequencies --   1220.3470              1228.9211              1246.5219
 Red. masses --      1.4206                 1.4331                 1.7973
 Frc consts  --      1.2465                 1.2752                 1.6454
 IR Inten    --     11.9521                21.4295               162.8968

                     52                     53                     54
                      A                      A                      A
 Frequencies --   1257.4875              1288.6742              1313.8112
 Red. masses --      1.5921                 2.3839                 1.9840
 Frc consts  --      1.4833                 2.3326                 2.0177
 IR Inten    --     79.6647                68.9024                64.5531

                     55                     56                     57
                      A                      A                      A
 Frequencies --   1345.1900              1355.7932              1370.7017
 Red. masses --      1.3081                 2.2508                 1.2765
 Frc consts  --      1.3946                 2.4376                 1.4131
 IR Inten    --      0.9580                67.6223                14.8448

                     58                     59                     60
                      A                      A                      A
 Frequencies --   1383.8828              1400.5410              1417.5786
 Red. masses --      1.6983                 1.4981                 2.5749
 Frc consts  --      1.9163                 1.7314                 3.0487
 IR Inten    --      0.6964                 0.7536                74.6015

                     61                     62                     63
                      A                      A                      A
 Frequencies --   1435.6911              1443.3500              1447.2828
 Red. masses --      1.2262                 1.3353                 1.4300
 Frc consts  --      1.4892                 1.6390                 1.7648
 IR Inten    --      3.6531                16.0494                 8.6267

                     64                     65                     66
                      A                      A                      A
 Frequencies --   1486.5743              1506.9212              1510.9270
 Red. masses --      1.8872                 1.0963                 1.4726
 Frc consts  --      2.4572                 1.4668                 1.9808
 IR Inten    --     19.8240                 2.5906                 2.8780

                     67                     68                     69
                      A                      A                      A
 Frequencies --   1518.6100              1520.5349              1521.1954
 Red. masses --      1.5183                 1.0482                 1.0431
 Frc consts  --      2.0630                 1.4279                 1.4222
 IR Inten    --     47.1090                 7.8948                 4.1329

                     70                     71                     72
                      A                      A                      A
 Frequencies --   1526.2337              1528.9266              1535.6675
 Red. masses --      1.0481                 1.0627                 1.0660
 Frc consts  --      1.4385                 1.4637                 1.4811
 IR Inten    --      5.2681                 1.2681                28.4471

                     73                     74                     75
                      A                      A                      A
 Frequencies --   1536.4075              1561.4658              1654.6471
 Red. masses --      1.0798                 2.1327                 5.4267
 Frc consts  --      1.5018                 3.0636                 8.7538
 IR Inten    --     16.6146               106.8312                53.2985

                     76                     77                     78
                      A                      A                      A
 Frequencies --   1675.1983              1704.0902              2983.1791
 Red. masses --      6.6438                 1.0858                 1.0715
 Frc consts  --     10.9850                 1.8578                 5.6183
 IR Inten    --      7.0683                22.4717                54.9284

                     79                     80                     81
                      A                      A                      A
 Frequencies --   3018.6343              3020.8359              3029.8556
 Red. masses --      1.0417                 1.0352                 1.0635
 Frc consts  --      5.5929                 5.5659                 5.7521
 IR Inten    --     45.2912                43.2226                16.7114

                     82                     83                     84
                      A                      A                      A
 Frequencies --   3043.4179              3048.7663              3061.5576
 Red. masses --      1.0410                 1.0767                 1.1010
 Frc consts  --      5.6811                 5.8965                 6.0805
 IR Inten    --     25.4552                23.9294                24.0093

                     85                     86                     87
                      A                      A                      A
 Frequencies --   3071.0930              3077.4656              3082.7068
 Red. masses --      1.0914                 1.1063                 1.0998
 Frc consts  --      6.0648                 6.1732                 6.1578
 IR Inten    --     43.5469                46.3778                56.3558

                     88                     89                     90
                      A                      A                      A
 Frequencies --   3109.5878              3119.9137              3132.5221
 Red. masses --      1.1018                 1.1025                 1.0951
 Frc consts  --      6.2773                 6.3227                 6.3313
 IR Inten    --     55.7156                31.2983                 9.8506

                     91                     92                     93
                      A                      A                      A
 Frequencies --   3158.1177              3167.8656              3222.5695
 Red. masses --      1.0992                 1.0895                 1.0884
 Frc consts  --      6.4592                 6.4417                 6.6596
 IR Inten    --     29.4652                15.6439                 7.7238

                     94                     95                     96
                      A                      A                      A
 Frequencies --   3463.0523              3544.1433              3770.1014
 Red. masses --      1.0500                 1.0916                 1.0653
 Frc consts  --      7.4195                 8.0783                 8.9214
 IR Inten    --      4.7707                 0.2277                48.3525

 - Thermochemistry -
 -------------------
 Temperature   298.150 Kelvin.  Pressure   1.00000 Atm.
 Atom     1 has atomic number  6 and mass  12.00000

 Molecular mass:   209.14158 amu.
 Principal axes and moments of inertia in atomic units:
                           1         2         3
     Eigenvalues --  2469.759004312.436095390.84171
           X            0.99977  -0.02154   0.00077
           Y            0.02154   0.99976  -0.00347
           Z           -0.00069   0.00349   0.99999
 This molecule is an asymmetric top.
 Rotational symmetry number  1.
 Warning -- assumption of classical behavior for rotation
           may cause significant error
 Rotational temperatures (Kelvin)      0.03507     0.02008     0.01607
 Rotational constants (GHZ):           0.73074     0.41850     0.33478
 Zero-point vibrational energy     781196.3 (Joules/Mol)
                                  186.71039 (Kcal/Mol)
 Warning -- explicit consideration of  26 degrees of freedom as
           vibrations may cause significant error
 Vibrational temperatures:     40.93    75.69   112.55   139.15   194.65
          (Kelvin)            207.88   222.84   233.85   295.02   311.42
                              336.67   355.56   373.09   402.64   422.41
                              447.97   454.14   494.48   520.76   606.84
                              619.97   688.09   746.77   781.96   784.75
                              861.76   899.74   962.57  1038.91  1125.59
                             1196.67  1238.76  1245.79  1257.81  1304.19
                             1351.75  1369.08  1417.08  1458.04  1481.02
                             1537.76  1549.04  1595.05  1602.88  1627.69
                             1652.26  1707.35  1707.90  1755.81  1768.14
                             1793.47  1809.24  1854.11  1890.28  1935.43
                             1950.68  1972.13  1991.10  2015.07  2039.58
                             2065.64  2076.66  2082.32  2138.85  2168.12
                             2173.89  2184.94  2187.71  2188.66  2195.91
                             2199.78  2209.48  2210.55  2246.60  2380.67
                             2410.24  2451.81  4292.13  4343.14  4346.31
                             4359.29  4378.80  4386.49  4404.90  4418.62
                             4427.79  4435.33  4474.00  4488.86  4507.00
                             4543.83  4557.85  4636.56  4982.56  5099.23
                             5424.34

 Zero-point correction=                           0.297542 (Hartree/Particle)
 Thermal correction to Energy=                    0.314057
 Thermal correction to Enthalpy=                  0.315002
 Thermal correction to Gibbs Free Energy=         0.253878
 Sum of electronic and zero-point Energies=           -673.661544
 Sum of electronic and thermal Energies=              -673.645029
 Sum of electronic and thermal Enthalpies=            -673.644084
 Sum of electronic and thermal Free Energies=         -673.705208

                     E (Thermal)             CV                S
                      KCal/Mol        Cal/Mol-Kelvin    Cal/Mol-Kelvin
 Total                  197.074             61.889            128.646
 Electronic               0.000              0.000              0.000
 Translational            0.889              2.981             41.917
 Rotational               0.889              2.981             32.418
 Vibrational            195.297             55.927             54.310
 Vibration     1          0.593              1.984              5.935
 Vibration     2          0.596              1.977              4.717
 Vibration     3          0.600              1.964              3.935
 Vibration     4          0.603              1.952              3.520
 Vibration     5          0.613              1.918              2.869
 Vibration     6          0.616              1.909              2.744
 Vibration     7          0.620              1.897              2.611
 Vibration     8          0.623              1.888              2.520
 Vibration     9          0.640              1.833              2.087
 Vibration    10          0.645              1.816              1.989
 Vibration    11          0.654              1.789              1.848
 Vibration    12          0.661              1.768              1.751
 Vibration    13          0.668              1.747              1.666
 Vibration    14          0.680              1.711              1.535
 Vibration    15          0.688              1.686              1.453
 Vibration    16          0.700              1.652              1.355
 Vibration    17          0.703              1.644              1.333
 Vibration    18          0.722              1.588              1.195
 Vibration    19          0.736              1.551              1.114
 Vibration    20          0.784              1.423              0.886
 Vibration    21          0.792              1.403              0.856
 Vibration    22          0.835              1.298              0.715
 Vibration    23          0.874              1.208              0.612
 Vibration    24          0.899              1.154              0.558
 Vibration    25          0.901              1.150              0.554
 Vibration    26          0.957              1.034              0.451

                           ! Non-Optimized Parameters !
 Normal termination of Gaussian 16 at Thu Dec 10 14:57:03 2020.

 ----------------------------------------------------------------------
 # B3LYP/6-311++G(d,p) empiricaldispersion=gd3bj scf=xqc pop=npa geom=c
 heck
 ----------------------------------------------------------------------

 ---------------------------------------
 CID_117299254_JID_5134_Energie_neutraal
 ---------------------------------------
 Structure from the checkpoint file:  "JID_5134.chk"
 Charge =  0 Multiplicity = 1

 SCF Done:  E(RB3LYP) =  -674.161456908     A.U. after   15 cycles
 Normal termination of Gaussian 16 at Thu Dec 10 15:01:25 2020.

 ----------------------------------------------------------------------
 # B3LYP/6-311++G(d,p) empiricaldispersion=gd3bj scf=xqc pop=npa geom=c
 heck
 ----------------------------------------------------------------------

 -------------------------------------
 CID_117299254_JID_5134_Energie_kation
 -------------------------------------
 Structure from the checkpoint file:  "JID_5134.chk"
 Charge =  1 Multiplicity = 2

 SCF Done:  E(UB3LYP) =  -673.886536895     A.U. after   25 cycles
 Normal termination of Gaussian 16 at Thu Dec 10 15:11:57 2020.
 Gaussian 16:  ES64L-G16RevA.03 25-Dec-2016

 ----------------------------------------------------------------------
 # B3LYP/6-311++G(d,p) empiricaldispersion=gd3bj scf=xqc pop=npa geom=c
 heck
 ----------------------------------------------------------------------

 ------------------------------------
 CID_117299254_JID_5134_Energie_anion
 ------------------------------------
 Structure from the checkpoint file:  "JID_5134.chk"
 Charge = -1 Multiplicity = 2

                         Standard orientation:
 ---------------------------------------------------------------------
 Center     Atomic      Atomic             Coordinates (Angstroms)
 Number     Number       Type             X           Y           Z
 ---------------------------------------------------------------------
      1          6           0       -1.865169    2.991705    0.338826
      2          6           0       -1.266049    1.606476    0.300715
      3          6           0        0.086330    1.389969    0.606303
      4          6           0        0.651974    0.118619    0.577573
      5          6           0       -0.166032   -0.969014    0.231477
      6          6           0       -1.510987   -0.784584   -0.078120
      7          6           0       -2.063323    0.513598   -0.043444
      8          8           0       -3.390595    0.626350   -0.359781
      9          8           0       -2.376592   -1.778332   -0.427182
     10          6           0       -1.869580   -3.098887   -0.480878
     11          6           0        2.120095   -0.087429    0.905885
     12          6           0        2.302293   -0.896985    2.199824
     13          6           0        2.903123   -0.735723   -0.255323
     14          6           0        2.709461   -0.047741   -1.608860
     15          7           0        3.048703    1.380506   -1.528272
     16          1           0       -2.265675    3.297006   -0.638669
     17          1           0       -2.683378    3.069048    1.069283
     18          1           0       -1.112163    3.731702    0.622438
     19          1           0        0.701297    2.242731    0.886689
     20          1           0        0.261106   -1.964402    0.203079
     21          1           0       -3.644217    1.558487   -0.289445
     22          1           0       -1.065043   -3.192792   -1.222899
     23          1           0       -1.493120   -3.427364    0.497329
     24          1           0       -2.709557   -3.730032   -0.775894
     25          1           0        2.557805    0.904829    1.071777
     26          1           0        1.879284   -1.903421    2.097027
     27          1           0        3.365468   -1.003932    2.445250
     28          1           0        1.800819   -0.409334    3.042456
     29          1           0        3.968944   -0.722309    0.003869
     30          1           0        2.609540   -1.790519   -0.353813
     31          1           0        3.384684   -0.511881   -2.337581
     32          1           0        1.681081   -0.233036   -1.961624
     33          1           0        3.081812    1.769911   -2.469153
     34          1           0        2.285075    1.867599   -1.060382
 ---------------------------------------------------------------------

 SCF Done:  E(UB3LYP) =  -674.149401354     A.U. after   33 cycles
 SCF Done:  E(UB3LYP) =  -674.149401354     a.u. after    1 cycles

 The electronic state is 2-A.
 Alpha  occ. eigenvalues --  -19.05673 -19.05168 -14.19739 -10.13458 -10.12998
 Alpha  occ. eigenvalues --  -10.12833 -10.09398 -10.08402 -10.08402 -10.07776
 Alpha  occ. eigenvalues --  -10.07441 -10.07171 -10.07063 -10.07003 -10.06868
 Alpha  occ. eigenvalues --   -0.97932  -0.95623  -0.78942  -0.76141  -0.71015
 Alpha  occ. eigenvalues --   -0.67735  -0.64823  -0.61954  -0.60222  -0.59473
 Alpha  occ. eigenvalues --   -0.54066  -0.51017  -0.49882  -0.46762  -0.44555
 Alpha  occ. eigenvalues --   -0.41929  -0.40452  -0.39783  -0.37817  -0.37624
 Alpha  occ. eigenvalues --   -0.35543  -0.34456  -0.33906  -0.33501  -0.32967
 Alpha  occ. eigenvalues --   -0.31285  -0.30788  -0.29856  -0.29638  -0.29308
 Alpha  occ. eigenvalues --   -0.28342  -0.27539  -0.25452  -0.25376  -0.24969
 Alpha  occ. eigenvalues --   -0.24073  -0.23180  -0.22536  -0.21292  -0.15250
 Alpha  occ. eigenvalues --   -0.13720  -0.11175   0.04105
 Alpha virt. eigenvalues --    0.05610   0.06599   0.07156   0.07942   0.08687
 Alpha virt. eigenvalues --    0.08889   0.09195   0.09330   0.10055   0.10494
 Alpha virt. eigenvalues --    0.10605   0.11250   0.11590   0.11645   0.12204

  Beta  occ. eigenvalues --  -19.05666 -19.05142 -14.19720 -10.13458 -10.12995
  Beta  occ. eigenvalues --  -10.12799 -10.09385 -10.08401 -10.08399 -10.07776
  Beta  occ. eigenvalues --  -10.07377 -10.07162 -10.07054 -10.06991 -10.06859
  Beta  occ. eigenvalues --   -0.97913  -0.95579  -0.78911  -0.76126  -0.70997
  Beta  occ. eigenvalues --   -0.67705  -0.64793  -0.61923  -0.60180  -0.59401
  Beta  occ. eigenvalues --   -0.54030  -0.50973  -0.49844  -0.46727  -0.44509
  Beta  occ. eigenvalues --   -0.41894  -0.40433  -0.39757  -0.37788  -0.37599
  Beta  occ. eigenvalues --   -0.35513  -0.34425  -0.33877  -0.33458  -0.32926
  Beta  occ. eigenvalues --   -0.31258  -0.30758  -0.29818  -0.29600  -0.29273
  Beta  occ. eigenvalues --   -0.28311  -0.27519  -0.25427  -0.25347  -0.24947
  Beta  occ. eigenvalues --   -0.24050  -0.23163  -0.22518  -0.21275  -0.15226
  Beta  occ. eigenvalues --   -0.13704  -0.11162
  Beta virt. eigenvalues --    0.06107   0.06783   0.07157   0.07358   0.08409
  Beta virt. eigenvalues --    0.09038   0.09236   0.09319   0.09625   0.10274
  Beta virt. eigenvalues --    0.10914   0.11017   0.11590   0.11846   0.11896

 Mulliken charges and spin densities:
               1          2
     1  C    3.564473  -4.035894
     2  C   -1.713319   2.616313
     3  C   -0.666360  -0.028158
     4  C    1.731047  -0.598175
     5  C   -0.375519   0.491795
     6  C   -1.225256   0.205052
     7  C    0.041406  -0.593636
     8  O   -0.274202   0.023967
     9  O   -0.183666   0.033645
    10  C    0.358884  -0.701532
    11  C   -0.559812   0.421200
    12  C   -0.131684  -0.620594
    13  C   -0.148568   0.155188
    14  C    0.152629  -0.830366
    15  N   -0.424775   0.039062
    16  H   -0.431027   0.605464
    17  H   -0.321666   0.483516
    18  H   -0.520116   0.697888
    19  H    0.048182   0.093430
    20  H    0.864955  -0.664290
    21  H   -0.118661   0.411298
    22  H   -0.255756   0.405818
    23  H   -0.238020   0.387512
    24  H   -0.242201   0.420074
    25  H    0.046737   0.129821
    26  H   -0.132181   0.282405
    27  H    0.052992   0.080965
    28  H    0.056344   0.087095
    29  H    0.091596   0.046926
    30  H   -0.244343   0.373255
    31  H   -0.044509   0.202932
    32  H    0.062551   0.087317
    33  H   -0.008101   0.249097
    34  H    0.187946   0.041611
 Sum of Mulliken charges =  -1.00000   1.00000

 Dipole moment (field-independent basis, Debye):
    X=              3.2221    Y=             -2.6167    Z=              1.4030  Tot=              4.3815
 Quadrupole moment (field-independent basis, Debye-Ang):
   XX=           -157.9382   YY=           -156.5724   ZZ=           -125.3548
   XY=              5.6494   XZ=              1.9473   YZ=              0.3462

 Summary of Natural Population Analysis:

                                       Natural Population
                Natural  -----------------------------------------------
    Atom  No    Charge         Core      Valence    Rydberg      Total
 -----------------------------------------------------------------------
      C    1   -0.30361      0.99964     2.29657    0.00740     3.30361
      C    2   -0.04201      0.99949     2.03259    0.00992     3.04201
      C    3   -0.11129      0.99947     2.10171    0.01012     3.11129
      C    4   -0.01632      0.99950     2.00516    0.01166     3.01632
      C    5   -0.14614      0.99947     2.13846    0.00821     3.14614
      C    6    0.14880      0.99936     1.83893    0.01291     2.85120
      C    7    0.13996      0.99931     1.84661    0.01413     2.86004
      O    8   -0.33546      0.99988     3.32868    0.00690     4.33546
      O    9   -0.26522      0.99986     3.25562    0.00975     4.26522
      C   10   -0.10108      0.99960     2.09227    0.00921     3.10108
      C   11   -0.12017      0.99957     2.11053    0.01007     3.12017
      C   12   -0.27688      0.99965     2.27269    0.00455     3.27688
      C   13   -0.18737      0.99961     2.17816    0.00959     3.18737
      C   14   -0.09070      0.99963     2.08051    0.01056     3.09070
      N   15   -0.42647      0.99977     2.91667    0.01003     3.92647
      H   16    0.10629      0.00000     0.39125    0.00245     0.39371
      H   17    0.10446      0.00000     0.39358    0.00196     0.39554
      H   18    0.11021      0.00000     0.38817    0.00161     0.38979
      H   19    0.09763      0.00000     0.40063    0.00174     0.40237
      H   20    0.10477      0.00000     0.39343    0.00179     0.39523
      H   21    0.23856      0.00000     0.25790    0.00354     0.26144
      H   22    0.08495      0.00000     0.41336    0.00169     0.41505
      H   23    0.08397      0.00000     0.41455    0.00148     0.41603
      H   24    0.09301      0.00000     0.40606    0.00093     0.40699
      H   25    0.09971      0.00000     0.39824    0.00205     0.40029
      H   26    0.09719      0.00000     0.40174    0.00107     0.40281
      H   27    0.09568      0.00000     0.40344    0.00088     0.40432
      H   28    0.10050      0.00000     0.39866    0.00083     0.39950
      H   29    0.09729      0.00000     0.40154    0.00116     0.40271
      H   30    0.09613      0.00000     0.40262    0.00126     0.40387
      H   31    0.08860      0.00000     0.41036    0.00105     0.41140
      H   32    0.08490      0.00000     0.41335    0.00175     0.41510
      H   33    0.17446      0.00000     0.32402    0.00152     0.32554
      H   34    0.17567      0.00000     0.32213    0.00220     0.32433
 =======================================================================
   * Total *    0.00000     14.99382    41.83020    0.17598    57.00000

 Normal termination of Gaussian 16 at Thu Dec 10 15:25:26 2020.
