 Gaussian 16, Revision A.03,

 -----------------------------------------------------------
 # opt freq B3LYP/6-31G(d) empiricaldispersion=gd3bj scf=xqc
 -----------------------------------------------------------

 ------------------------------
 CID_63115532_JID_1484_neutraal
 ------------------------------
 Symbolic Z-matrix:
 Charge =  0 Multiplicity = 1

 SCF Done:  E(RB3LYP) =  -807.378624300     A.U. after   13 cycles
 SCF Done:  E(RB3LYP) =  -807.382621112     A.U. after   11 cycles
 SCF Done:  E(RB3LYP) =  -807.381741004     A.U. after   11 cycles
 SCF Done:  E(RB3LYP) =  -807.380919839     A.U. after   11 cycles
 SCF Done:  E(RB3LYP) =  -807.380950834     A.U. after   11 cycles
 SCF Done:  E(RB3LYP) =  -807.382971952     A.U. after   10 cycles
 SCF Done:  E(RB3LYP) =  -807.383310460     A.U. after   11 cycles
 SCF Done:  E(RB3LYP) =  -807.384555107     A.U. after   11 cycles
 SCF Done:  E(RB3LYP) =  -807.383917401     A.U. after   11 cycles
 SCF Done:  E(RB3LYP) =  -807.384886742     A.U. after   10 cycles
 SCF Done:  E(RB3LYP) =  -807.385349177     A.U. after    9 cycles
 SCF Done:  E(RB3LYP) =  -807.385355677     A.U. after   10 cycles
 SCF Done:  E(RB3LYP) =  -807.385355146     A.U. after    8 cycles
 SCF Done:  E(RB3LYP) =  -807.385355909     A.U. after    9 cycles
 SCF Done:  E(RB3LYP) =  -807.385355847     A.U. after    7 cycles
 SCF Done:  E(RB3LYP) =  -807.385355930     A.U. after    7 cycles
 Optimization completed.
    -- Stationary point found.
 Normal termination of Gaussian 16 at Tue Dec  8 20:19:18 2020.

 --------------------------------------------------------------------
 #N Geom=AllCheck Guess=TCheck SCRF=Check GenChk RB3LYP/6-31G(d) Freq
 --------------------------------------------------------------------

 Structure from the checkpoint file:  "JID_1484.chk"
 ------------------------------
 CID_63115532_JID_1484_neutraal
 ------------------------------
 Charge =  0 Multiplicity = 1

 SCF Done:  E(RB3LYP) =  -807.385355930     A.U. after    1 cycles

  Exact polarizability: 139.620   3.955 109.546  -3.168   0.442 102.179
 Approx polarizability: 178.986   4.961 155.258  -3.223  -0.526 160.278

                      1                      2                      3
                      A                      A                      A
 Frequencies --     31.7225                62.2367                83.0877
 Red. masses --      2.1526                 2.7886                 3.6509
 Frc consts  --      0.0013                 0.0064                 0.0149
 IR Inten    --      0.4436                 0.1206                 0.4364

                      4                      5                      6
                      A                      A                      A
 Frequencies --    117.5691               134.9158               157.9710
 Red. masses --      3.0624                 3.3330                 3.3428
 Frc consts  --      0.0249                 0.0357                 0.0491
 IR Inten    --      0.2618                 0.0938                 2.3966

                      7                      8                      9
                      A                      A                      A
 Frequencies --    214.7358               236.1933               263.2996
 Red. masses --      2.4859                 2.1015                 2.7411
 Frc consts  --      0.0675                 0.0691                 0.1120
 IR Inten    --      0.8332                 0.3797                 2.4783

                     10                     11                     12
                      A                      A                      A
 Frequencies --    286.1602               295.3658               342.3305
 Red. masses --      1.2982                 1.9928                 1.4505
 Frc consts  --      0.0626                 0.1024                 0.1002
 IR Inten    --      1.6942                 0.7943                41.9336

                     13                     14                     15
                      A                      A                      A
 Frequencies --    357.7627               377.7982               436.9250
 Red. masses --      2.6065                 2.7059                 1.8956
 Frc consts  --      0.1966                 0.2276                 0.2132
 IR Inten    --     10.1934                 4.0883                 8.9555

                     16                     17                     18
                      A                      A                      A
 Frequencies --    504.9758               546.2422               594.5906
 Red. masses --      2.3920                 3.1706                 2.3043
 Frc consts  --      0.3594                 0.5574                 0.4800
 IR Inten    --      0.3900                 2.1327                 0.8291

                     19                     20                     21
                      A                      A                      A
 Frequencies --    624.1690               750.3941               813.5289
 Red. masses --      3.1612                 2.1656                 1.6924
 Frc consts  --      0.7256                 0.7185                 0.6599
 IR Inten    --      1.5939                 3.9769                 3.8312

                     22                     23                     24
                      A                      A                      A
 Frequencies --    820.8521               868.0602               868.9035
 Red. masses --      2.1529                 1.9544                 1.9415
 Frc consts  --      0.8547                 0.8677                 0.8636
 IR Inten    --      7.8295                35.7144                36.4153

                     25                     26                     27
                      A                      A                      A
 Frequencies --    907.4108               913.0412               918.6954
 Red. masses --      2.2921                 1.6121                 2.5813
 Frc consts  --      1.1120                 0.7918                 1.2836
 IR Inten    --     24.2229                70.8736                 4.6315

                     28                     29                     30
                      A                      A                      A
 Frequencies --    950.0078               969.8321               972.6626
 Red. masses --      2.0148                 1.6121                 1.5372
 Frc consts  --      1.0713                 0.8934                 0.8569
 IR Inten    --      2.1844                 6.9600                 0.6774

                     31                     32                     33
                      A                      A                      A
 Frequencies --    997.4282              1022.5757              1027.3922
 Red. masses --      2.0509                 1.3665                 1.3139
 Frc consts  --      1.2021                 0.8419                 0.8171
 IR Inten    --     12.1658                 8.4080                 0.8584

                     34                     35                     36
                      A                      A                      A
 Frequencies --   1050.1621              1095.8870              1106.3686
 Red. masses --      2.0759                 3.1701                 1.8412
 Frc consts  --      1.3489                 2.2432                 1.3279
 IR Inten    --      1.1021                 0.7011                17.5861

                     37                     38                     39
                      A                      A                      A
 Frequencies --   1136.5655              1151.4016              1177.3700
 Red. masses --      2.0165                 2.1793                 1.2919
 Frc consts  --      1.5347                 1.7023                 1.0551
 IR Inten    --      5.2952                 0.6718                 5.5904

                     40                     41                     42
                      A                      A                      A
 Frequencies --   1200.7885              1208.3182              1243.8951
 Red. masses --      1.1780                 1.3994                 1.4216
 Frc consts  --      1.0007                 1.2038                 1.2960
 IR Inten    --      2.2320                 1.8286                 0.5474

                     43                     44                     45
                      A                      A                      A
 Frequencies --   1264.4874              1280.8429              1295.1505
 Red. masses --      1.1454                 1.2571                 1.2970
 Frc consts  --      1.0790                 1.2151                 1.2819
 IR Inten    --      2.5560                 4.2247                39.5067

                     46                     47                     48
                      A                      A                      A
 Frequencies --   1303.5904              1315.6518              1342.8874
 Red. masses --      1.2974                 1.2419                 1.2632
 Frc consts  --      1.2990                 1.2666                 1.3421
 IR Inten    --      4.4996                 0.1089                 5.7478

                     49                     50                     51
                      A                      A                      A
 Frequencies --   1356.9336              1362.9164              1364.6964
 Red. masses --      1.3358                 1.2925                 1.2819
 Frc consts  --      1.4492                 1.4145                 1.4066
 IR Inten    --      3.6286                 1.0033                 0.9664

                     52                     53                     54
                      A                      A                      A
 Frequencies --   1364.7690              1374.3513              1396.0980
 Red. masses --      1.2576                 1.4615                 1.3092
 Frc consts  --      1.3801                 1.6265                 1.5034
 IR Inten    --      1.3605                 1.2465                 6.6054

                     55                     56                     57
                      A                      A                      A
 Frequencies --   1437.9181              1458.6005              1508.1546
 Red. masses --      1.2360                 1.4164                 1.0845
 Frc consts  --      1.5057                 1.7755                 1.4534
 IR Inten    --      6.4798                 8.0125                 3.0577

                     58                     59                     60
                      A                      A                      A
 Frequencies --   1518.5243              1520.4707              1525.1933
 Red. masses --      1.0788                 1.0875                 1.0840
 Frc consts  --      1.4657                 1.4812                 1.4857
 IR Inten    --      0.3601                 3.1589                 2.9837

                     61                     62                     63
                      A                      A                      A
 Frequencies --   1527.9955              1533.4338              1544.7246
 Red. masses --      1.0528                 1.0482                 1.0984
 Frc consts  --      1.4482                 1.4522                 1.5442
 IR Inten    --      7.5125                 3.8313                 2.8284

                     64                     65                     66
                      A                      A                      A
 Frequencies --   1553.4687              1693.7144              2975.1043
 Red. masses --      1.0850                 1.0848                 1.0727
 Frc consts  --      1.5427                 1.8335                 5.5944
 IR Inten    --      1.6558                18.6618                62.7746

                     67                     68                     69
                      A                      A                      A
 Frequencies --   3028.4447              3043.4349              3049.9084
 Red. masses --      1.0683                 1.0708                 1.0647
 Frc consts  --      5.7725                 5.8438                 5.8352
 IR Inten    --     21.2584                16.9569                29.6614

                     70                     71                     72
                      A                      A                      A
 Frequencies --   3053.9327              3060.0702              3061.6324
 Red. masses --      1.0403                 1.0633                 1.0851
 Frc consts  --      5.7164                 5.8664                 5.9925
 IR Inten    --     16.9896                29.6261                31.3135

                     73                     74                     75
                      A                      A                      A
 Frequencies --   3065.5605              3073.9594              3088.3020
 Red. masses --      1.0850                 1.0719                 1.0824
 Frc consts  --      6.0076                 5.9678                 6.0826
 IR Inten    --     71.3776                16.0851                10.4366

                     76                     77                     78
                      A                      A                      A
 Frequencies --   3091.5220              3100.6697              3108.6875
 Red. masses --      1.0950                 1.0941                 1.1017
 Frc consts  --      6.1661                 6.1974                 6.2729
 IR Inten    --     25.4492                33.4049                38.8603

                     79                     80                     81
                      A                      A                      A
 Frequencies --   3117.9031              3121.1649              3134.9281
 Red. masses --      1.0991                 1.0986                 1.1007
 Frc consts  --      6.2955                 6.3056                 6.3734
 IR Inten    --     30.9093                27.0102                30.4616

                     82                     83                     84
                      A                      A                      A
 Frequencies --   3137.4083              3459.3050              3550.9704
 Red. masses --      1.1024                 1.0494                 1.0930
 Frc consts  --      6.3937                 7.3993                 8.1201
 IR Inten    --     23.2003                12.1183                 5.3277

 - Thermochemistry -
 -------------------
 Temperature   298.150 Kelvin.  Pressure   1.00000 Atm.
 Atom     1 has atomic number  6 and mass  12.00000

 Molecular mass:   173.12382 amu.
 Principal axes and moments of inertia in atomic units:
                           1         2         3
     Eigenvalues --  1286.597532999.160153449.82857
           X            0.99994   0.00591  -0.00867
           Y           -0.00620   0.99942  -0.03336
           Z            0.00847   0.03341   0.99941
 This molecule is an asymmetric top.
 Rotational symmetry number  1.
 Warning -- assumption of classical behavior for rotation
           may cause significant error
 Rotational temperatures (Kelvin)      0.06732     0.02888     0.02511
 Rotational constants (GHZ):           1.40272     0.60175     0.52314
 Zero-point vibrational energy     723783.0 (Joules/Mol)
                                  172.98830 (Kcal/Mol)
 Warning -- explicit consideration of  18 degrees of freedom as
           vibrations may cause significant error
 Vibrational temperatures:     45.64    89.54   119.54   169.16   194.11
          (Kelvin)            227.29   308.96   339.83   378.83   411.72
                              424.97   492.54   514.74   543.57   628.64
                              726.55   785.92   855.48   898.04  1079.65
                             1170.49  1181.02  1248.94  1250.16  1305.56
                             1313.66  1321.80  1366.85  1395.37  1399.44
                             1435.08  1471.26  1478.19  1510.95  1576.74
                             1591.82  1635.26  1656.61  1693.97  1727.67
                             1738.50  1789.69  1819.32  1842.85  1863.43
                             1875.58  1892.93  1932.12  1952.32  1960.93
                             1963.49  1963.60  1977.38  2008.67  2068.84
                             2098.60  2169.90  2184.82  2187.62  2194.41
                             2198.44  2206.27  2222.51  2235.09  2436.88
                             4280.51  4357.26  4378.82  4388.14  4393.93
                             4402.76  4405.01  4410.66  4422.74  4443.38
                             4448.01  4461.17  4472.71  4485.97  4490.66
                             4510.46  4514.03  4977.17  5109.05

 Zero-point correction=                           0.275674 (Hartree/Particle)
 Thermal correction to Energy=                    0.288489
 Thermal correction to Enthalpy=                  0.289433
 Thermal correction to Gibbs Free Energy=         0.236058
 Sum of electronic and zero-point Energies=           -807.109682
 Sum of electronic and thermal Energies=              -807.096867
 Sum of electronic and thermal Enthalpies=            -807.095923
 Sum of electronic and thermal Free Energies=         -807.149298

                     E (Thermal)             CV                S
                      KCal/Mol        Cal/Mol-Kelvin    Cal/Mol-Kelvin
 Total                  181.030             48.203            112.339
 Electronic               0.000              0.000              0.000
 Translational            0.889              2.981             41.354
 Rotational               0.889              2.981             30.966
 Vibrational            179.252             42.241             40.019
 Vibration     1          0.594              1.983              5.719
 Vibration     2          0.597              1.972              4.385
 Vibration     3          0.600              1.961              3.817
 Vibration     4          0.608              1.935              3.140
 Vibration     5          0.613              1.918              2.875
 Vibration     6          0.621              1.894              2.574
 Vibration     7          0.645              1.819              2.003
 Vibration     8          0.655              1.785              1.831
 Vibration     9          0.670              1.740              1.640
 Vibration    10          0.684              1.699              1.497
 Vibration    11          0.690              1.682              1.443
 Vibration    12          0.721              1.591              1.201
 Vibration    13          0.733              1.559              1.132
 Vibration    14          0.748              1.517              1.048
 Vibration    15          0.797              1.390              0.836
 Vibration    16          0.860              1.239              0.646
 Vibration    17          0.901              1.148              0.552
 Vibration    18          0.952              1.043              0.459

 Optimization completed.
    -- Stationary point found.
 Normal termination of Gaussian 16 at Tue Dec  8 20:25:49 2020.

 ----------------------------------------------------------------------
 # B3LYP/6-311++G(d,p) empiricaldispersion=gd3bj scf=xqc pop=npa geom=c
 heck
 ----------------------------------------------------------------------

 --------------------------------------
 CID_63115532_JID_1484_Energie_neutraal
 --------------------------------------
 Structure from the checkpoint file:  "JID_1484.chk"
 Charge =  0 Multiplicity = 1

 SCF Done:  E(RB3LYP) =  -807.533277113     A.U. after   13 cycles
 Normal termination of Gaussian 16 at Tue Dec  8 20:29:25 2020.

 ----------------------------------------------------------------------
 # B3LYP/6-311++G(d,p) empiricaldispersion=gd3bj scf=xqc pop=npa geom=c
 heck
 ----------------------------------------------------------------------

 ------------------------------------
 CID_63115532_JID_1484_Energie_kation
 ------------------------------------
 Structure from the checkpoint file:  "JID_1484.chk"
 Charge =  1 Multiplicity = 2

 SCF Done:  E(UB3LYP) =  -807.243321279     A.U. after   19 cycles
 Normal termination of Gaussian 16 at Tue Dec  8 20:35:22 2020.
 Gaussian 16:  ES64L-G16RevA.03 25-Dec-2016

 ----------------------------------------------------------------------
 # B3LYP/6-311++G(d,p) empiricaldispersion=gd3bj scf=xqc pop=npa geom=c
 heck
 ----------------------------------------------------------------------

 -----------------------------------
 CID_63115532_JID_1484_Energie_anion
 -----------------------------------
 Structure from the checkpoint file:  "JID_1484.chk"
 Charge = -1 Multiplicity = 2

                         Standard orientation:
 ---------------------------------------------------------------------
 Center     Atomic      Atomic             Coordinates (Angstroms)
 Number     Number       Type             X           Y           Z
 ---------------------------------------------------------------------
      1          6           0       -1.413926   -1.572128    1.459083
      2          6           0       -1.777249   -1.174277    0.028971
      3          6           0       -2.794628   -0.018770   -0.035890
      4          6           0       -2.301146    1.374867    0.379010
      5          7           0       -1.832266    2.126921   -0.791347
      6         16           0       -0.284033   -0.916803   -1.065172
      7          6           0        1.134264   -0.563054    0.050035
      8          6           0        2.439923   -0.693938   -0.757070
      9          6           0        3.463693    0.013035    0.139341
     10          6           0        2.708241    1.262713    0.635099
     11          6           0        1.212219    0.843286    0.702144
     12          1           0       -0.915113   -0.761741    1.998825
     13          1           0       -0.761674   -2.450461    1.477291
     14          1           0       -2.329718   -1.820417    2.008538
     15          1           0       -2.254091   -2.042332   -0.439713
     16          1           0       -3.192280    0.062952   -1.053806
     17          1           0       -3.636832   -0.313759    0.605961
     18          1           0       -3.138094    1.934863    0.813076
     19          1           0       -1.548886    1.275113    1.180475
     20          1           0       -1.415896    3.009236   -0.497405
     21          1           0       -1.101715    1.592055   -1.259020
     22          1           0        1.141831   -1.328805    0.830663
     23          1           0        2.686001   -1.735518   -0.982507
     24          1           0        2.345822   -0.158478   -1.711334
     25          1           0        4.395052    0.256722   -0.382089
     26          1           0        3.721957   -0.636856    0.985631
     27          1           0        2.833159    2.077982   -0.086676
     28          1           0        3.086905    1.626771    1.595306
     29          1           0        0.582256    1.553551    0.162301
     30          1           0        0.843367    0.809127    1.732333
 ---------------------------------------------------------------------

 SCF Done:  E(UB3LYP) =  -807.519534418     A.U. after   27 cycles

 The electronic state is 2-A.
 Alpha  occ. eigenvalues --  -88.72884 -14.18678 -10.10456 -10.09584 -10.08880
 Alpha  occ. eigenvalues --  -10.06866 -10.06778 -10.06372 -10.06205 -10.06201
 Alpha  occ. eigenvalues --  -10.06124  -7.81521  -5.77910  -5.77536  -5.76910
 Alpha  occ. eigenvalues --   -0.78021  -0.74413  -0.70806  -0.64063  -0.61127
 Alpha  occ. eigenvalues --   -0.60786  -0.56991  -0.52397  -0.47255  -0.46761
 Alpha  occ. eigenvalues --   -0.44024  -0.39082  -0.38533  -0.38097  -0.35740
 Alpha  occ. eigenvalues --   -0.34454  -0.32944  -0.31942  -0.31514  -0.30103
 Alpha  occ. eigenvalues --   -0.28108  -0.27235  -0.25369  -0.24612  -0.24184
 Alpha  occ. eigenvalues --   -0.23836  -0.23560  -0.23345  -0.22221  -0.21706
 Alpha  occ. eigenvalues --   -0.18987  -0.14221  -0.11820   0.04489
 Alpha virt. eigenvalues --    0.06600   0.07335   0.07971   0.08863   0.08936
 Alpha virt. eigenvalues --    0.09313   0.10371   0.10705   0.11186   0.11351
 Alpha virt. eigenvalues --    0.12222   0.12432   0.12881   0.14015   0.14246

  Beta  occ. eigenvalues --  -88.72880 -14.18665 -10.10450 -10.09567 -10.08863
  Beta  occ. eigenvalues --  -10.06857 -10.06763 -10.06346 -10.06176 -10.06160
  Beta  occ. eigenvalues --  -10.06104  -7.81517  -5.77900  -5.77531  -5.76907
  Beta  occ. eigenvalues --   -0.77997  -0.74381  -0.70774  -0.64025  -0.61076
  Beta  occ. eigenvalues --   -0.60734  -0.56932  -0.52351  -0.47178  -0.46707
  Beta  occ. eigenvalues --   -0.43981  -0.39047  -0.38472  -0.38062  -0.35692
  Beta  occ. eigenvalues --   -0.34421  -0.32906  -0.31910  -0.31473  -0.30061
  Beta  occ. eigenvalues --   -0.28071  -0.27197  -0.25330  -0.24579  -0.24139
  Beta  occ. eigenvalues --   -0.23805  -0.23519  -0.23303  -0.22184  -0.21666
  Beta  occ. eigenvalues --   -0.18958  -0.14203  -0.11800
  Beta virt. eigenvalues --    0.06766   0.07413   0.07968   0.08578   0.09327
  Beta virt. eigenvalues --    0.09428   0.09762   0.10745   0.10985   0.11593
  Beta virt. eigenvalues --    0.11815   0.12622   0.12661   0.13145   0.14283

 Mulliken charges and spin densities:
               1          2
     1  C    0.818888  -1.552104
     2  C   -0.678765   0.924877
     3  C    0.206798  -0.712176
     4  C    0.012571  -0.361643
     5  N   -0.344858  -0.008180
     6  S    0.153798  -0.282305
     7  C   -0.725851   1.025733
     8  C    0.674889  -1.058101
     9  C   -0.637109   0.261656
    10  C    2.063798  -2.587168
    11  C   -0.887328   0.553344
    12  H   -0.320552   0.498140
    13  H   -0.299181   0.458578
    14  H   -0.621954   0.780486
    15  H    0.062821   0.191590
    16  H    0.178739  -0.014183
    17  H   -0.074647   0.191136
    18  H   -0.302394   0.483613
    19  H    0.044978   0.064678
    20  H    0.097859   0.125450
    21  H    0.197864   0.038137
    22  H    0.397343  -0.168444
    23  H   -0.224043   0.379964
    24  H    0.050327   0.086715
    25  H   -0.195917   0.363837
    26  H   -0.191948   0.330283
    27  H   -0.129435   0.262822
    28  H   -0.326504   0.495603
    29  H    0.133928  -0.028115
    30  H   -0.134113   0.255777
 Sum of Mulliken charges =  -1.00000   1.00000

 Dipole moment (field-independent basis, Debye):
    X=             -0.7920    Y=              0.4662    Z=             -3.7947  Tot=              3.9044
 Quadrupole moment (field-independent basis, Debye-Ang):
   XX=           -142.2120   YY=           -120.7172   ZZ=           -121.0329
   XY=             -0.0504   XZ=              1.3487   YZ=              4.2304

 Summary of Natural Population Analysis:

                                       Natural Population
                Natural  -----------------------------------------------
    Atom  No    Charge         Core      Valence    Rydberg      Total
 -----------------------------------------------------------------------
      C    1   -0.29348      0.99963     2.28658    0.00727     3.29348
      C    2   -0.15896      0.99956     2.14631    0.01309     3.15896
      C    3   -0.19939      0.99959     2.18902    0.01079     3.19939
      C    4   -0.09467      0.99963     2.08405    0.01099     3.09467
      N    5   -0.42909      0.99978     2.91954    0.00977     3.92909
      S    6    0.08273      4.99958     2.90152    0.01617     7.91727
      C    7   -0.17206      0.99954     2.15829    0.01423     3.17206
      C    8   -0.19108      0.99961     2.18182    0.00965     3.19108
      C    9   -0.18996      0.99964     2.18237    0.00795     3.18996
      C   10   -0.18993      0.99964     2.18227    0.00802     3.18993
      C   11   -0.20179      0.99960     2.19206    0.01013     3.20179
      H   12    0.10189      0.00000     0.39630    0.00181     0.39811
      H   13    0.10469      0.00000     0.39393    0.00138     0.39531
      H   14    0.10486      0.00000     0.39328    0.00186     0.39514
      H   15    0.10028      0.00000     0.39859    0.00112     0.39972
      H   16    0.10223      0.00000     0.39637    0.00140     0.39777
      H   17    0.10099      0.00000     0.39778    0.00123     0.39901
      H   18    0.08931      0.00000     0.40947    0.00122     0.41069
      H   19    0.08270      0.00000     0.41497    0.00232     0.41730
      H   20    0.17183      0.00000     0.32656    0.00161     0.32817
      H   21    0.18071      0.00000     0.31660    0.00269     0.31929
      H   22    0.10414      0.00000     0.39372    0.00214     0.39586
      H   23    0.10435      0.00000     0.39464    0.00100     0.39565
      H   24    0.09544      0.00000     0.40333    0.00123     0.40456
      H   25    0.09917      0.00000     0.39971    0.00112     0.40083
      H   26    0.09635      0.00000     0.40197    0.00168     0.40365
      H   27    0.09393      0.00000     0.40468    0.00139     0.40607
      H   28    0.10166      0.00000     0.39688    0.00146     0.39834
      H   29    0.10067      0.00000     0.39721    0.00212     0.39933
      H   30    0.10248      0.00000     0.39571    0.00182     0.39752
 =======================================================================
   * Total *   -0.00000     14.99577    32.85555    0.14868    48.00000

 Normal termination of Gaussian 16 at Tue Dec  8 20:43:16 2020.
