 Gaussian 16, Revision A.03,

 -----------------------------------------------------------
 # opt freq B3LYP/6-31G(d) empiricaldispersion=gd3bj scf=xqc
 -----------------------------------------------------------

 ----------------------------
 CID_721976_JID_5095_neutraal
 ----------------------------
 Symbolic Z-matrix:
 Charge =  0 Multiplicity = 1

 SCF Done:  E(RB3LYP) =  -1025.35726320     A.U. after   16 cycles
 SCF Done:  E(RB3LYP) =  -1025.36474036     A.U. after   14 cycles
 SCF Done:  E(RB3LYP) =  -1025.36428781     A.U. after   14 cycles
 SCF Done:  E(RB3LYP) =  -1025.36656248     A.U. after   13 cycles
 SCF Done:  E(RB3LYP) =  -1025.36797267     A.U. after   13 cycles
 SCF Done:  E(RB3LYP) =  -1025.36843511     A.U. after   12 cycles
 SCF Done:  E(RB3LYP) =  -1025.36780744     A.U. after   13 cycles
 SCF Done:  E(RB3LYP) =  -1025.36860182     A.U. after   12 cycles
 SCF Done:  E(RB3LYP) =  -1025.36865379     A.U. after   11 cycles
 SCF Done:  E(RB3LYP) =  -1025.36865786     A.U. after    9 cycles
 SCF Done:  E(RB3LYP) =  -1025.36867590     A.U. after   10 cycles
 SCF Done:  E(RB3LYP) =  -1025.36867638     A.U. after   10 cycles
 SCF Done:  E(RB3LYP) =  -1025.36867647     A.U. after    8 cycles
 SCF Done:  E(RB3LYP) =  -1025.36867648     A.U. after    7 cycles
 SCF Done:  E(RB3LYP) =  -1025.36867649     A.U. after    7 cycles
 Optimization completed.
    -- Stationary point found.
 Normal termination of Gaussian 16 at Thu Dec 10 14:50:01 2020.

 --------------------------------------------------------------------
 #N Geom=AllCheck Guess=TCheck SCRF=Check GenChk RB3LYP/6-31G(d) Freq
 --------------------------------------------------------------------

 Structure from the checkpoint file:  "JID_5095.chk"
 ----------------------------
 CID_721976_JID_5095_neutraal
 ----------------------------
 Charge =  0 Multiplicity = 1

 SCF Done:  E(RB3LYP) =  -1025.36867649     A.U. after    1 cycles

  Exact polarizability: 196.484  -2.770 177.710   1.593   1.798  75.946
 Approx polarizability: 271.770 -27.581 340.437   5.197   7.586 116.388

                      1                      2                      3
                      A                      A                      A
 Frequencies --     29.3574                51.3813                71.7835
 Red. masses --      2.0166                 3.7018                 4.7349
 Frc consts  --      0.0010                 0.0058                 0.0144
 IR Inten    --      9.4371                 0.3665                 3.0171

                      4                      5                      6
                      A                      A                      A
 Frequencies --     90.3182                99.8929               108.0613
 Red. masses --      4.9092                 4.5763                 2.7940
 Frc consts  --      0.0236                 0.0269                 0.0192
 IR Inten    --      2.7652                13.4495                 5.2512

                      7                      8                      9
                      A                      A                      A
 Frequencies --    127.3612               145.1159               154.9776
 Red. masses --      3.6660                 3.6671                 3.0278
 Frc consts  --      0.0350                 0.0455                 0.0428
 IR Inten    --      1.8481                 4.3421                 0.7994

                     10                     11                     12
                      A                      A                      A
 Frequencies --    210.8033               224.9202               235.2292
 Red. masses --      3.2748                 3.8215                 6.2550
 Frc consts  --      0.0857                 0.1139                 0.2039
 IR Inten    --      0.2890                 0.6320                 3.1881

                     13                     14                     15
                      A                      A                      A
 Frequencies --    292.2537               335.6420               345.3807
 Red. masses --      5.2231                 5.4051                 1.0946
 Frc consts  --      0.2628                 0.3588                 0.0769
 IR Inten    --      5.6756                 2.9106                69.2739

                     16                     17                     18
                      A                      A                      A
 Frequencies --    346.0331               380.8958               415.2428
 Red. masses --      3.3200                 2.7256                 5.1209
 Frc consts  --      0.2342                 0.2330                 0.5202
 IR Inten    --      7.5880                 3.2884                 0.4963

                     19                     20                     21
                      A                      A                      A
 Frequencies --    451.2887               459.5899               500.5704
 Red. masses --      8.2170                 1.2690                 8.3443
 Frc consts  --      0.9860                 0.1579                 1.2319
 IR Inten    --      2.1219                20.0366                 4.8834

                     22                     23                     24
                      A                      A                      A
 Frequencies --    513.7765               540.9018               574.8388
 Red. masses --      5.4648                 7.6092                 1.9922
 Frc consts  --      0.8499                 1.3117                 0.3879
 IR Inten    --      5.2013                11.7223                 9.6728

                     25                     26                     27
                      A                      A                      A
 Frequencies --    585.8335               603.5555               629.6753
 Red. masses --      4.4371                 3.8950                 1.8873
 Frc consts  --      0.8972                 0.8360                 0.4409
 IR Inten    --     35.6559                19.8290                60.1562

                     28                     29                     30
                      A                      A                      A
 Frequencies --    657.6422               715.5700               753.5298
 Red. masses --      2.0494                 5.5068                 5.8378
 Frc consts  --      0.5222                 1.6613                 1.9530
 IR Inten    --    103.1136                77.8636                31.8385

                     31                     32                     33
                      A                      A                      A
 Frequencies --    786.9432               908.5385               942.4046
 Red. masses --      4.0572                 2.1785                 1.3434
 Frc consts  --      1.4804                 1.0595                 0.7030
 IR Inten    --      3.3824                10.3456                41.4780

                     34                     35                     36
                      A                      A                      A
 Frequencies --    947.7089               958.9986               986.4525
 Red. masses --      4.1297                 2.6925                 2.7820
 Frc consts  --      2.1853                 1.4589                 1.5950
 IR Inten    --      8.7307                11.6437                 6.8749

                     37                     38                     39
                      A                      A                      A
 Frequencies --   1046.9462              1056.3304              1122.1706
 Red. masses --      1.1711                 2.1642                 1.8711
 Frc consts  --      0.7563                 1.4228                 1.3882
 IR Inten    --     28.4650                 9.1990                24.1239

                     40                     41                     42
                      A                      A                      A
 Frequencies --   1162.7580              1163.7562              1208.1919
 Red. masses --      1.2628                 2.7684                 1.7733
 Frc consts  --      1.0059                 2.2091                 1.5251
 IR Inten    --      0.2095                18.5660                15.5244

                     43                     44                     45
                      A                      A                      A
 Frequencies --   1217.7342              1236.6135              1309.1709
 Red. masses --      2.2210                 1.6595                 1.3948
 Frc consts  --      1.9405                 1.4952                 1.4085
 IR Inten    --     15.4533                21.6999                 4.5713

                     46                     47                     48
                      A                      A                      A
 Frequencies --   1337.9356              1347.5408              1417.1110
 Red. masses --      1.3317                 3.2436                 5.5424
 Frc consts  --      1.4046                 3.4702                 6.5578
 IR Inten    --      5.7203                82.8852                25.2625

                     49                     50                     51
                      A                      A                      A
 Frequencies --   1441.2550              1471.0872              1480.9014
 Red. masses --      1.7050                 1.2011                 2.1215
 Frc consts  --      2.0866                 1.5314                 2.7413
 IR Inten    --     76.7223                 8.1983               256.8349

                     52                     53                     54
                      A                      A                      A
 Frequencies --   1495.8544              1508.7571              1510.9801
 Red. masses --      1.1048                 1.0393                 1.8005
 Frc consts  --      1.4564                 1.3939                 2.4219
 IR Inten    --      8.8653                10.5619                89.0311

                     55                     56                     57
                      A                      A                      A
 Frequencies --   1542.4566              1589.5384              1628.5495
 Red. masses --      1.0721                 5.1049                 4.0146
 Frc consts  --      1.5028                 7.5993                 6.2732
 IR Inten    --      6.4071               333.2451               380.0995

                     58                     59                     60
                      A                      A                      A
 Frequencies --   1698.5701              1705.3308              1721.0294
 Red. masses --      7.8764                 1.1838                 5.0105
 Frc consts  --     13.3889                 2.0283                 8.7440
 IR Inten    --    290.2768                56.9071                46.2116

                     61                     62                     63
                      A                      A                      A
 Frequencies --   2313.4853              3040.4355              3056.1914
 Red. masses --     12.6459                 1.0369                 1.0580
 Frc consts  --     39.8781                 5.6475                 5.8222
 IR Inten    --    116.0755                39.9500                 7.4679

                     64                     65                     66
                      A                      A                      A
 Frequencies --   3092.1275              3105.3519              3150.5900
 Red. masses --      1.1054                 1.1050                 1.0595
 Frc consts  --      6.2273                 6.2783                 6.1962
 IR Inten    --     20.3140                 4.4299                 5.7659

                     67                     68                     69
                      A                      A                      A
 Frequencies --   3164.5161              3165.6214              3237.0897
 Red. masses --      1.0920                 1.0997                 1.1146
 Frc consts  --      6.4428                 6.4928                 6.8817
 IR Inten    --      7.3007                12.6844                15.8432

                     70                     71                     72
                      A                      A                      A
 Frequencies --   3524.2878              3614.0850              3631.0712
 Red. masses --      1.0485                 1.0773                 1.0995
 Frc consts  --      7.6731                 8.2908                 8.5411
 IR Inten    --    122.3077                69.0208               105.5937

 - Thermochemistry -
 -------------------
 Temperature   298.150 Kelvin.  Pressure   1.00000 Atm.
 Atom     1 has atomic number  6 and mass  12.00000

 Molecular mass:   221.06228 amu.
 Principal axes and moments of inertia in atomic units:
                           1         2         3
     Eigenvalues --  2157.437984727.126876668.24277
           X            0.99887   0.04748   0.00059
           Y           -0.04748   0.99887  -0.00057
           Z           -0.00062   0.00054   1.00000
 This molecule is an asymmetric top.
 Rotational symmetry number  1.
 Warning -- assumption of classical behavior for rotation
           may cause significant error
 Rotational temperatures (Kelvin)      0.04015     0.01832     0.01299
 Rotational constants (GHZ):           0.83652     0.38178     0.27065
 Zero-point vibrational energy     524549.9 (Joules/Mol)
                                  125.37043 (Kcal/Mol)
 Warning -- explicit consideration of  26 degrees of freedom as
           vibrations may cause significant error
 Vibrational temperatures:     42.24    73.93   103.28   129.95   143.72
          (Kelvin)            155.48   183.24   208.79   222.98   303.30
                              323.61   338.44   420.49   482.91   496.93
                              497.86   548.02   597.44   649.30   661.25
                              720.21   739.21   778.24   827.06   842.88
                              868.38   905.96   946.20  1029.55  1084.16
                             1132.24  1307.18  1355.91  1363.54  1379.79
                             1419.29  1506.32  1519.82  1614.55  1672.95
                             1674.39  1738.32  1752.05  1779.21  1883.60
                             1924.99  1938.81  2038.91  2073.64  2116.57
                             2130.69  2152.20  2170.76  2173.96  2219.25
                             2286.99  2343.12  2443.86  2453.59  2476.18
                             3328.59  4374.51  4397.18  4448.88  4467.91
                             4533.00  4553.03  4554.62  4657.45  5070.66
                             5199.86  5224.30

 Zero-point correction=                           0.199790 (Hartree/Particle)
 Thermal correction to Energy=                    0.215726
 Thermal correction to Enthalpy=                  0.216670
 Thermal correction to Gibbs Free Energy=         0.155620
 Sum of electronic and zero-point Energies=          -1025.168886
 Sum of electronic and thermal Energies=             -1025.152951
 Sum of electronic and thermal Enthalpies=           -1025.152006
 Sum of electronic and thermal Free Energies=        -1025.213056

                     E (Thermal)             CV                S
                      KCal/Mol        Cal/Mol-Kelvin    Cal/Mol-Kelvin
 Total                  135.370             57.260            128.490
 Electronic               0.000              0.000              0.000
 Translational            0.889              2.981             42.083
 Rotational               0.889              2.981             32.586
 Vibrational            133.593             51.299             53.821
 Vibration     1          0.593              1.984              5.872
 Vibration     2          0.596              1.977              4.764
 Vibration     3          0.598              1.967              4.104
 Vibration     4          0.602              1.956              3.653
 Vibration     5          0.604              1.949              3.456
 Vibration     6          0.606              1.943              3.303
 Vibration     7          0.611              1.926              2.986
 Vibration     8          0.617              1.908              2.735
 Vibration     9          0.620              1.897              2.610
 Vibration    10          0.643              1.824              2.037
 Vibration    11          0.650              1.803              1.919
 Vibration    12          0.655              1.787              1.839
 Vibration    13          0.688              1.688              1.461
 Vibration    14          0.717              1.604              1.233
 Vibration    15          0.724              1.585              1.187
 Vibration    16          0.724              1.583              1.184
 Vibration    17          0.751              1.511              1.036
 Vibration    18          0.779              1.437              0.908
 Vibration    19          0.810              1.358              0.792
 Vibration    20          0.818              1.340              0.767
 Vibration    21          0.856              1.249              0.657
 Vibration    22          0.869              1.219              0.625
 Vibration    23          0.896              1.160              0.563
 Vibration    24          0.931              1.086              0.495
 Vibration    25          0.943              1.062              0.475
 Vibration    26          0.962              1.024              0.444

 Optimization completed.
    -- Stationary point found.
 Normal termination of Gaussian 16 at Thu Dec 10 14:56:53 2020.

 ----------------------------------------------------------------------
 # B3LYP/6-311++G(d,p) empiricaldispersion=gd3bj scf=xqc pop=npa geom=c
 heck
 ----------------------------------------------------------------------

 ------------------------------------
 CID_721976_JID_5095_Energie_neutraal
 ------------------------------------
 Structure from the checkpoint file:  "JID_5095.chk"
 Charge =  0 Multiplicity = 1

 SCF Done:  E(RB3LYP) =  -1025.57816033     A.U. after   17 cycles
 Normal termination of Gaussian 16 at Thu Dec 10 14:59:46 2020.

 ----------------------------------------------------------------------
 # B3LYP/6-311++G(d,p) empiricaldispersion=gd3bj scf=xqc pop=npa geom=c
 heck
 ----------------------------------------------------------------------

 ----------------------------------
 CID_721976_JID_5095_Energie_kation
 ----------------------------------
 Structure from the checkpoint file:  "JID_5095.chk"
 Charge =  1 Multiplicity = 2

 SCF Done:  E(UB3LYP) =  -1025.29710610     A.U. after   29 cycles
 Normal termination of Gaussian 16 at Thu Dec 10 15:06:41 2020.
 Gaussian 16:  ES64L-G16RevA.03 25-Dec-2016

 ----------------------------------------------------------------------
 # B3LYP/6-311++G(d,p) empiricaldispersion=gd3bj scf=xqc pop=npa geom=c
 heck
 ----------------------------------------------------------------------

 ---------------------------------
 CID_721976_JID_5095_Energie_anion
 ---------------------------------
 Structure from the checkpoint file:  "JID_5095.chk"
 Charge = -1 Multiplicity = 2

                         Standard orientation:
 ---------------------------------------------------------------------
 Center     Atomic      Atomic             Coordinates (Angstroms)
 Number     Number       Type             X           Y           Z
 ---------------------------------------------------------------------
      1          6           0       -3.999224   -1.485244   -0.314532
      2          7           0       -3.283605   -0.233359   -0.156253
      3          6           0       -1.945389   -0.146368   -0.036031
      4          6           0       -1.208223    1.036995    0.097992
      5          6           0        0.207080    0.807808    0.196830
      6          6           0        0.528522   -0.546809    0.148067
      7         16           0       -0.925789   -1.555066   -0.056040
      8          6           0        1.749754   -1.295831    0.299410
      9          8           0        1.750293   -2.523700    0.180309
     10          6           0        3.059904   -0.565858    0.619139
     11          6           0        3.680528    0.047541   -0.608798
     12          6           0        4.216569    1.270221   -0.667904
     13          7           0        1.084885    1.852225    0.351354
     14          6           0       -1.809698    2.314324    0.099141
     15          7           0       -2.318293    3.365409    0.091601
     16          1           0       -3.687025   -2.006906   -1.228147
     17          1           0       -5.067109   -1.272063   -0.379716
     18          1           0       -3.824453   -2.148130    0.541870
     19          1           0       -3.800598    0.635525   -0.157004
     20          1           0        2.910308    0.194519    1.394577
     21          1           0        3.725125   -1.340689    1.017374
     22          1           0        3.684827   -0.583839   -1.496977
     23          1           0        4.667164    1.652668   -1.579314
     24          1           0        4.257167    1.918728    0.206116
     25          1           0        0.685760    2.771339    0.201333
     26          1           0        1.999277    1.738903   -0.072751
 ---------------------------------------------------------------------

 SCF Done:  E(UB3LYP) =  -1025.58295956     A.U. after   33 cycles
 SCF Done:  E(UB3LYP) =  -1025.58337085     a.u. after    7 cycles

 The electronic state is 2-A.
 Alpha  occ. eigenvalues --  -88.74447 -18.93999 -14.23485 -14.20729 -14.19842
 Alpha  occ. eigenvalues --  -10.11989 -10.11018 -10.10168 -10.09800 -10.09428
 Alpha  occ. eigenvalues --  -10.07620 -10.07375 -10.06170 -10.05721 -10.05564
 Alpha  occ. eigenvalues --   -7.83033  -5.79373  -5.78990  -5.78548  -0.87862
 Alpha  occ. eigenvalues --   -0.85285  -0.81604  -0.79311  -0.73118  -0.69124
 Alpha  occ. eigenvalues --   -0.64703  -0.61656  -0.60301  -0.57140  -0.50560
 Alpha  occ. eigenvalues --   -0.48497  -0.45747  -0.45567  -0.41825  -0.39721
 Alpha  occ. eigenvalues --   -0.38366  -0.36352  -0.35548  -0.33544  -0.32657
 Alpha  occ. eigenvalues --   -0.31980  -0.30772  -0.30381  -0.29782  -0.26847
 Alpha  occ. eigenvalues --   -0.26206  -0.25847  -0.25346  -0.23867  -0.23398
 Alpha  occ. eigenvalues --   -0.22988  -0.22140  -0.21858  -0.16802  -0.16395
 Alpha  occ. eigenvalues --   -0.11173  -0.10672  -0.08006   0.04205
 Alpha virt. eigenvalues --    0.05950   0.07890   0.08742   0.09207   0.09731
 Alpha virt. eigenvalues --    0.09766   0.10419   0.10685   0.11318   0.11446
 Alpha virt. eigenvalues --    0.12057   0.12762   0.13139   0.14156   0.15038

  Beta  occ. eigenvalues --  -88.74429 -18.93694 -14.23348 -14.20661 -14.19887
  Beta  occ. eigenvalues --  -10.11563 -10.11002 -10.10149 -10.09496 -10.09143
  Beta  occ. eigenvalues --  -10.07558 -10.07484 -10.06092 -10.05747 -10.05655
  Beta  occ. eigenvalues --   -7.83016  -5.79372  -5.78982  -5.78480  -0.87282
  Beta  occ. eigenvalues --   -0.84898  -0.81365  -0.79343  -0.72898  -0.68952
  Beta  occ. eigenvalues --   -0.64633  -0.61407  -0.60068  -0.56950  -0.50211
  Beta  occ. eigenvalues --   -0.48101  -0.45584  -0.45353  -0.41644  -0.39564
  Beta  occ. eigenvalues --   -0.38185  -0.36197  -0.35163  -0.33305  -0.32449
  Beta  occ. eigenvalues --   -0.31857  -0.30643  -0.30174  -0.29239  -0.26705
  Beta  occ. eigenvalues --   -0.25942  -0.25632  -0.25154  -0.23743  -0.23258
  Beta  occ. eigenvalues --   -0.22058  -0.21807  -0.20886  -0.16346  -0.15749
  Beta  occ. eigenvalues --   -0.10908  -0.10414  -0.07089
  Beta virt. eigenvalues --    0.06676   0.07822   0.08667   0.09321   0.09738
  Beta virt. eigenvalues --    0.10225   0.10482   0.10745   0.11004   0.11260
  Beta virt. eigenvalues --    0.11676   0.12242   0.12742   0.13071   0.14083

 Mulliken charges and spin densities:
               1          2
     1  C    0.215444  -0.584455
     2  N   -0.169215   0.098203
     3  C   -0.827679   0.543950
     4  C    2.227929  -0.115432
     5  C   -0.701982   0.047472
     6  C    0.298716   0.031347
     7  S   -0.355728  -0.059746
     8  C    0.141422   0.091203
     9  O   -0.371496   0.112408
    10  C   -0.183257   0.007165
    11  C    0.113810  -0.018503
    12  C   -0.561924   0.156275
    13  N   -0.259452   0.031514
    14  C   -1.443304  -0.212314
    15  N   -0.265793  -0.024418
    16  H    0.103003   0.056348
    17  H   -0.521743   0.652375
    18  H    0.030562   0.133178
    19  H    0.335383   0.010500
    20  H    0.168148  -0.008569
    21  H    0.135151   0.056579
    22  H    0.179367  -0.011953
    23  H    0.099407   0.000657
    24  H    0.110489   0.001216
    25  H    0.270045   0.006772
    26  H    0.232698  -0.001771
 Sum of Mulliken charges =  -1.00000   1.00000

 Dipole moment (field-independent basis, Debye):
    X=              1.6641    Y=              1.5827    Z=             -0.5696  Tot=              2.3661
 Quadrupole moment (field-independent basis, Debye-Ang):
   XX=           -147.9304   YY=           -140.0214   ZZ=           -106.3814
   XY=             15.8968   XZ=             -2.1051   YZ=             -0.2706

 Summary of Natural Population Analysis:

                                       Natural Population
                Natural  -----------------------------------------------
    Atom  No    Charge         Core      Valence    Rydberg      Total
 -----------------------------------------------------------------------
      C    1   -0.18204      0.99966     2.17374    0.00864     3.18204
      N    2   -0.28611      0.99964     2.77568    0.01079     3.78611
      C    3    0.13440      0.99950     1.85008    0.01602     2.86560
      C    4   -0.20165      0.99934     2.19279    0.00951     3.20165
      C    5    0.16070      0.99942     1.82768    0.01220     2.83930
      C    6   -0.19373      0.99940     2.18408    0.01025     3.19373
      S    7    0.20118      4.99945     2.77846    0.02091     7.79882
      C    8    0.28388      0.99955     1.69535    0.02122     2.71612
      O    9   -0.29419      0.99988     3.28828    0.00603     4.29419
      C   10   -0.24887      0.99958     2.23906    0.01022     3.24887
      C   11   -0.06274      0.99957     2.05442    0.00875     3.06274
      C   12   -0.21032      0.99957     2.20306    0.00769     3.21032
      N   13   -0.38986      0.99969     2.88170    0.00846     3.88986
      C   14    0.15305      0.99964     1.82791    0.01940     2.84695
      N   15   -0.22415      0.99979     2.71320    0.01115     3.72415
      H   16    0.09421      0.00000     0.40441    0.00138     0.40579
      H   17    0.09966      0.00000     0.39895    0.00139     0.40034
      H   18    0.09656      0.00000     0.40201    0.00143     0.40344
      H   19    0.19477      0.00000     0.30275    0.00248     0.30523
      H   20    0.10472      0.00000     0.39418    0.00109     0.39528
      H   21    0.11312      0.00000     0.38444    0.00244     0.38688
      H   22    0.09430      0.00000     0.40461    0.00109     0.40570
      H   23    0.09048      0.00000     0.40843    0.00109     0.40952
      H   24    0.08825      0.00000     0.41064    0.00111     0.41175
      H   25    0.18604      0.00000     0.31269    0.00128     0.31396
      H   26    0.19833      0.00000     0.29995    0.00173     0.30167
 =======================================================================
   * Total *   -0.00000     18.99368    38.80857    0.19775    58.00000

 Normal termination of Gaussian 16 at Thu Dec 10 16:00:12 2020.
