 Gaussian 16, Revision A.03,

 -----------------------------------------------------------
 # opt freq B3LYP/6-31G(d) empiricaldispersion=gd3bj scf=xqc
 -----------------------------------------------------------

 ------------------------------
 CID_61625121_JID_8228_neutraal
 ------------------------------
 Symbolic Z-matrix:
 Charge =  0 Multiplicity = 1

 SCF Done:  E(RB3LYP) =  -1146.94049769     A.U. after   15 cycles
 SCF Done:  E(RB3LYP) =  -1146.94972464     A.U. after   13 cycles
 SCF Done:  E(RB3LYP) =  -1146.95031757     A.U. after   13 cycles
 SCF Done:  E(RB3LYP) =  -1146.95084357     A.U. after   13 cycles
 SCF Done:  E(RB3LYP) =  -1146.95132073     A.U. after   12 cycles
 SCF Done:  E(RB3LYP) =  -1146.95132287     A.U. after   12 cycles
 SCF Done:  E(RB3LYP) =  -1146.95145782     A.U. after   12 cycles
 SCF Done:  E(RB3LYP) =  -1146.95159868     A.U. after   11 cycles
 SCF Done:  E(RB3LYP) =  -1146.95165804     A.U. after   11 cycles
 SCF Done:  E(RB3LYP) =  -1146.95169802     A.U. after   11 cycles
 SCF Done:  E(RB3LYP) =  -1146.95187788     A.U. after    7 cycles
 SCF Done:  E(RB3LYP) =  -1146.95187791     A.U. after    7 cycles
 SCF Done:  E(RB3LYP) =  -1146.95187793     A.U. after    7 cycles
 SCF Done:  E(RB3LYP) =  -1146.95187795     A.U. after    7 cycles
 SCF Done:  E(RB3LYP) =  -1146.95187796     A.U. after    7 cycles
 Optimization completed.
    -- Stationary point found.
 Normal termination of Gaussian 16 at Fri Dec 11 19:56:38 2020.

 --------------------------------------------------------------------
 #N Geom=AllCheck Guess=TCheck SCRF=Check GenChk RB3LYP/6-31G(d) Freq
 --------------------------------------------------------------------

 Structure from the checkpoint file:  "JID_8228.chk"
 ------------------------------
 CID_61625121_JID_8228_neutraal
 ------------------------------
 Charge =  0 Multiplicity = 1

 SCF Done:  E(RB3LYP) =  -1146.95187796     A.U. after    1 cycles

  Exact polarizability: 229.966   0.413 161.116  10.347 -15.045 138.589
 Approx polarizability: 290.287  -1.344 251.499  16.105 -43.439 231.638

                      1                      2                      3
                      A                      A                      A
 Frequencies --     10.1941                23.1723                33.2109
 Red. masses --      4.8928                 4.2121                 3.8565
 Frc consts  --      0.0003                 0.0013                 0.0025
 IR Inten    --      1.0231                 1.2429                 0.7168

                      4                      5                      6
                      A                      A                      A
 Frequencies --     53.2764                62.4477                70.8986
 Red. masses --      2.9716                 2.1940                 2.2077
 Frc consts  --      0.0050                 0.0050                 0.0065
 IR Inten    --      1.5081                 0.0382                 0.0999

                      7                      8                      9
                      A                      A                      A
 Frequencies --     95.1477               106.2578               111.9260
 Red. masses --      4.1759                 2.5479                 1.1303
 Frc consts  --      0.0223                 0.0169                 0.0083
 IR Inten    --      1.1229                 1.3842                 0.3834

                     10                     11                     12
                      A                      A                      A
 Frequencies --    126.6456               136.2702               148.6512
 Red. masses --      2.0365                 1.7238                 2.3404
 Frc consts  --      0.0192                 0.0189                 0.0305
 IR Inten    --      2.3016                 2.1955                 2.5611

                     13                     14                     15
                      A                      A                      A
 Frequencies --    165.6384               177.7225               190.2984
 Red. masses --      3.4543                 2.3255                 2.1137
 Frc consts  --      0.0558                 0.0433                 0.0451
 IR Inten    --      0.9477                 8.1032                 7.3840

                     16                     17                     18
                      A                      A                      A
 Frequencies --    216.2150               239.9151               250.5171
 Red. masses --      1.5084                 2.1093                 1.9175
 Frc consts  --      0.0415                 0.0715                 0.0709
 IR Inten    --      3.1041                 7.4315                15.0376

                     19                     20                     21
                      A                      A                      A
 Frequencies --    269.9837               293.4535               309.3086
 Red. masses --      1.8444                 2.2208                 3.2264
 Frc consts  --      0.0792                 0.1127                 0.1819
 IR Inten    --     17.7306                21.9618                 5.9992

                     22                     23                     24
                      A                      A                      A
 Frequencies --    332.5319               355.6154               376.7723
 Red. masses --      3.2285                 3.6286                 3.5026
 Frc consts  --      0.2103                 0.2704                 0.2930
 IR Inten    --      0.3591                 5.8930                10.8009

                     25                     26                     27
                      A                      A                      A
 Frequencies --    413.1292               428.4198               436.6111
 Red. masses --      3.0845                 3.5763                 3.2078
 Frc consts  --      0.3102                 0.3867                 0.3603
 IR Inten    --      2.6964                 2.7666                 7.1064

                     28                     29                     30
                      A                      A                      A
 Frequencies --    479.4421               537.5085               553.7571
 Red. masses --      2.2401                 4.2214                 3.4696
 Frc consts  --      0.3034                 0.7186                 0.6269
 IR Inten    --      1.1889                 9.1399                 2.4983

                     31                     32                     33
                      A                      A                      A
 Frequencies --    582.0207               603.5007               610.3168
 Red. masses --      4.4907                 3.5549                 3.5762
 Frc consts  --      0.8963                 0.7628                 0.7848
 IR Inten    --     12.6055                 4.9111                 7.2692

                     34                     35                     36
                      A                      A                      A
 Frequencies --    655.2484               677.0741               699.8941
 Red. masses --      4.8299                 5.5354                 4.3200
 Frc consts  --      1.2218                 1.4951                 1.2468
 IR Inten    --      6.0714                 1.9564                 2.3571

                     37                     38                     39
                      A                      A                      A
 Frequencies --    756.1629               793.1055               808.6532
 Red. masses --      4.9566                 2.0080                 1.2931
 Frc consts  --      1.6698                 0.7442                 0.4982
 IR Inten    --      1.3285                19.1134                29.3797

                     40                     41                     42
                      A                      A                      A
 Frequencies --    820.2425               842.5989               873.6798
 Red. masses --      1.5731                 3.2031                 1.3784
 Frc consts  --      0.6236                 1.3399                 0.6199
 IR Inten    --      3.5788                13.4103                66.3849

                     43                     44                     45
                      A                      A                      A
 Frequencies --    889.3508               930.4231               962.8768
 Red. masses --      1.4140                 1.8353                 2.7605
 Frc consts  --      0.6590                 0.9361                 1.5079
 IR Inten    --     35.8857                16.4549                 6.3159

                     46                     47                     48
                      A                      A                      A
 Frequencies --    989.2365              1001.4741              1010.3289
 Red. masses --      2.4270                 1.7013                 2.1392
 Frc consts  --      1.3993                 1.0054                 1.2866
 IR Inten    --      6.9770                10.0249                 7.5016

                     49                     50                     51
                      A                      A                      A
 Frequencies --   1053.2034              1072.5246              1074.8129
 Red. masses --      2.7720                 1.3942                 1.4600
 Frc consts  --      1.8116                 0.9449                 0.9937
 IR Inten    --     16.2110                 2.5803                14.6322

                     52                     53                     54
                      A                      A                      A
 Frequencies --   1085.4182              1086.0026              1108.6944
 Red. masses --      1.4994                 2.0920                 2.0024
 Frc consts  --      1.0408                 1.4537                 1.4502
 IR Inten    --     24.5383                80.0676                33.1289

                     55                     56                     57
                      A                      A                      A
 Frequencies --   1123.3078              1138.7335              1144.6492
 Red. masses --      2.2853                 1.2271                 2.0679
 Frc consts  --      1.6990                 0.9375                 1.5963
 IR Inten    --     19.0536                 1.3881                15.4539

                     58                     59                     60
                      A                      A                      A
 Frequencies --   1155.1257              1186.7396              1187.2504
 Red. masses --      1.7745                 1.5856                 3.0106
 Frc consts  --      1.3950                 1.3157                 2.5003
 IR Inten    --     80.0627                 7.6982                 5.6702

                     61                     62                     63
                      A                      A                      A
 Frequencies --   1202.4628              1222.3820              1236.8965
 Red. masses --      2.5989                 1.7840                 1.6730
 Frc consts  --      2.2141                 1.5705                 1.5081
 IR Inten    --     30.4211                12.6746                27.4375

                     64                     65                     66
                      A                      A                      A
 Frequencies --   1257.4380              1287.6176              1311.3739
 Red. masses --      1.5311                 4.8228                 1.3968
 Frc consts  --      1.4263                 4.7111                 1.4152
 IR Inten    --      5.4623                39.9884                 1.4950

                     67                     68                     69
                      A                      A                      A
 Frequencies --   1317.5352              1358.0641              1375.0165
 Red. masses --      1.3444                 1.5187                 1.3040
 Frc consts  --      1.3750                 1.6503                 1.4526
 IR Inten    --     15.3238                11.6449                10.1941

                     70                     71                     72
                      A                      A                      A
 Frequencies --   1380.2972              1382.9287              1414.3778
 Red. masses --      1.6305                 1.3446                 1.3697
 Frc consts  --      1.8302                 1.5151                 1.6144
 IR Inten    --      1.9804                13.5284                 6.4209

                     73                     74                     75
                      A                      A                      A
 Frequencies --   1423.2669              1437.4486              1443.8663
 Red. masses --      1.3958                 1.4489                 1.2499
 Frc consts  --      1.6659                 1.7639                 1.5353
 IR Inten    --      5.6419                40.1945                 6.7710

                     76                     77                     78
                      A                      A                      A
 Frequencies --   1444.4585              1449.5217              1453.5950
 Red. masses --      1.4198                 1.3919                 1.5230
 Frc consts  --      1.7454                 1.7231                 1.8960
 IR Inten    --     62.6695                 2.6111                69.0223

                     79                     80                     81
                      A                      A                      A
 Frequencies --   1489.0711              1507.1484              1508.0129
 Red. masses --      1.2010                 1.0605                 1.0425
 Frc consts  --      1.5690                 1.4193                 1.3969
 IR Inten    --     12.4096                 9.2843                 7.2720

                     82                     83                     84
                      A                      A                      A
 Frequencies --   1515.7893              1521.1093              1522.7554
 Red. masses --      1.0546                 1.1523                 1.0548
 Frc consts  --      1.4276                 1.5708                 1.4411
 IR Inten    --      0.4880                 6.8712                 8.7950

                     85                     86                     87
                      A                      A                      A
 Frequencies --   1526.2612              1532.4668              1534.4120
 Red. masses --      1.0484                 1.0621                 1.0925
 Frc consts  --      1.4388                 1.4695                 1.5156
 IR Inten    --      2.3651                17.7945                 4.8292

                     88                     89                     90
                      A                      A                      A
 Frequencies --   1537.8672              1542.3904              1558.1478
 Red. masses --      1.0747                 1.0878                 4.6457
 Frc consts  --      1.4975                 1.5248                 6.6454
 IR Inten    --      5.5400                 8.7581                 9.2704

                     91                     92                     93
                      A                      A                      A
 Frequencies --   1565.5027              1626.8684              1688.0616
 Red. masses --      1.2081                 5.3630                 1.0892
 Frc consts  --      1.7445                 8.3630                 1.8286
 IR Inten    --     24.6541                 0.5051                27.6043

                     94                     95                     96
                      A                      A                      A
 Frequencies --   1737.0598              2961.1221              2972.4422
 Red. masses --      9.1268                 1.0717                 1.0750
 Frc consts  --     16.2256                 5.5367                 5.5961
 IR Inten    --    263.1220                46.3189                72.3231

                     97                     98                     99
                      A                      A                      A
 Frequencies --   3024.9298              3034.7380              3042.1505
 Red. masses --      1.0462                 1.0426                 1.0365
 Frc consts  --      5.6403                 5.6574                 5.6518
 IR Inten    --     39.7165               105.2131                43.4642

                    100                    101                    102
                      A                      A                      A
 Frequencies --   3050.4361              3075.7986              3082.9278
 Red. masses --      1.0366                 1.0977                 1.1028
 Frc consts  --      5.6831                 6.1187                 6.1757
 IR Inten    --     22.4422                41.3500                24.2017

                    103                    104                    105
                      A                      A                      A
 Frequencies --   3086.2847              3092.5026              3104.2818
 Red. masses --      1.0605                 1.1017                 1.0964
 Frc consts  --      5.9515                 6.2078                 6.2250
 IR Inten    --     28.4451                18.4500                16.0176

                    106                    107                    108
                      A                      A                      A
 Frequencies --   3109.8423              3123.5662              3126.2014
 Red. masses --      1.0845                 1.0906                 1.1006
 Frc consts  --      6.1797                 6.2692                 6.3374
 IR Inten    --      5.7159                36.7606                14.9776

                    109                    110                    111
                      A                      A                      A
 Frequencies --   3129.8024              3131.1744              3137.6537
 Red. masses --      1.1044                 1.0900                 1.1019
 Frc consts  --      6.3740                 6.2962                 6.3914
 IR Inten    --     21.6009                12.6051                49.1726

                    112                    113                    114
                      A                      A                      A
 Frequencies --   3197.6695              3206.3584              3213.4190
 Red. masses --      1.0959                 1.0897                 1.0911
 Frc consts  --      6.6025                 6.6005                 6.6380
 IR Inten    --      1.0161                14.9683                11.0521

                    115                    116                    117
                      A                      A                      A
 Frequencies --   3223.3255              3469.3349              3556.8505
 Red. masses --      1.0962                 1.0495                 1.0926
 Frc consts  --      6.7106                 7.4429                 8.1438
 IR Inten    --      7.7651                 2.9217                 0.4428

 - Thermochemistry -
 -------------------
 Temperature   298.150 Kelvin.  Pressure   1.00000 Atm.
 Atom     1 has atomic number  6 and mass  12.00000

 Molecular mass:   269.15618 amu.
 Principal axes and moments of inertia in atomic units:
                           1         2         3
     Eigenvalues --  2322.514458977.79638**********
           X            0.99995  -0.00829   0.00489
           Y            0.00823   0.99989   0.01244
           Z           -0.00499  -0.01240   0.99991
 This molecule is an asymmetric top.
 Rotational symmetry number  1.
 Warning -- assumption of classical behavior for rotation
           may cause significant error
 Rotational temperatures (Kelvin)      0.03729     0.00965     0.00857
 Rotational constants (GHZ):           0.77706     0.20102     0.17863
 Zero-point vibrational energy     935431.1 (Joules/Mol)
                                  223.57341 (Kcal/Mol)
 Warning -- explicit consideration of  33 degrees of freedom as
           vibrations may cause significant error
 Vibrational temperatures:     14.67    33.34    47.78    76.65    89.85
          (Kelvin)            102.01   136.90   152.88   161.04   182.21
                              196.06   213.88   238.32   255.70   273.80
                              311.09   345.18   360.44   388.45   422.21
                              445.03   478.44   511.65   542.09   594.40
                              616.40   628.19   689.81   773.35   796.73
                              837.40   868.30   878.11   942.76   974.16
                             1006.99  1087.95  1141.10  1163.47  1180.15
                             1212.31  1257.03  1279.58  1338.67  1385.36
                             1423.29  1440.90  1453.64  1515.32  1543.12
                             1546.42  1561.67  1562.52  1595.16  1616.19
                             1638.38  1646.89  1661.97  1707.45  1708.19
                             1730.08  1758.74  1779.62  1809.17  1852.59
                             1886.77  1895.64  1953.95  1978.34  1985.94
                             1989.73  2034.97  2047.76  2068.17  2077.40
                             2078.25  2085.54  2091.40  2142.44  2168.45
                             2169.69  2180.88  2188.54  2190.91  2195.95
                             2204.88  2207.68  2212.65  2219.16  2241.83
                             2252.41  2340.70  2428.74  2499.24  4260.39
                             4276.68  4352.20  4366.31  4376.98  4388.90
                             4425.39  4435.65  4440.48  4449.42  4466.37
                             4474.37  4494.12  4497.91  4503.09  4505.06
                             4514.38  4600.73  4613.23  4623.39  4637.65
                             4991.60  5117.51

 Zero-point correction=                           0.356287 (Hartree/Particle)
 Thermal correction to Energy=                    0.377637
 Thermal correction to Enthalpy=                  0.378581
 Thermal correction to Gibbs Free Energy=         0.303256
 Sum of electronic and zero-point Energies=          -1146.595591
 Sum of electronic and thermal Energies=             -1146.574241
 Sum of electronic and thermal Enthalpies=           -1146.573297
 Sum of electronic and thermal Free Energies=        -1146.648622

                     E (Thermal)             CV                S
                      KCal/Mol        Cal/Mol-Kelvin    Cal/Mol-Kelvin
 Total                  236.971             76.499            158.534
 Electronic               0.000              0.000              0.000
 Translational            0.889              2.981             42.669
 Rotational               0.889              2.981             33.710
 Vibrational            235.193             70.537             82.155
 Vibration     1          0.593              1.987              7.973
 Vibration     2          0.593              1.985              6.342
 Vibration     3          0.594              1.983              5.628
 Vibration     4          0.596              1.976              4.692
 Vibration     5          0.597              1.972              4.378
 Vibration     6          0.598              1.968              4.128
 Vibration     7          0.603              1.953              3.551
 Vibration     8          0.605              1.944              3.336
 Vibration     9          0.607              1.940              3.235
 Vibration    10          0.611              1.926              2.996
 Vibration    11          0.614              1.917              2.856
 Vibration    12          0.618              1.904              2.689
 Vibration    13          0.624              1.885              2.484
 Vibration    14          0.628              1.870              2.352
 Vibration    15          0.634              1.853              2.225
 Vibration    16          0.645              1.816              1.991
 Vibration    17          0.657              1.779              1.804
 Vibration    18          0.663              1.762              1.727
 Vibration    19          0.674              1.728              1.596
 Vibration    20          0.688              1.686              1.454
 Vibration    21          0.699              1.656              1.366
 Vibration    22          0.714              1.611              1.248
 Vibration    23          0.731              1.564              1.141
 Vibration    24          0.747              1.520              1.052
 Vibration    25          0.777              1.442              0.916
 Vibration    26          0.790              1.408              0.864
 Vibration    27          0.797              1.390              0.837
 Vibration    28          0.836              1.296              0.712
 Vibration    29          0.893              1.167              0.571
 Vibration    30          0.909              1.131              0.536
 Vibration    31          0.939              1.070              0.482
 Vibration    32          0.962              1.024              0.444
 Vibration    33          0.969              1.010              0.432

                           ! Non-Optimized Parameters !
 Normal termination of Gaussian 16 at Fri Dec 11 20:16:04 2020.

 ----------------------------------------------------------------------
 # B3LYP/6-311++G(d,p) empiricaldispersion=gd3bj scf=xqc pop=npa geom=c
 heck
 ----------------------------------------------------------------------

 --------------------------------------
 CID_61625121_JID_8228_Energie_neutraal
 --------------------------------------
 Structure from the checkpoint file:  "JID_8228.chk"
 Charge =  0 Multiplicity = 1

 SCF Done:  E(RB3LYP) =  -1147.19541223     A.U. after   15 cycles
 Normal termination of Gaussian 16 at Fri Dec 11 20:24:03 2020.

 ----------------------------------------------------------------------
 # B3LYP/6-311++G(d,p) empiricaldispersion=gd3bj scf=xqc pop=npa geom=c
 heck
 ----------------------------------------------------------------------

 ------------------------------------
 CID_61625121_JID_8228_Energie_kation
 ------------------------------------
 Structure from the checkpoint file:  "JID_8228.chk"
 Charge =  1 Multiplicity = 2

 SCF Done:  E(UB3LYP) =  -1146.93131545     A.U. after   28 cycles
 Normal termination of Gaussian 16 at Fri Dec 11 20:44:02 2020.
 Gaussian 16:  ES64L-G16RevA.03 25-Dec-2016

 ----------------------------------------------------------------------
 # B3LYP/6-311++G(d,p) empiricaldispersion=gd3bj scf=xqc pop=npa geom=c
 heck
 ----------------------------------------------------------------------

 -----------------------------------
 CID_61625121_JID_8228_Energie_anion
 -----------------------------------
 Structure from the checkpoint file:  "JID_8228.chk"
 Charge = -1 Multiplicity = 2

                         Standard orientation:
 ---------------------------------------------------------------------
 Center     Atomic      Atomic             Coordinates (Angstroms)
 Number     Number       Type             X           Y           Z
 ---------------------------------------------------------------------
      1          6           0       -0.589365    2.884966   -0.207270
      2          6           0       -0.708068    1.432076   -0.671928
      3          7           0       -0.559320    0.485876    0.430247
      4          6           0       -1.723926    0.339280    1.289769
      5          6           0       -2.861052   -0.489549    0.664238
      6          8           0       -2.765406   -1.717302    0.675669
      7          7           0       -3.910044    0.141763    0.038924
      8          6           0       -4.197805    1.565087    0.056097
      9          6           0       -4.946700   -0.677333   -0.574219
     10          6           0        0.229551   -0.735667    0.198972
     11          6           0       -0.068803   -1.485153   -1.118260
     12          7           0        0.677405   -2.745078   -1.134361
     13          6           0        1.708608   -0.475243    0.363989
     14          6           0        2.554817   -1.068206    1.259258
     15          6           0        3.915164   -0.642176    1.139658
     16          6           0        4.117437    0.273589    0.145334
     17         16           0        2.606772    0.623917   -0.670350
     18          6           0        5.391009    0.949489   -0.260256
     19          1           0       -1.349947    3.147258    0.537038
     20          1           0       -0.705574    3.571411   -1.054063
     21          1           0        0.391606    3.047762    0.248795
     22          1           0       -1.651879    1.281276   -1.224317
     23          1           0        0.087958    1.244859   -1.395779
     24          1           0       -1.425989   -0.214001    2.184344
     25          1           0       -2.043835    1.329700    1.621436
     26          1           0       -4.423177    1.909169   -0.960819
     27          1           0       -5.072044    1.781671    0.686766
     28          1           0       -3.353334    2.142102    0.422871
     29          1           0       -4.624781   -1.716572   -0.544344
     30          1           0       -5.895728   -0.572361   -0.031094
     31          1           0       -5.107339   -0.363456   -1.612977
     32          1           0       -0.039737   -1.437401    0.992070
     33          1           0       -1.135321   -1.720754   -1.136213
     34          1           0        0.150854   -0.827446   -1.977513
     35          1           0        0.431735   -3.277103   -1.966751
     36          1           0        1.674824   -2.546652   -1.196883
     37          1           0        2.210524   -1.799409    1.982815
     38          1           0        4.718521   -1.002809    1.774277
     39          1           0        6.215248    0.584258    0.360333
     40          1           0        5.646077    0.751314   -1.308508
     41          1           0        5.334763    2.038054   -0.137200
 ---------------------------------------------------------------------

 SCF Done:  E(UB3LYP) =  -1147.18584906     A.U. after   33 cycles
 SCF Done:  E(UB3LYP) =  -1147.18584906     a.u. after    1 cycles

 The electronic state is 2-A.
 Alpha  occ. eigenvalues --  -88.78126 -18.99257 -14.25695 -14.21830 -14.20609
 Alpha  occ. eigenvalues --  -10.17649 -10.12061 -10.11785 -10.11421 -10.11129
 Alpha  occ. eigenvalues --  -10.10961 -10.10658 -10.10352 -10.09913 -10.09354
 Alpha  occ. eigenvalues --  -10.08551 -10.08443 -10.06852  -7.86769  -5.83055
 Alpha  occ. eigenvalues --   -5.82692  -5.82357  -0.94618  -0.84538  -0.84191
 Alpha  occ. eigenvalues --   -0.79695  -0.78791  -0.69339  -0.66987  -0.65870
 Alpha  occ. eigenvalues --   -0.64123  -0.63214  -0.61108  -0.58847  -0.57611
 Alpha  occ. eigenvalues --   -0.53716  -0.49518  -0.45701  -0.45449  -0.45079
 Alpha  occ. eigenvalues --   -0.42589  -0.40759  -0.40708  -0.39725  -0.38777
 Alpha  occ. eigenvalues --   -0.38040  -0.36907  -0.35931  -0.34448  -0.34302
 Alpha  occ. eigenvalues --   -0.33290  -0.32749  -0.32144  -0.31256  -0.31179
 Alpha  occ. eigenvalues --   -0.31032  -0.30398  -0.29696  -0.29267  -0.28804
 Alpha  occ. eigenvalues --   -0.28488  -0.27406  -0.26920  -0.26270  -0.26106
 Alpha  occ. eigenvalues --   -0.24720  -0.24313  -0.17600  -0.16563  -0.15947
 Alpha  occ. eigenvalues --   -0.15484  -0.13979  -0.11717   0.03707
 Alpha virt. eigenvalues --    0.04909   0.06121   0.06737   0.06995   0.07259
 Alpha virt. eigenvalues --    0.07511   0.08301   0.09021   0.09149   0.09301
 Alpha virt. eigenvalues --    0.09850   0.10213   0.10410   0.10944   0.11359

  Beta  occ. eigenvalues --  -88.78121 -18.99255 -14.25693 -14.21826 -14.20603
  Beta  occ. eigenvalues --  -10.17646 -10.12062 -10.11772 -10.11412 -10.11070
  Beta  occ. eigenvalues --  -10.10948 -10.10649 -10.10318 -10.09908 -10.09319
  Beta  occ. eigenvalues --  -10.08545 -10.08439 -10.06828  -7.86763  -5.83051
  Beta  occ. eigenvalues --   -5.82688  -5.82348  -0.94615  -0.84525  -0.84178
  Beta  occ. eigenvalues --   -0.79680  -0.78773  -0.69310  -0.66964  -0.65843
  Beta  occ. eigenvalues --   -0.64096  -0.63150  -0.61058  -0.58807  -0.57576
  Beta  occ. eigenvalues --   -0.53684  -0.49488  -0.45666  -0.45400  -0.45052
  Beta  occ. eigenvalues --   -0.42571  -0.40736  -0.40685  -0.39697  -0.38740
  Beta  occ. eigenvalues --   -0.38009  -0.36881  -0.35911  -0.34402  -0.34275
  Beta  occ. eigenvalues --   -0.33265  -0.32724  -0.32120  -0.31224  -0.31132
  Beta  occ. eigenvalues --   -0.30995  -0.30366  -0.29674  -0.29248  -0.28772
  Beta  occ. eigenvalues --   -0.28456  -0.27386  -0.26895  -0.26249  -0.26090
  Beta  occ. eigenvalues --   -0.24707  -0.24292  -0.17592  -0.16531  -0.15934
  Beta  occ. eigenvalues --   -0.15463  -0.13917  -0.11702
  Beta virt. eigenvalues --    0.05507   0.06043   0.06366   0.06968   0.07351
  Beta virt. eigenvalues --    0.07544   0.08114   0.08591   0.09244   0.09360
  Beta virt. eigenvalues --    0.09495   0.10211   0.10426   0.10568   0.11121

 Mulliken charges and spin densities:
               1          2
     1  C    0.476763  -0.896917
     2  C   -0.782844   0.453779
     3  N    0.475778   0.000681
     4  C    0.062592  -0.285948
     5  C   -0.665126   0.454705
     6  O   -0.301139  -0.004979
     7  N   -0.135256   0.223657
     8  C    1.211372  -1.529657
     9  C    0.555029  -0.796334
    10  C   -0.166911  -0.246180
    11  C   -0.497802   0.019820
    12  N   -0.328841   0.015249
    13  C   -0.150682   0.235729
    14  C   -0.015589   0.016496
    15  C   -0.134226   0.090131
    16  C   -1.562486   1.568412
    17  S   -0.030324  -0.474188
    18  C    1.896312  -2.441345
    19  H   -0.065700   0.188960
    20  H   -0.134574   0.273666
    21  H    0.016687   0.125001
    22  H    0.130295   0.028914
    23  H    0.030683   0.044757
    24  H    0.103643   0.088188
    25  H    0.090702   0.039648
    26  H   -0.430699   0.605917
    27  H   -0.518625   0.684411
    28  H   -0.139948   0.229831
    29  H    0.038440   0.138308
    30  H   -0.135580   0.289563
    31  H   -0.226424   0.371634
    32  H    0.234783  -0.041473
    33  H    0.293785  -0.066489
    34  H   -0.058590   0.195740
    35  H    0.165632   0.071958
    36  H    0.250100   0.000067
    37  H    0.126871   0.013637
    38  H   -0.112108   0.267343
    39  H   -0.298711   0.451383
    40  H   -0.073284   0.230585
    41  H   -0.193997   0.365339
 Sum of Mulliken charges =  -1.00000   1.00000

 Dipole moment (field-independent basis, Debye):
    X=              3.8178    Y=             -3.3094    Z=              0.0723  Tot=              5.0530
 Quadrupole moment (field-independent basis, Debye-Ang):
   XX=           -244.3091   YY=           -170.2667   ZZ=           -146.4687
   XY=              3.1671   XZ=             -3.3006   YZ=              4.4952

 Summary of Natural Population Analysis:

                                       Natural Population
                Natural  -----------------------------------------------
    Atom  No    Charge         Core      Valence    Rydberg      Total
 -----------------------------------------------------------------------
      C    1   -0.28749      0.99966     2.28240    0.00543     3.28749
      C    2   -0.09032      0.99961     2.07956    0.01115     3.09032
      N    3   -0.27763      0.99970     2.76414    0.01380     3.77763
      C    4   -0.11568      0.99956     2.10491    0.01120     3.11568
      C    5    0.33365      0.99964     1.64348    0.02324     2.66635
      O    6   -0.33440      0.99988     3.32917    0.00535     4.33440
      N    7   -0.25063      0.99966     2.74045    0.01052     3.75063
      C    8   -0.17465      0.99962     2.16675    0.00828     3.17465
      C    9   -0.18076      0.99963     2.17290    0.00823     3.18076
      C   10   -0.02233      0.99950     2.00780    0.01503     3.02233
      C   11   -0.09836      0.99960     2.08728    0.01148     3.09836
      N   12   -0.41894      0.99977     2.91066    0.00851     3.91894
      C   13   -0.08854      0.99946     2.07496    0.01413     3.08854
      C   14   -0.12677      0.99945     2.11726    0.01006     3.12677
      C   15   -0.13300      0.99946     2.12297    0.01057     3.13300
      C   16   -0.09413      0.99951     2.08241    0.01221     3.09413
      S   17    0.19491      4.99936     2.78654    0.01919     7.80509
      C   18   -0.29947      0.99961     2.29315    0.00671     3.29947
      H   19    0.09367      0.00000     0.40505    0.00128     0.40633
      H   20    0.09899      0.00000     0.40014    0.00087     0.40101
      H   21    0.10268      0.00000     0.39610    0.00122     0.39732
      H   22    0.08612      0.00000     0.41185    0.00204     0.41388
      H   23    0.09627      0.00000     0.40166    0.00207     0.40373
      H   24    0.10579      0.00000     0.39322    0.00098     0.39421
      H   25    0.09933      0.00000     0.39944    0.00123     0.40067
      H   26    0.09936      0.00000     0.39811    0.00254     0.40064
      H   27    0.09632      0.00000     0.40126    0.00241     0.40368
      H   28    0.10160      0.00000     0.39680    0.00160     0.39840
      H   29    0.11523      0.00000     0.38365    0.00112     0.38477
      H   30    0.09381      0.00000     0.40500    0.00119     0.40619
      H   31    0.09538      0.00000     0.40347    0.00116     0.40462
      H   32    0.11584      0.00000     0.38210    0.00206     0.38416
      H   33    0.10556      0.00000     0.39317    0.00126     0.39444
      H   34    0.07703      0.00000     0.42112    0.00185     0.42297
      H   35    0.17302      0.00000     0.32556    0.00142     0.32698
      H   36    0.17543      0.00000     0.32287    0.00170     0.32457
      H   37    0.10721      0.00000     0.39185    0.00094     0.39279
      H   38    0.10482      0.00000     0.39431    0.00087     0.39518
      H   39    0.10811      0.00000     0.39061    0.00129     0.39189
      H   40    0.10483      0.00000     0.39414    0.00103     0.39517
      H   41    0.10813      0.00000     0.39047    0.00140     0.39187
 =======================================================================
   * Total *    0.00000     21.99267    50.76872    0.23861    73.00000

 Normal termination of Gaussian 16 at Fri Dec 11 21:08:01 2020.
