 Gaussian 16, Revision A.03,

 -----------------------------------------------------------
 # opt freq B3LYP/6-31G(d) empiricaldispersion=gd3bj scf=xqc
 -----------------------------------------------------------

 -------------------------------
 CID_154673379_JID_1171_neutraal
 -------------------------------
 Symbolic Z-matrix:
 Charge =  0 Multiplicity = 1

 SCF Done:  E(RB3LYP) =  -446.056096615     A.U. after   14 cycles
 SCF Done:  E(RB3LYP) =  -446.059753858     A.U. after   12 cycles
 SCF Done:  E(RB3LYP) =  -446.060299068     A.U. after   12 cycles
 SCF Done:  E(RB3LYP) =  -446.060640898     A.U. after   11 cycles
 SCF Done:  E(RB3LYP) =  -446.060904534     A.U. after   12 cycles
 SCF Done:  E(RB3LYP) =  -446.061030237     A.U. after   11 cycles
 SCF Done:  E(RB3LYP) =  -446.061144093     A.U. after   11 cycles
 SCF Done:  E(RB3LYP) =  -446.061202724     A.U. after   11 cycles
 SCF Done:  E(RB3LYP) =  -446.061182718     A.U. after   10 cycles
 SCF Done:  E(RB3LYP) =  -446.061244174     A.U. after   11 cycles
 SCF Done:  E(RB3LYP) =  -446.061242924     A.U. after   10 cycles
 SCF Done:  E(RB3LYP) =  -446.061257741     A.U. after   11 cycles
 SCF Done:  E(RB3LYP) =  -446.061258441     A.U. after    8 cycles
 SCF Done:  E(RB3LYP) =  -446.061258539     A.U. after    8 cycles
 SCF Done:  E(RB3LYP) =  -446.061258577     A.U. after    7 cycles
 Optimization completed.
    -- Stationary point found.
 Normal termination of Gaussian 16 at Tue Dec  8 19:18:31 2020.

 --------------------------------------------------------------------
 #N Geom=AllCheck Guess=TCheck SCRF=Check GenChk RB3LYP/6-31G(d) Freq
 --------------------------------------------------------------------

 Structure from the checkpoint file:  "JID_1171.chk"
 -------------------------------
 CID_154673379_JID_1171_neutraal
 -------------------------------
 Charge =  0 Multiplicity = 1

 SCF Done:  E(RB3LYP) =  -446.061258577     A.U. after    1 cycles

  Exact polarizability: 166.290  -2.649 104.736  -5.858   3.710  80.684
 Approx polarizability: 239.040  -4.781 143.213 -13.501   6.063 120.911

                      1                      2                      3
                      A                      A                      A
 Frequencies --     43.8161                91.3319               144.2278
 Red. masses --      2.9320                 2.5969                 2.5398
 Frc consts  --      0.0033                 0.0128                 0.0311
 IR Inten    --      0.2983                 0.1340                 0.7145

                      4                      5                      6
                      A                      A                      A
 Frequencies --    159.1425               169.5235               188.5733
 Red. masses --      1.8882                 1.4816                 1.7492
 Frc consts  --      0.0282                 0.0251                 0.0366
 IR Inten    --      0.0877                 0.3161                 0.1021

                      7                      8                      9
                      A                      A                      A
 Frequencies --    199.8451               255.1751               295.3437
 Red. masses --      1.2304                 1.8733                 2.2030
 Frc consts  --      0.0290                 0.0719                 0.1132
 IR Inten    --      0.1415                 0.5632                 1.5733

                     10                     11                     12
                      A                      A                      A
 Frequencies --    349.2282               357.7517               388.8792
 Red. masses --      2.5272                 2.9311                 2.1164
 Frc consts  --      0.1816                 0.2210                 0.1886
 IR Inten    --      0.5919                 0.7239                 2.0407

                     13                     14                     15
                      A                      A                      A
 Frequencies --    405.4259               453.2520               489.7130
 Red. masses --      2.2996                 3.0549                 2.4355
 Frc consts  --      0.2227                 0.3698                 0.3441
 IR Inten    --      1.7395                 3.6087                 0.6456

                     16                     17                     18
                      A                      A                      A
 Frequencies --    534.0237               568.6287               644.3715
 Red. masses --      2.6154                 2.4472                 2.3369
 Frc consts  --      0.4395                 0.4662                 0.5717
 IR Inten    --      0.4405                 5.2859                 0.4689

                     19                     20                     21
                      A                      A                      A
 Frequencies --    702.1317               745.2530               831.3484
 Red. masses --      2.5704                 2.1889                 2.9405
 Frc consts  --      0.7466                 0.7163                 1.1974
 IR Inten    --      1.7596                 3.9246                 8.4279

                     22                     23                     24
                      A                      A                      A
 Frequencies --    843.1573               876.5083               913.8886
 Red. masses --      1.6085                 2.6034                 1.3624
 Frc consts  --      0.6738                 1.1784                 0.6704
 IR Inten    --      2.7728                10.0252                36.2141

                     25                     26                     27
                      A                      A                      A
 Frequencies --    918.8389               933.5117               963.8110
 Red. masses --      2.2552                 1.5420                 2.0075
 Frc consts  --      1.1218                 0.7917                 1.0987
 IR Inten    --      1.4759                 3.8542                 7.8428

                     28                     29                     30
                      A                      A                      A
 Frequencies --   1029.8674              1054.5274              1057.3195
 Red. masses --      1.6601                 2.0779                 1.7819
 Frc consts  --      1.0374                 1.3614                 1.1737
 IR Inten    --      2.9921                 4.2302                24.1427

                     31                     32                     33
                      A                      A                      A
 Frequencies --   1068.3006              1075.2141              1091.8476
 Red. masses --      1.1724                 1.4761                 1.9173
 Frc consts  --      0.7883                 1.0054                 1.3467
 IR Inten    --     10.0600                 1.4457                11.3331

                     34                     35                     36
                      A                      A                      A
 Frequencies --   1112.5124              1132.3124              1156.1838
 Red. masses --      1.5414                 2.1706                 1.5698
 Frc consts  --      1.1240                 1.6397                 1.2363
 IR Inten    --     16.4642                 5.9824                31.8474

                     37                     38                     39
                      A                      A                      A
 Frequencies --   1170.8163              1208.5153              1233.1127
 Red. masses --      1.6156                 1.3843                 2.1721
 Frc consts  --      1.3049                 1.1912                 1.9460
 IR Inten    --     15.1467                11.4301                19.6176

                     40                     41                     42
                      A                      A                      A
 Frequencies --   1287.7666              1298.3381              1309.4817
 Red. masses --      2.1069                 1.2468                 1.9239
 Frc consts  --      2.0586                 1.2383                 1.9437
 IR Inten    --     11.8898                 9.6037                14.7677

                     43                     44                     45
                      A                      A                      A
 Frequencies --   1333.0364              1363.0190              1369.1432
 Red. masses --      1.4969                 1.6067                 1.3890
 Frc consts  --      1.5672                 1.7587                 1.5341
 IR Inten    --      9.5219                10.3207                 1.0083

                     46                     47                     48
                      A                      A                      A
 Frequencies --   1385.8304              1401.4808              1409.6475
 Red. masses --      1.5275                 1.4815                 1.3231
 Frc consts  --      1.7285                 1.7145                 1.5491
 IR Inten    --     11.3832                 0.0579                24.1205

                     49                     50                     51
                      A                      A                      A
 Frequencies --   1445.1007              1472.6021              1477.9274
 Red. masses --      1.2901                 1.2286                 1.1768
 Frc consts  --      1.5873                 1.5698                 1.5144
 IR Inten    --      1.6851                 6.2914                 1.1333

                     52                     53                     54
                      A                      A                      A
 Frequencies --   1502.6912              1510.8195              1513.4395
 Red. masses --      1.0893                 1.0802                 1.0920
 Frc consts  --      1.4492                 1.4527                 1.4736
 IR Inten    --      3.6485                 6.5568                 3.6796

                     55                     56                     57
                      A                      A                      A
 Frequencies --   1515.5235              1522.3942              1530.4156
 Red. masses --      1.0492                 1.0725                 1.0916
 Frc consts  --      1.4198                 1.4646                 1.5064
 IR Inten    --      6.3772                 1.8649                11.9575

                     58                     59                     60
                      A                      A                      A
 Frequencies --   1532.3351              1542.9240              1682.4959
 Red. masses --      1.0960                 1.0502                 4.9464
 Frc consts  --      1.5163                 1.4730                 8.2499
 IR Inten    --      3.3270                 2.6555                 1.2195

                     61                     62                     63
                      A                      A                      A
 Frequencies --   1709.2357              2967.3070              3000.1593
 Red. masses --      5.1916                 1.0585                 1.0728
 Frc consts  --      8.9363                 5.4914                 5.6894
 IR Inten    --     31.0042                65.6899                34.5064

                     64                     65                     66
                      A                      A                      A
 Frequencies --   3031.1671              3033.0729              3037.3246
 Red. masses --      1.0658                 1.0660                 1.0595
 Frc consts  --      5.7694                 5.7779                 5.7588
 IR Inten    --     29.7966                33.8490                35.1975

                     67                     68                     69
                      A                      A                      A
 Frequencies --   3044.0628              3075.6998              3077.6068
 Red. masses --      1.0436                 1.0892                 1.0859
 Frc consts  --      5.6978                 6.0709                 6.0599
 IR Inten    --     28.8427                67.2223                18.0897

                     70                     71                     72
                      A                      A                      A
 Frequencies --   3082.8113              3088.9949              3089.8055
 Red. masses --      1.0992                 1.0987                 1.1031
 Frc consts  --      6.1546                 6.1768                 6.2046
 IR Inten    --     69.3818                12.2649                71.2638

                     73                     74                     75
                      A                      A                      A
 Frequencies --   3123.7263              3131.3257              3167.3417
 Red. masses --      1.0896                 1.1019                 1.0918
 Frc consts  --      6.2642                 6.3658                 6.4533
 IR Inten    --     25.1665                24.3062                25.5326

                     76                     77                     78
                      A                      A                      A
 Frequencies --   3168.7040              3200.8957              3245.1055
 Red. masses --      1.0588                 1.0910                 1.1145
 Frc consts  --      6.2636                 6.5858                 6.9149
 IR Inten    --     12.3379                 4.4971                20.8230

 - Thermochemistry -
 -------------------
 Temperature   298.150 Kelvin.  Pressure   1.00000 Atm.
 Atom     1 has atomic number  6 and mass  12.00000

 Molecular mass:   151.13610 amu.
 Principal axes and moments of inertia in atomic units:
                           1         2         3
     Eigenvalues --   977.277762346.209002884.79549
           X            0.99996   0.00917   0.00073
           Y           -0.00917   0.99995  -0.00295
           Z           -0.00075   0.00294   1.00000
 This molecule is an asymmetric top.
 Rotational symmetry number  1.
 Warning -- assumption of classical behavior for rotation
           may cause significant error
 Rotational temperatures (Kelvin)      0.08863     0.03692     0.03002
 Rotational constants (GHZ):           1.84670     0.76922     0.62560
 Zero-point vibrational energy     667145.3 (Joules/Mol)
                                  159.45156 (Kcal/Mol)
 Warning -- explicit consideration of  17 degrees of freedom as
           vibrations may cause significant error
 Vibrational temperatures:     63.04   131.41   207.51   228.97   243.91
          (Kelvin)            271.31   287.53   367.14   424.93   502.46
                              514.72   559.51   583.32   652.13   704.59
                              768.34   818.13   927.11  1010.21  1072.25
                             1196.12  1213.12  1261.10  1314.88  1322.00
                             1343.12  1386.71  1481.75  1517.23  1521.25
                             1537.05  1546.99  1570.93  1600.66  1629.15
                             1663.49  1684.54  1738.78  1774.17  1852.81
                             1868.02  1884.05  1917.94  1961.08  1969.89
                             1993.90  2016.42  2028.17  2079.18  2118.75
                             2126.41  2162.04  2173.73  2177.50  2180.50
                             2190.39  2201.93  2204.69  2219.92  2420.74
                             2459.21  4269.29  4316.56  4361.17  4363.92
                             4370.03  4379.73  4425.25  4427.99  4435.48
                             4444.37  4445.54  4494.35  4505.28  4557.10
                             4559.06  4605.37  4668.98

 Zero-point correction=                           0.254102 (Hartree/Particle)
 Thermal correction to Energy=                    0.265842
 Thermal correction to Enthalpy=                  0.266786
 Thermal correction to Gibbs Free Energy=         0.216897
 Sum of electronic and zero-point Energies=           -445.807156
 Sum of electronic and thermal Energies=              -445.795417
 Sum of electronic and thermal Enthalpies=            -445.794473
 Sum of electronic and thermal Free Energies=         -445.844362

                     E (Thermal)             CV                S
                      KCal/Mol        Cal/Mol-Kelvin    Cal/Mol-Kelvin
 Total                  166.818             45.027            105.001
 Electronic               0.000              0.000              0.000
 Translational            0.889              2.981             40.949
 Rotational               0.889              2.981             30.271
 Vibrational            165.041             39.065             33.781
 Vibration     1          0.595              1.980              5.079
 Vibration     2          0.602              1.955              3.631
 Vibration     3          0.616              1.909              2.747
 Vibration     4          0.621              1.892              2.560
 Vibration     5          0.625              1.880              2.441
 Vibration     6          0.633              1.856              2.242
 Vibration     7          0.638              1.840              2.135
 Vibration     8          0.666              1.754              1.695
 Vibration     9          0.690              1.682              1.443
 Vibration    10          0.726              1.577              1.170
 Vibration    11          0.733              1.559              1.132
 Vibration    12          0.757              1.494              1.004
 Vibration    13          0.770              1.458              0.943
 Vibration    14          0.812              1.354              0.786
 Vibration    15          0.846              1.273              0.684
 Vibration    16          0.889              1.175              0.578
 Vibration    17          0.925              1.099              0.507

 Optimization completed.
    -- Stationary point found.
 Normal termination of Gaussian 16 at Tue Dec  8 19:25:12 2020.

 ----------------------------------------------------------------------
 # B3LYP/6-311++G(d,p) empiricaldispersion=gd3bj scf=xqc pop=npa geom=c
 heck
 ----------------------------------------------------------------------

 ---------------------------------------
 CID_154673379_JID_1171_Energie_neutraal
 ---------------------------------------
 Structure from the checkpoint file:  "JID_1171.chk"
 Charge =  0 Multiplicity = 1

 SCF Done:  E(RB3LYP) =  -446.181910391     A.U. after   14 cycles
 Normal termination of Gaussian 16 at Tue Dec  8 19:28:13 2020.

 ----------------------------------------------------------------------
 # B3LYP/6-311++G(d,p) empiricaldispersion=gd3bj scf=xqc pop=npa geom=c
 heck
 ----------------------------------------------------------------------

 -------------------------------------
 CID_154673379_JID_1171_Energie_kation
 -------------------------------------
 Structure from the checkpoint file:  "JID_1171.chk"
 Charge =  1 Multiplicity = 2

 SCF Done:  E(UB3LYP) =  -445.911644103     A.U. after   22 cycles
 Normal termination of Gaussian 16 at Tue Dec  8 19:35:02 2020.
 Gaussian 16:  ES64L-G16RevA.03 25-Dec-2016

 ----------------------------------------------------------------------
 # B3LYP/6-311++G(d,p) empiricaldispersion=gd3bj scf=xqc pop=npa geom=c
 heck
 ----------------------------------------------------------------------

 ------------------------------------
 CID_154673379_JID_1171_Energie_anion
 ------------------------------------
 Structure from the checkpoint file:  "JID_1171.chk"
 Charge = -1 Multiplicity = 2

                         Standard orientation:
 ---------------------------------------------------------------------
 Center     Atomic      Atomic             Coordinates (Angstroms)
 Number     Number       Type             X           Y           Z
 ---------------------------------------------------------------------
      1          6           0        2.122810    1.727301    0.246756
      2          6           0        1.388852    0.432474    0.000357
      3          6           0        0.048786    0.286295    0.155442
      4          6           0       -0.925501    1.376798    0.551264
      5          6           0       -2.180186    1.383275   -0.343065
      6          6           0       -2.807537   -0.012601   -0.396810
      7          6           0       -1.742087   -1.022922   -0.838822
      8          7           0       -0.534308   -1.021051   -0.006088
      9          6           0       -0.670220   -1.751761    1.252217
     10          6           0        2.202476   -0.716404   -0.408139
     11          6           0        3.542080   -0.743951   -0.474636
     12          1           0        1.464205    2.555498    0.508605
     13          1           0        2.697911    2.018339   -0.640613
     14          1           0        2.844729    1.609633    1.065371
     15          1           0       -1.247491    1.197231    1.589808
     16          1           0       -0.459343    2.363833    0.538963
     17          1           0       -1.895839    1.692295   -1.358718
     18          1           0       -2.897408    2.124632    0.028858
     19          1           0       -3.657643   -0.035593   -1.090170
     20          1           0       -3.195691   -0.284575    0.594320
     21          1           0       -1.433133   -0.786018   -1.866177
     22          1           0       -2.141137   -2.043502   -0.849395
     23          1           0       -1.380122   -1.301459    1.968698
     24          1           0       -1.008422   -2.772132    1.039285
     25          1           0        0.308349   -1.808756    1.737015
     26          1           0        1.634333   -1.600599   -0.681283
     27          1           0        4.065197   -1.636606   -0.805022
     28          1           0        4.164821    0.104104   -0.204315
 ---------------------------------------------------------------------

 SCF Done:  E(UB3LYP) =  -446.166993034     A.U. after   32 cycles

 The electronic state is 2-A.
 Alpha  occ. eigenvalues --  -14.18816 -10.07629 -10.07588 -10.07336 -10.05196
 Alpha  occ. eigenvalues --  -10.05109 -10.04980 -10.04783 -10.04595 -10.04564
 Alpha  occ. eigenvalues --  -10.03811  -0.81563  -0.69609  -0.67706  -0.63461
 Alpha  occ. eigenvalues --   -0.60336  -0.58365  -0.54079  -0.50388  -0.47907
 Alpha  occ. eigenvalues --   -0.43573  -0.39704  -0.38106  -0.35762  -0.33838
 Alpha  occ. eigenvalues --   -0.32353  -0.31130  -0.31075  -0.30576  -0.30097
 Alpha  occ. eigenvalues --   -0.29213  -0.28031  -0.26164  -0.25285  -0.24518
 Alpha  occ. eigenvalues --   -0.22994  -0.21889  -0.21704  -0.20402  -0.18097
 Alpha  occ. eigenvalues --   -0.11243  -0.09004   0.05052
 Alpha virt. eigenvalues --    0.07628   0.07837   0.08330   0.08622   0.09497
 Alpha virt. eigenvalues --    0.10029   0.10697   0.11145   0.11648   0.12086
 Alpha virt. eigenvalues --    0.12957   0.13452   0.13770   0.14326   0.14606

  Beta  occ. eigenvalues --  -14.18824 -10.07605 -10.07568 -10.07199 -10.05186
  Beta  occ. eigenvalues --  -10.05078 -10.04973 -10.04743 -10.04551 -10.04528
  Beta  occ. eigenvalues --  -10.03707  -0.81488  -0.69467  -0.67646  -0.63302
  Beta  occ. eigenvalues --   -0.60247  -0.58279  -0.53975  -0.50319  -0.47703
  Beta  occ. eigenvalues --   -0.43418  -0.39607  -0.38034  -0.35686  -0.33773
  Beta  occ. eigenvalues --   -0.32252  -0.31061  -0.30977  -0.30518  -0.30044
  Beta  occ. eigenvalues --   -0.29160  -0.27958  -0.26100  -0.25229  -0.24459
  Beta  occ. eigenvalues --   -0.22935  -0.21813  -0.21629  -0.20337  -0.17641
  Beta  occ. eigenvalues --   -0.10834  -0.08743
  Beta virt. eigenvalues --    0.07441   0.08208   0.08390   0.08969   0.09325
  Beta virt. eigenvalues --    0.10024   0.10338   0.11019   0.11425   0.12118
  Beta virt. eigenvalues --    0.12452   0.13113   0.13696   0.13875   0.14513

 Mulliken charges and spin densities:
               1          2
     1  C    0.378273  -1.144246
     2  C   -0.327970   0.554029
     3  C    0.510255  -0.138469
     4  C   -0.573290  -0.144935
     5  C    0.641244  -0.963038
     6  C    0.386025  -0.783399
     7  C    0.187158  -0.211809
     8  N    0.173726   0.066280
     9  C    0.547540  -0.875492
    10  C   -0.442918   0.411119
    11  C   -0.831415   0.217040
    12  H   -0.056797   0.156983
    13  H   -0.060390   0.209846
    14  H    0.099489   0.034809
    15  H   -0.360578   0.533623
    16  H    0.058150   0.066049
    17  H    0.078191   0.038477
    18  H   -0.729223   0.902497
    19  H   -0.639794   0.806810
    20  H   -0.106892   0.242293
    21  H   -0.066714   0.200303
    22  H   -0.129795   0.281846
    23  H   -0.152265   0.303634
    24  H    0.008801   0.124083
    25  H    0.153688  -0.019604
    26  H    0.133136   0.043154
    27  H    0.032284   0.082181
    28  H    0.090081   0.005935
 Sum of Mulliken charges =  -1.00000   1.00000

 Dipole moment (field-independent basis, Debye):
    X=              4.7366    Y=             -1.9172    Z=              0.1213  Tot=              5.1113
 Quadrupole moment (field-independent basis, Debye-Ang):
   XX=           -135.1942   YY=           -102.6527   ZZ=            -97.9979
   XY=              6.3530   XZ=              4.6785   YZ=             -2.3329

 Summary of Natural Population Analysis:

                                       Natural Population
                Natural  -----------------------------------------------
    Atom  No    Charge         Core      Valence    Rydberg      Total
 -----------------------------------------------------------------------
      C    1   -0.29502      0.99964     2.28980    0.00558     3.29502
      C    2   -0.04415      0.99941     2.03467    0.01006     3.04415
      C    3    0.13604      0.99941     1.85158    0.01298     2.86396
      C    4   -0.21329      0.99958     2.20431    0.00940     3.21329
      C    5   -0.18379      0.99963     2.17499    0.00917     3.18379
      C    6   -0.20105      0.99963     2.19258    0.00884     3.20105
      C    7   -0.07739      0.99961     2.06609    0.01169     3.07739
      N    8   -0.29225      0.99970     2.77972    0.01283     3.79225
      C    9   -0.17246      0.99963     2.16490    0.00793     3.17246
      C   10   -0.08932      0.99954     2.08051    0.00928     3.08932
      C   11   -0.19256      0.99959     2.18535    0.00761     3.19256
      H   12    0.10146      0.00000     0.39754    0.00099     0.39854
      H   13    0.10179      0.00000     0.39695    0.00126     0.39821
      H   14    0.09797      0.00000     0.40097    0.00107     0.40203
      H   15    0.10401      0.00000     0.39356    0.00243     0.39599
      H   16    0.10120      0.00000     0.39773    0.00107     0.39880
      H   17    0.09092      0.00000     0.40763    0.00144     0.40908
      H   18    0.10155      0.00000     0.39551    0.00295     0.39845
      H   19    0.09921      0.00000     0.39901    0.00177     0.40079
      H   20    0.09604      0.00000     0.40177    0.00219     0.40396
      H   21    0.09100      0.00000     0.40768    0.00132     0.40900
      H   22    0.09409      0.00000     0.40481    0.00110     0.40591
      H   23    0.08264      0.00000     0.41597    0.00139     0.41736
      H   24    0.09039      0.00000     0.40871    0.00089     0.40961
      H   25    0.09737      0.00000     0.40183    0.00080     0.40263
      H   26    0.10351      0.00000     0.39456    0.00193     0.39649
      H   27    0.08676      0.00000     0.41228    0.00096     0.41324
      H   28    0.08532      0.00000     0.41359    0.00109     0.41468
 =======================================================================
   * Total *    0.00000     10.99536    30.87460    0.13004    42.00000

 Normal termination of Gaussian 16 at Tue Dec  8 19:44:42 2020.
