 Gaussian 16, Revision A.03,

 -----------------------------------------------------------
 # opt freq B3LYP/6-31G(d) empiricaldispersion=gd3bj scf=xqc
 -----------------------------------------------------------

 ------------------------------
 CID_71642771_JID_5221_neutraal
 ------------------------------
 Symbolic Z-matrix:
 Charge =  0 Multiplicity = 1

 SCF Done:  E(RB3LYP) =  -634.214624248     A.U. after   14 cycles
 SCF Done:  E(RB3LYP) =  -634.219152049     A.U. after   12 cycles
 SCF Done:  E(RB3LYP) =  -634.220092993     A.U. after   12 cycles
 SCF Done:  E(RB3LYP) =  -634.220396506     A.U. after   12 cycles
 SCF Done:  E(RB3LYP) =  -634.220459946     A.U. after   10 cycles
 SCF Done:  E(RB3LYP) =  -634.220486497     A.U. after    9 cycles
 SCF Done:  E(RB3LYP) =  -634.220489237     A.U. after    8 cycles
 SCF Done:  E(RB3LYP) =  -634.220490212     A.U. after    8 cycles
 SCF Done:  E(RB3LYP) =  -634.220490484     A.U. after    7 cycles
 SCF Done:  E(RB3LYP) =  -634.220490629     A.U. after    7 cycles
 Optimization completed.
    -- Stationary point found.
 Normal termination of Gaussian 16 at Thu Dec 10 14:51:10 2020.

 --------------------------------------------------------------------
 #N Geom=AllCheck Guess=TCheck SCRF=Check GenChk RB3LYP/6-31G(d) Freq
 --------------------------------------------------------------------

 Structure from the checkpoint file:  "JID_5221.chk"
 ------------------------------
 CID_71642771_JID_5221_neutraal
 ------------------------------
 Charge =  0 Multiplicity = 1

 SCF Done:  E(RB3LYP) =  -634.220490629     A.U. after    1 cycles

  Exact polarizability: 176.906   6.671 138.326  11.303  -5.340 107.168
 Approx polarizability: 216.852   9.736 211.565  20.048 -14.518 168.890

                      1                      2                      3
                      A                      A                      A
 Frequencies --     43.1158                53.5409                73.5251
 Red. masses --      3.6783                 3.8002                 3.0640
 Frc consts  --      0.0040                 0.0064                 0.0098
 IR Inten    --      0.1586                 0.5045                 1.4500

                      4                      5                      6
                      A                      A                      A
 Frequencies --     92.5875               118.5861               159.0956
 Red. masses --      2.8101                 2.5382                 3.0228
 Frc consts  --      0.0142                 0.0210                 0.0451
 IR Inten    --      2.1757                 0.5450                 0.6482

                      7                      8                      9
                      A                      A                      A
 Frequencies --    193.2336               211.1211               229.3247
 Red. masses --      2.0567                 2.0007                 2.7372
 Frc consts  --      0.0452                 0.0525                 0.0848
 IR Inten    --      0.5357                 1.5319                 2.2150

                     10                     11                     12
                      A                      A                      A
 Frequencies --    249.4278               256.1251               266.2150
 Red. masses --      1.3334                 1.5564                 2.3289
 Frc consts  --      0.0489                 0.0602                 0.0972
 IR Inten    --      1.4383                 0.8896                 4.8080

                     13                     14                     15
                      A                      A                      A
 Frequencies --    314.9979               325.5906               395.2452
 Red. masses --      2.5081                 3.2607                 2.5468
 Frc consts  --      0.1466                 0.2037                 0.2344
 IR Inten    --      0.6657                 2.0937                 1.8400

                     16                     17                     18
                      A                      A                      A
 Frequencies --    409.1028               467.4089               480.6187
 Red. masses --      2.9750                 2.3754                 2.8691
 Frc consts  --      0.2934                 0.3058                 0.3905
 IR Inten    --      0.9626                 0.1956                 6.5794

                     19                     20                     21
                      A                      A                      A
 Frequencies --    490.6345               523.2214               555.6607
 Red. masses --      2.9911                 2.9063                 1.8171
 Frc consts  --      0.4242                 0.4688                 0.3306
 IR Inten    --      2.4373                 6.8990                34.2682

                     22                     23                     24
                      A                      A                      A
 Frequencies --    622.6148               644.7481               669.0587
 Red. masses --      3.0106                 2.1503                 2.0630
 Frc consts  --      0.6876                 0.5267                 0.5441
 IR Inten    --      2.1909                 3.3979                 5.4093

                     25                     26                     27
                      A                      A                      A
 Frequencies --    704.9778               744.2550               757.7244
 Red. masses --      1.3386                 2.4816                 1.6857
 Frc consts  --      0.3920                 0.8099                 0.5702
 IR Inten    --     48.4503                 9.9801                77.9027

                     28                     29                     30
                      A                      A                      A
 Frequencies --    779.7008               798.4399               831.6756
 Red. masses --      2.3135                 1.2540                 1.5027
 Frc consts  --      0.8287                 0.4710                 0.6124
 IR Inten    --      8.2444                46.0812                 1.2725

                     31                     32                     33
                      A                      A                      A
 Frequencies --    855.0376               865.8350               907.5720
 Red. masses --      1.2589                 1.9546                 5.2802
 Frc consts  --      0.5423                 0.8633                 2.5625
 IR Inten    --      0.4524                21.9655                 0.4771

                     34                     35                     36
                      A                      A                      A
 Frequencies --    940.0170               959.4431               976.7740
 Red. masses --      2.1812                 2.0344                 2.0303
 Frc consts  --      1.1356                 1.1034                 1.1413
 IR Inten    --      8.4095                 8.6193                 1.0409

                     37                     38                     39
                      A                      A                      A
 Frequencies --    985.1320              1011.1287              1031.0128
 Red. masses --      2.0498                 1.5736                 2.1358
 Frc consts  --      1.1721                 0.9479                 1.3376
 IR Inten    --      2.1217                 3.5538                11.5590

                     40                     41                     42
                      A                      A                      A
 Frequencies --   1055.3442              1061.8457              1076.7062
 Red. masses --      1.9715                 1.3905                 1.4741
 Frc consts  --      1.2937                 0.9237                 1.0069
 IR Inten    --     27.3877                13.1506                12.6736

                     43                     44                     45
                      A                      A                      A
 Frequencies --   1102.9212              1113.5590              1121.2380
 Red. masses --      1.9872                 2.1617                 1.8268
 Frc consts  --      1.4242                 1.5794                 1.3531
 IR Inten    --      8.8868                 9.8254                33.1045

                     46                     47                     48
                      A                      A                      A
 Frequencies --   1122.9921              1146.8247              1153.7514
 Red. masses --      2.5148                 1.6168                 2.0452
 Frc consts  --      1.8685                 1.2529                 1.6040
 IR Inten    --      2.1280                18.5571                 2.8926

                     49                     50                     51
                      A                      A                      A
 Frequencies --   1160.0533              1180.6600              1182.2604
 Red. masses --      1.9623                 1.5475                 1.9225
 Frc consts  --      1.5559                 1.2710                 1.5832
 IR Inten    --     51.9295                31.9944                37.2195

                     52                     53                     54
                      A                      A                      A
 Frequencies --   1215.5533              1233.7193              1260.8913
 Red. masses --      1.9679                 2.1346                 2.2063
 Frc consts  --      1.7132                 1.9143                 2.0667
 IR Inten    --     14.3520                 2.0763                14.5735

                     55                     56                     57
                      A                      A                      A
 Frequencies --   1275.0099              1292.6077              1300.5888
 Red. masses --      1.3922                 1.5416                 1.3402
 Frc consts  --      1.3334                 1.5176                 1.3356
 IR Inten    --     18.0735                 5.1389                10.5797

                     58                     59                     60
                      A                      A                      A
 Frequencies --   1332.2515              1348.9942              1366.3365
 Red. masses --      1.4309                 1.3096                 1.6094
 Frc consts  --      1.4964                 1.4041                 1.7703
 IR Inten    --      3.2319                 5.1242                68.0385

                     61                     62                     63
                      A                      A                      A
 Frequencies --   1366.9824              1385.0775              1394.5739
 Red. masses --      1.2678                 1.3121                 1.4229
 Frc consts  --      1.3958                 1.4830                 1.6304
 IR Inten    --      5.9924                18.5339                 5.8019

                     64                     65                     66
                      A                      A                      A
 Frequencies --   1416.5044              1419.2075              1429.6595
 Red. masses --      1.4274                 1.4281                 1.3003
 Frc consts  --      1.6874                 1.6948                 1.5659
 IR Inten    --      3.1074                19.9913                14.2470

                     67                     68                     69
                      A                      A                      A
 Frequencies --   1440.3068              1455.9826              1471.1053
 Red. masses --      1.6004                 2.5369                 3.7809
 Frc consts  --      1.9561                 3.1686                 4.8209
 IR Inten    --     17.7149                21.4380                 0.9943

                     70                     71                     72
                      A                      A                      A
 Frequencies --   1482.4473              1502.4738              1509.2101
 Red. masses --      1.1642                 1.0982                 3.2645
 Frc consts  --      1.5074                 1.4607                 4.3810
 IR Inten    --      1.1453                 0.7930                 2.7944

                     73                     74                     75
                      A                      A                      A
 Frequencies --   1512.5342              1517.2164              1522.3476
 Red. masses --      1.2414                 1.0943                 1.0704
 Frc consts  --      1.6733                 1.4842                 1.4615
 IR Inten    --     14.0072                 8.9119                 6.4073

                     76                     77                     78
                      A                      A                      A
 Frequencies --   1522.9481              1527.0282              1535.2205
 Red. masses --      1.0698                 1.1016                 1.0974
 Frc consts  --      1.4620                 1.5134                 1.5240
 IR Inten    --      6.9005                 0.3851                 1.1314

                     79                     80                     81
                      A                      A                      A
 Frequencies --   1542.4746              1550.6792              1623.3608
 Red. masses --      1.1001                 1.0485                 4.1381
 Frc consts  --      1.5421                 1.4854                 6.4252
 IR Inten    --      5.2945                12.9476                 4.6648

                     82                     83                     84
                      A                      A                      A
 Frequencies --   2926.3903              2944.7473              2971.5527
 Red. masses --      1.0726                 1.0727                 1.0584
 Frc consts  --      5.4122                 5.4804                 5.5063
 IR Inten    --     49.3332                62.7579                75.9133

                     85                     86                     87
                      A                      A                      A
 Frequencies --   2997.8387              3007.0178              3029.3227
 Red. masses --      1.0830                 1.0821                 1.0662
 Frc consts  --      5.7347                 5.7646                 5.7647
 IR Inten    --     33.0184                13.2743                13.2180

                     88                     89                     90
                      A                      A                      A
 Frequencies --   3036.9394              3062.7693              3071.9309
 Red. masses --      1.0654                 1.0351                 1.0751
 Frc consts  --      5.7893                 5.7207                 5.9773
 IR Inten    --     58.7030                17.2755                47.7680

                     91                     92                     93
                      A                      A                      A
 Frequencies --   3072.4729              3090.3831              3101.2380
 Red. masses --      1.0877                 1.0992                 1.0970
 Frc consts  --      6.0496                 6.1849                 6.2162
 IR Inten    --     51.8433                46.6480                32.2190

                     94                     95                     96
                      A                      A                      A
 Frequencies --   3103.7798              3116.2959              3129.2525
 Red. masses --      1.0881                 1.1026                 1.1024
 Frc consts  --      6.1758                 6.3086                 6.3601
 IR Inten    --     21.6812                36.2159                30.8737

                     97                     98                     99
                      A                      A                      A
 Frequencies --   3138.3116              3250.3272              3264.0579
 Red. masses --      1.1028                 1.0893                 1.0959
 Frc consts  --      6.3992                 6.7803                 6.8790
 IR Inten    --     25.5030                 7.1336                 8.5206

                    100                    101                    102
                      A                      A                      A
 Frequencies --   3280.3172              3476.8196              3647.6326
 Red. masses --      1.1032                 1.0734                 1.0796
 Frc consts  --      6.9943                 7.6449                 8.4629
 IR Inten    --      6.7306                 1.6389                67.4946

 - Thermochemistry -
 -------------------
 Temperature   298.150 Kelvin.  Pressure   1.00000 Atm.
 Atom     1 has atomic number  6 and mass  12.00000

 Molecular mass:   207.17355 amu.
 Principal axes and moments of inertia in atomic units:
                           1         2         3
     Eigenvalues --  1330.016786179.495456807.54458
           X            0.99996  -0.00519   0.00685
           Y            0.00528   0.99989  -0.01362
           Z           -0.00677   0.01365   0.99988
 This molecule is an asymmetric top.
 Rotational symmetry number  1.
 Warning -- assumption of classical behavior for rotation
           may cause significant error
 Rotational temperatures (Kelvin)      0.06512     0.01402     0.01272
 Rotational constants (GHZ):           1.35693     0.29205     0.26511
 Zero-point vibrational energy     854997.2 (Joules/Mol)
                                  204.34924 (Kcal/Mol)
 Warning -- explicit consideration of  21 degrees of freedom as
           vibrations may cause significant error
 Vibrational temperatures:     62.03    77.03   105.79   133.21   170.62
          (Kelvin)            228.90   278.02   303.76   329.95   358.87
                              368.51   383.02   453.21   468.45   568.67
                              588.61   672.50   691.50   705.91   752.80
                              799.47   895.80   927.65   962.63  1014.31
                             1070.82  1090.20  1121.82  1148.78  1196.60
                             1230.21  1245.74  1305.79  1352.47  1380.42
                             1405.36  1417.39  1454.79  1483.40  1518.40
                             1527.76  1549.14  1586.86  1602.16  1613.21
                             1615.74  1650.02  1659.99  1669.06  1698.71
                             1701.01  1748.91  1775.05  1814.14  1834.45
                             1859.77  1871.26  1916.81  1940.90  1965.85
                             1966.78  1992.82  2006.48  2038.03  2041.92
                             2056.96  2072.28  2094.83  2116.59  2132.91
                             2161.72  2171.42  2176.20  2182.94  2190.32
                             2191.18  2197.05  2208.84  2219.28  2231.08
                             2335.65  4210.42  4236.83  4275.40  4313.22
                             4326.43  4358.52  4369.48  4406.64  4419.82
                             4420.60  4446.37  4461.99  4465.65  4483.65
                             4502.30  4515.33  4676.50  4696.25  4719.64
                             5002.37  5248.13

 Zero-point correction=                           0.325651 (Hartree/Particle)
 Thermal correction to Energy=                    0.340456
 Thermal correction to Enthalpy=                  0.341401
 Thermal correction to Gibbs Free Energy=         0.283804
 Sum of electronic and zero-point Energies=           -633.894839
 Sum of electronic and thermal Energies=              -633.880034
 Sum of electronic and thermal Enthalpies=            -633.879090
 Sum of electronic and thermal Free Energies=         -633.936686

                     E (Thermal)             CV                S
                      KCal/Mol        Cal/Mol-Kelvin    Cal/Mol-Kelvin
 Total                  213.640             58.069            121.221
 Electronic               0.000              0.000              0.000
 Translational            0.889              2.981             41.889
 Rotational               0.889              2.981             32.392
 Vibrational            211.862             52.107             46.940
 Vibration     1          0.595              1.980              5.111
 Vibration     2          0.596              1.976              4.682
 Vibration     3          0.599              1.966              4.057
 Vibration     4          0.602              1.954              3.605
 Vibration     5          0.609              1.934              3.123
 Vibration     6          0.621              1.892              2.561
 Vibration     7          0.635              1.849              2.197
 Vibration     8          0.643              1.824              2.034
 Vibration     9          0.652              1.796              1.884
 Vibration    10          0.662              1.764              1.735
 Vibration    11          0.666              1.752              1.688
 Vibration    12          0.672              1.735              1.621
 Vibration    13          0.702              1.645              1.336
 Vibration    14          0.710              1.624              1.282
 Vibration    15          0.762              1.480              0.980
 Vibration    16          0.773              1.450              0.930
 Vibration    17          0.825              1.322              0.745
 Vibration    18          0.837              1.293              0.708
 Vibration    19          0.846              1.271              0.682
 Vibration    20          0.878              1.199              0.603
 Vibration    21          0.911              1.127              0.533

                           ! Non-Optimized Parameters !
 Normal termination of Gaussian 16 at Thu Dec 10 15:04:20 2020.

 ----------------------------------------------------------------------
 # B3LYP/6-311++G(d,p) empiricaldispersion=gd3bj scf=xqc pop=npa geom=c
 heck
 ----------------------------------------------------------------------

 --------------------------------------
 CID_71642771_JID_5221_Energie_neutraal
 --------------------------------------
 Structure from the checkpoint file:  "JID_5221.chk"
 Charge =  0 Multiplicity = 1

 SCF Done:  E(RB3LYP) =  -634.399123303     A.U. after   15 cycles
 Normal termination of Gaussian 16 at Thu Dec 10 15:11:26 2020.

 ----------------------------------------------------------------------
 # B3LYP/6-311++G(d,p) empiricaldispersion=gd3bj scf=xqc pop=npa geom=c
 heck
 ----------------------------------------------------------------------

 ------------------------------------
 CID_71642771_JID_5221_Energie_kation
 ------------------------------------
 Structure from the checkpoint file:  "JID_5221.chk"
 Charge =  1 Multiplicity = 2

 SCF Done:  E(UB3LYP) =  -634.129233652     A.U. after   25 cycles
 Normal termination of Gaussian 16 at Thu Dec 10 15:28:37 2020.
 Gaussian 16:  ES64L-G16RevA.03 25-Dec-2016

 ----------------------------------------------------------------------
 # B3LYP/6-311++G(d,p) empiricaldispersion=gd3bj scf=xqc pop=npa geom=c
 heck
 ----------------------------------------------------------------------

 -----------------------------------
 CID_71642771_JID_5221_Energie_anion
 -----------------------------------
 Structure from the checkpoint file:  "JID_5221.chk"
 Charge = -1 Multiplicity = 2

                         Standard orientation:
 ---------------------------------------------------------------------
 Center     Atomic      Atomic             Coordinates (Angstroms)
 Number     Number       Type             X           Y           Z
 ---------------------------------------------------------------------
      1          6           0       -1.593075    2.382976   -0.572918
      2          6           0       -1.382494    1.185742    0.367394
      3          6           0       -2.451029    0.142940    0.189174
      4          6           0       -3.704331    0.157022   -0.393255
      5          6           0       -4.279444   -1.136138   -0.211525
      6          6           0       -3.359196   -1.903916    0.471039
      7          7           0       -2.262910   -1.113132    0.717293
      8          7           0       -0.062785    0.528141    0.279424
      9          6           0        0.287545    0.064517   -1.065025
     10          6           0        1.506361   -0.856250   -1.007873
     11          6           0        2.703855   -0.154622   -0.359808
     12          6           0        2.279065    0.423074    1.004529
     13          6           0        1.027166    1.294577    0.875301
     14          7           0        3.848905   -1.063864   -0.330648
     15          6           0        5.104130   -0.462757    0.103903
     16          1           0       -1.617762    2.068471   -1.620383
     17          1           0       -0.795042    3.121716   -0.448256
     18          1           0       -2.544678    2.874884   -0.347626
     19          1           0       -1.434413    1.567571    1.398491
     20          1           0       -4.163313    1.002292   -0.886997
     21          1           0       -5.254578   -1.462991   -0.546268
     22          1           0       -3.391109   -2.934645    0.792887
     23          1           0       -1.376371   -1.389616    1.113974
     24          1           0        0.509425    0.911935   -1.740918
     25          1           0       -0.574869   -0.463820   -1.482392
     26          1           0        1.780876   -1.192959   -2.013118
     27          1           0        1.249795   -1.749314   -0.419963
     28          1           0        2.992430    0.687906   -1.007539
     29          1           0        2.062516   -0.408981    1.689277
     30          1           0        3.089700    1.013364    1.447055
     31          1           0        0.704831    1.643946    1.863142
     32          1           0        1.275223    2.195580    0.280051
     33          1           0        3.624478   -1.856792    0.269398
     34          1           0        5.100084   -0.038196    1.123246
     35          1           0        5.897932   -1.215591    0.056638
     36          1           0        5.371055    0.344230   -0.588790
 ---------------------------------------------------------------------

 SCF Done:  E(UB3LYP) =  -634.385125709     A.U. after   33 cycles
 SCF Done:  E(UB3LYP) =  -634.385125709     a.u. after    1 cycles

 The electronic state is 2-A.
 Alpha  occ. eigenvalues --  -14.25329 -14.21104 -14.20025 -10.11549 -10.09974
 Alpha  occ. eigenvalues --  -10.09658 -10.09628 -10.09561 -10.09507 -10.08966
 Alpha  occ. eigenvalues --  -10.06883 -10.06799 -10.06377 -10.06198 -10.05943
 Alpha  occ. eigenvalues --   -0.88143  -0.83654  -0.80857  -0.70381  -0.67731
 Alpha  occ. eigenvalues --   -0.66208  -0.65400  -0.61382  -0.58023  -0.54286
 Alpha  occ. eigenvalues --   -0.53295  -0.50387  -0.49099  -0.46947  -0.46447
 Alpha  occ. eigenvalues --   -0.42766  -0.40234  -0.38342  -0.36612  -0.36114
 Alpha  occ. eigenvalues --   -0.35059  -0.34363  -0.33715  -0.33062  -0.32662
 Alpha  occ. eigenvalues --   -0.31083  -0.30324  -0.30124  -0.29160  -0.28719
 Alpha  occ. eigenvalues --   -0.28438  -0.28176  -0.27195  -0.25976  -0.24774
 Alpha  occ. eigenvalues --   -0.24310  -0.23118  -0.22186  -0.15286  -0.13100
 Alpha  occ. eigenvalues --   -0.12747  -0.11619   0.04251
 Alpha virt. eigenvalues --    0.06191   0.06238   0.07289   0.07914   0.08075
 Alpha virt. eigenvalues --    0.08949   0.09311   0.09553   0.10077   0.10589
 Alpha virt. eigenvalues --    0.11145   0.11307   0.11693   0.12166   0.12414

  Beta  occ. eigenvalues --  -14.25314 -14.21098 -14.20010 -10.11537 -10.09970
  Beta  occ. eigenvalues --  -10.09657 -10.09620 -10.09541 -10.09492 -10.08935
  Beta  occ. eigenvalues --  -10.06865 -10.06789 -10.06352 -10.06197 -10.05933
  Beta  occ. eigenvalues --   -0.88122  -0.83635  -0.80830  -0.70354  -0.67706
  Beta  occ. eigenvalues --   -0.66182  -0.65369  -0.61354  -0.57977  -0.54240
  Beta  occ. eigenvalues --   -0.53249  -0.50347  -0.49066  -0.46921  -0.46398
  Beta  occ. eigenvalues --   -0.42735  -0.40195  -0.38298  -0.36576  -0.36081
  Beta  occ. eigenvalues --   -0.35031  -0.34328  -0.33693  -0.33034  -0.32632
  Beta  occ. eigenvalues --   -0.31064  -0.30302  -0.30097  -0.29119  -0.28693
  Beta  occ. eigenvalues --   -0.28410  -0.28148  -0.27162  -0.25940  -0.24744
  Beta  occ. eigenvalues --   -0.24266  -0.23086  -0.22161  -0.15268  -0.13069
  Beta  occ. eigenvalues --   -0.12717  -0.11595
  Beta virt. eigenvalues --    0.06273   0.06868   0.06997   0.07894   0.08273
  Beta virt. eigenvalues --    0.08361   0.09339   0.09748   0.09896   0.10454
  Beta virt. eigenvalues --    0.10915   0.11471   0.11566   0.11869   0.12425

 Mulliken charges and spin densities:
               1          2
     1  C    0.316440  -0.991312
     2  C   -0.079998   0.065655
     3  C    0.522879  -0.918738
     4  C   -1.166156   1.447009
     5  C    0.760120  -1.274045
     6  C   -0.371324   0.330208
     7  N   -0.137120   0.085287
     8  N    0.244140   0.045575
     9  C   -0.819079   0.360244
    10  C    0.957349  -1.429248
    11  C   -1.283070   0.697812
    12  C    0.642730  -0.608678
    13  C    0.909074  -1.404928
    14  N   -0.099105   0.150269
    15  C    0.623671  -0.949115
    16  H    0.051231   0.116122
    17  H   -0.119605   0.256464
    18  H   -0.172190   0.325595
    19  H   -0.165173   0.355745
    20  H   -0.134128   0.281451
    21  H    0.030704   0.106604
    22  H   -0.563910   0.716804
    23  H    0.103960   0.213608
    24  H   -0.044220   0.154313
    25  H    0.173861   0.000500
    26  H    0.157263   0.027944
    27  H   -0.122656   0.258818
    28  H    0.098238   0.043453
    29  H   -0.401088   0.570500
    30  H    0.147835  -0.011060
    31  H   -0.410965   0.590903
    32  H    0.034387   0.082791
    33  H    0.128887   0.096580
    34  H   -0.390913   0.527372
    35  H   -0.269384   0.401350
    36  H   -0.152683   0.278147
 Sum of Mulliken charges =  -1.00000   1.00000

 Dipole moment (field-independent basis, Debye):
    X=             -2.7216    Y=              0.7366    Z=             -3.4696  Tot=              4.4707
 Quadrupole moment (field-independent basis, Debye-Ang):
   XX=           -185.8188   YY=           -139.7232   ZZ=           -131.6243
   XY=              1.7011   XZ=             -3.7836   YZ=             -1.3258

 Summary of Natural Population Analysis:

                                       Natural Population
                Natural  -----------------------------------------------
    Atom  No    Charge         Core      Valence    Rydberg      Total
 -----------------------------------------------------------------------
      C    1   -0.29502      0.99965     2.28939    0.00598     3.29502
      C    2   -0.01420      0.99955     2.00184    0.01281     3.01420
      C    3    0.06544      0.99953     1.91977    0.01526     2.93456
      C    4   -0.14768      0.99950     2.14062    0.00756     3.14768
      C    5   -0.14981      0.99957     2.14117    0.00906     3.14981
      C    6   -0.02450      0.99958     2.01173    0.01319     3.02450
      N    7   -0.26549      0.99965     2.75596    0.00988     3.76549
      N    8   -0.28812      0.99971     2.77465    0.01376     3.78812
      C    9   -0.08646      0.99960     2.07763    0.00923     3.08646
      C   10   -0.19286      0.99960     2.18327    0.00998     3.19286
      C   11   -0.00682      0.99957     1.99553    0.01171     3.00682
      C   12   -0.20151      0.99960     2.19173    0.01018     3.20151
      C   13   -0.08120      0.99960     2.06968    0.01192     3.08120
      N   14   -0.33873      0.99974     2.82672    0.01226     3.83873
      C   15   -0.17910      0.99966     2.17102    0.00842     3.17910
      H   16    0.09974      0.00000     0.39930    0.00097     0.40026
      H   17    0.10236      0.00000     0.39680    0.00084     0.39764
      H   18    0.10343      0.00000     0.39551    0.00105     0.39657
      H   19    0.10172      0.00000     0.39623    0.00205     0.39828
      H   20    0.10436      0.00000     0.39478    0.00086     0.39564
      H   21    0.10119      0.00000     0.39816    0.00065     0.39881
      H   22    0.09985      0.00000     0.39903    0.00112     0.40015
      H   23    0.20984      0.00000     0.28653    0.00363     0.29016
      H   24    0.08016      0.00000     0.41841    0.00143     0.41984
      H   25    0.10335      0.00000     0.39553    0.00112     0.39665
      H   26    0.10263      0.00000     0.39628    0.00109     0.39737
      H   27    0.09641      0.00000     0.40181    0.00178     0.40359
      H   28    0.08643      0.00000     0.41146    0.00211     0.41357
      H   29    0.09800      0.00000     0.39960    0.00240     0.40200
      H   30    0.10219      0.00000     0.39636    0.00145     0.39781
      H   31    0.10001      0.00000     0.39819    0.00181     0.39999
      H   32    0.07853      0.00000     0.41989    0.00157     0.42147
      H   33    0.17018      0.00000     0.32687    0.00296     0.32982
      H   34    0.08183      0.00000     0.41639    0.00177     0.41817
      H   35    0.09405      0.00000     0.40500    0.00096     0.40595
      H   36    0.08979      0.00000     0.40907    0.00113     0.41021
 =======================================================================
   * Total *    0.00000     14.99412    41.81192    0.19397    57.00000

 Normal termination of Gaussian 16 at Thu Dec 10 15:50:52 2020.
