 Gaussian 16, Revision A.03,

 -----------------------------------------------------------
 # opt freq B3LYP/6-31G(d) empiricaldispersion=gd3bj scf=xqc
 -----------------------------------------------------------

 ------------------------------
 CID_51077854_JID_6134_neutraal
 ------------------------------
 Symbolic Z-matrix:
 Charge =  0 Multiplicity = 1

 SCF Done:  E(RB3LYP) =  -1052.27044328     A.U. after   16 cycles
 SCF Done:  E(RB3LYP) =  -1052.29577604     A.U. after   13 cycles
 SCF Done:  E(RB3LYP) =  -1052.29847498     A.U. after   15 cycles
 SCF Done:  E(RB3LYP) =  -1052.29905697     A.U. after   12 cycles
 SCF Done:  E(RB3LYP) =  -1052.29944549     A.U. after   12 cycles
 SCF Done:  E(RB3LYP) =  -1052.29945654     A.U. after   12 cycles
 SCF Done:  E(RB3LYP) =  -1052.29955164     A.U. after   11 cycles
 SCF Done:  E(RB3LYP) =  -1052.29956147     A.U. after   11 cycles
 SCF Done:  E(RB3LYP) =  -1052.29956984     A.U. after    9 cycles
 SCF Done:  E(RB3LYP) =  -1052.29957521     A.U. after   10 cycles
 SCF Done:  E(RB3LYP) =  -1052.29970141     A.U. after   12 cycles
 SCF Done:  E(RB3LYP) =  -1052.29974579     A.U. after   12 cycles
 SCF Done:  E(RB3LYP) =  -1052.29974735     A.U. after   10 cycles
 SCF Done:  E(RB3LYP) =  -1052.29974780     A.U. after    9 cycles
 SCF Done:  E(RB3LYP) =  -1052.29974772     A.U. after    7 cycles
 Optimization completed.
    -- Stationary point found.
 Normal termination of Gaussian 16 at Thu Dec 10 21:47:57 2020.

 --------------------------------------------------------------------
 #N Geom=AllCheck Guess=TCheck SCRF=Check GenChk RB3LYP/6-31G(d) Freq
 --------------------------------------------------------------------

 Structure from the checkpoint file:  "JID_6134.chk"
 ------------------------------
 CID_51077854_JID_6134_neutraal
 ------------------------------
 Charge =  0 Multiplicity = 1

 SCF Done:  E(RB3LYP) =  -1052.29974772     A.U. after    1 cycles

  Exact polarizability: 192.127  -5.386 137.692  -4.178  -0.757 126.791
 Approx polarizability: 240.832 -16.972 209.645 -12.291   1.853 206.280

                      1                      2                      3
                      A                      A                      A
 Frequencies --     21.0631                29.2220                31.2985
 Red. masses --      5.3148                 6.7011                 7.6802
 Frc consts  --      0.0014                 0.0034                 0.0044
 IR Inten    --      1.1747                 0.5126                 1.5921

                      4                      5                      6
                      A                      A                      A
 Frequencies --     59.6416                74.8065               108.9482
 Red. masses --      5.0218                 6.0460                 4.2254
 Frc consts  --      0.0105                 0.0199                 0.0295
 IR Inten    --      1.1713                 5.1106                 1.3353

                      7                      8                      9
                      A                      A                      A
 Frequencies --    149.0147               174.7461               183.7527
 Red. masses --      2.2061                 3.2356                 4.1461
 Frc consts  --      0.0289                 0.0582                 0.0825
 IR Inten    --      0.7705                 0.1161                 8.9718

                     10                     11                     12
                      A                      A                      A
 Frequencies --    200.5198               217.2615               226.0242
 Red. masses --      5.0786                 3.4763                 4.0109
 Frc consts  --      0.1203                 0.0967                 0.1207
 IR Inten    --     10.8419                 2.7048                 0.7358

                     13                     14                     15
                      A                      A                      A
 Frequencies --    268.4837               284.6636               313.5888
 Red. masses --      2.9746                 3.0470                 2.5193
 Frc consts  --      0.1263                 0.1455                 0.1460
 IR Inten    --      1.1007                 2.1274                 1.2288

                     16                     17                     18
                      A                      A                      A
 Frequencies --    335.1524               370.2974               380.4609
 Red. masses --      2.2416                 3.0991                 2.1202
 Frc consts  --      0.1484                 0.2504                 0.1808
 IR Inten    --      1.3141                 0.2955                 0.3656

                     19                     20                     21
                      A                      A                      A
 Frequencies --    420.3791               463.3668               500.1699
 Red. masses --      2.0874                 2.1453                 2.7319
 Frc consts  --      0.2173                 0.2714                 0.4027
 IR Inten    --      2.0072                 1.2889                 3.8416

                     22                     23                     24
                      A                      A                      A
 Frequencies --    506.4028               517.0930               547.0632
 Red. masses --      5.7959                 2.5906                 2.7750
 Frc consts  --      0.8757                 0.4081                 0.4893
 IR Inten    --      0.6097                23.1244                11.4725

                     25                     26                     27
                      A                      A                      A
 Frequencies --    572.0848               654.9300               677.4867
 Red. masses --      2.0002                 1.7524                 3.1627
 Frc consts  --      0.3857                 0.4429                 0.8553
 IR Inten    --     15.1589                54.0213                25.7425

                     28                     29                     30
                      A                      A                      A
 Frequencies --    710.4553               717.1600               778.0022
 Red. masses --      2.3007                 3.9944                 1.9395
 Frc consts  --      0.6842                 1.2104                 0.6917
 IR Inten    --      1.6463                 6.5196                 0.2777

                     31                     32                     33
                      A                      A                      A
 Frequencies --    787.8461               801.7751               813.8948
 Red. masses --      4.0697                 2.8042                 2.4001
 Frc consts  --      1.4883                 1.0621                 0.9367
 IR Inten    --      3.7548                 0.3377                 4.6588

                     34                     35                     36
                      A                      A                      A
 Frequencies --    831.3020               865.7296               872.8848
 Red. masses --      1.8383                 2.0211                 1.7644
 Frc consts  --      0.7485                 0.8925                 0.7921
 IR Inten    --      2.2106                 5.4732                 2.1242

                     37                     38                     39
                      A                      A                      A
 Frequencies --    879.8728               939.7752               964.7699
 Red. masses --      2.4327                 3.1589                 2.3113
 Frc consts  --      1.1096                 1.6437                 1.2675
 IR Inten    --      5.6170                 3.8437                 1.1724

                     40                     41                     42
                      A                      A                      A
 Frequencies --    965.3657               971.6047               996.0600
 Red. masses --      2.1787                 1.8163                 2.3325
 Frc consts  --      1.1963                 1.0102                 1.3635
 IR Inten    --     12.0967                 2.1112                 0.7178

                     43                     44                     45
                      A                      A                      A
 Frequencies --   1011.1624              1063.3734              1082.7075
 Red. masses --      1.6017                 2.0201                 2.3972
 Frc consts  --      0.9649                 1.3459                 1.6557
 IR Inten    --      5.2456                 9.3479                 1.9213

                     46                     47                     48
                      A                      A                      A
 Frequencies --   1115.2822              1126.0634              1139.3117
 Red. masses --      2.2902                 1.6618                 2.0341
 Frc consts  --      1.6784                 1.2415                 1.5556
 IR Inten    --      0.8535                 2.3854                 0.1153

                     49                     50                     51
                      A                      A                      A
 Frequencies --   1176.5030              1180.8035              1194.9871
 Red. masses --      1.7207                 1.5103                 1.3361
 Frc consts  --      1.4033                 1.2407                 1.1241
 IR Inten    --      8.8551                34.1965                 2.5736

                     52                     53                     54
                      A                      A                      A
 Frequencies --   1225.8496              1239.4733              1260.6579
 Red. masses --      1.1751                 1.1114                 1.3120
 Frc consts  --      1.0404                 1.0060                 1.2285
 IR Inten    --      3.4559                 1.2482                 3.5259

                     55                     56                     57
                      A                      A                      A
 Frequencies --   1277.4821              1288.7318              1298.8099
 Red. masses --      1.2437                 1.1780                 1.2239
 Frc consts  --      1.1958                 1.1527                 1.2165
 IR Inten    --      8.7598                 3.1790                 2.5631

                     58                     59                     60
                      A                      A                      A
 Frequencies --   1304.5706              1321.8254              1341.8067
 Red. masses --      1.2358                 1.2539                 1.1293
 Frc consts  --      1.2392                 1.2908                 1.1979
 IR Inten    --      9.5372                 0.8678                 5.8772

                     61                     62                     63
                      A                      A                      A
 Frequencies --   1366.3622              1372.9800              1385.9532
 Red. masses --      1.2627                 1.2920                 1.3376
 Frc consts  --      1.3889                 1.4350                 1.5138
 IR Inten    --      0.4524                 0.2219                 3.5514

                     64                     65                     66
                      A                      A                      A
 Frequencies --   1401.6033              1407.9289              1413.7697
 Red. masses --      1.5194                 1.3634                 1.4456
 Frc consts  --      1.7586                 1.5923                 1.7024
 IR Inten    --     78.4211                 5.3179                10.0168

                     67                     68                     69
                      A                      A                      A
 Frequencies --   1422.8581              1426.3136              1433.5495
 Red. masses --      1.6345                 1.7127                 1.4742
 Frc consts  --      1.9497                 2.0529                 1.7850
 IR Inten    --     67.6066                77.1647                26.7078

                     70                     71                     72
                      A                      A                      A
 Frequencies --   1442.4628              1465.8642              1491.6313
 Red. masses --      1.4179                 1.1007                 1.1961
 Frc consts  --      1.7383                 1.3936                 1.5679
 IR Inten    --      0.3779                22.3716                 6.9964

                     73                     74                     75
                      A                      A                      A
 Frequencies --   1500.9743              1509.4363              1512.6977
 Red. masses --      1.4374                 1.0919                 1.0833
 Frc consts  --      1.9080                 1.4658                 1.4605
 IR Inten    --    101.8285                 7.5104                 1.6263

                     76                     77                     78
                      A                      A                      A
 Frequencies --   1516.3342              1522.0353              1528.5517
 Red. masses --      1.1069                 1.0941                 1.0863
 Frc consts  --      1.4995                 1.4933                 1.4954
 IR Inten    --      8.1589                 3.3562                 8.1525

                     79                     80                     81
                      A                      A                      A
 Frequencies --   1541.6780              1549.0844              1759.1843
 Red. masses --      1.0938                 1.0842                 7.2429
 Frc consts  --      1.5318                 1.5328                13.2063
 IR Inten    --      4.3957                 9.9104               409.0465

                     82                     83                     84
                      A                      A                      A
 Frequencies --   2366.4596              3026.1729              3027.2987
 Red. masses --     12.5951                 1.0664                 1.0623
 Frc consts  --     41.5575                 5.7541                 5.7359
 IR Inten    --      7.1114                17.1825                18.9161

                     85                     86                     87
                      A                      A                      A
 Frequencies --   3030.4375              3040.7482              3046.6628
 Red. masses --      1.0624                 1.0676                 1.0643
 Frc consts  --      5.7487                 5.8161                 5.8206
 IR Inten    --     15.5295                11.5964                19.1339

                     88                     89                     90
                      A                      A                      A
 Frequencies --   3049.9279              3054.3564              3060.1427
 Red. masses --      1.0727                 1.0721                 1.0942
 Frc consts  --      5.8792                 5.8930                 6.0369
 IR Inten    --     20.9035                18.6410                26.8275

                     91                     92                     93
                      A                      A                      A
 Frequencies --   3061.0465              3068.7439              3075.9306
 Red. masses --      1.0958                 1.0784                 1.0994
 Frc consts  --      6.0496                 5.9834                 6.1285
 IR Inten    --     11.0037                41.2805               100.8480

                     94                     95                     96
                      A                      A                      A
 Frequencies --   3080.0167              3085.3576              3087.2794
 Red. masses --      1.0973                 1.1003                 1.0998
 Frc consts  --      6.1331                 6.1715                 6.1760
 IR Inten    --      6.6563                59.2639                88.8670

                     97                     98                     99
                      A                      A                      A
 Frequencies --   3090.8180              3103.0093              3110.3041
 Red. masses --      1.0572                 1.0611                 1.0957
 Frc consts  --      5.9503                 6.0196                 6.2454
 IR Inten    --      6.9961                 6.0855                51.6799

                    100                    101                    102
                      A                      A                      A
 Frequencies --   3148.8994              3165.3641              3615.5649
 Red. masses --      1.1074                 1.1047                 1.0745
 Frc consts  --      6.4693                 6.5214                 8.2757
 IR Inten    --      6.8664                 3.9120                36.5925

 - Thermochemistry -
 -------------------
 Temperature   298.150 Kelvin.  Pressure   1.00000 Atm.
 Atom     1 has atomic number  6 and mass  12.00000

 Molecular mass:   240.12964 amu.
 Principal axes and moments of inertia in atomic units:
                           1         2         3
     Eigenvalues --  1717.848868322.925748879.62388
           X            1.00000   0.00130   0.00144
           Y           -0.00125   0.99946  -0.03270
           Z           -0.00148   0.03270   0.99946
 This molecule is an asymmetric top.
 Rotational symmetry number  1.
 Warning -- assumption of classical behavior for rotation
           may cause significant error
 Rotational temperatures (Kelvin)      0.05042     0.01041     0.00975
 Rotational constants (GHZ):           1.05058     0.21684     0.20325
 Zero-point vibrational energy     826617.3 (Joules/Mol)
                                  197.56627 (Kcal/Mol)
 Warning -- explicit consideration of  25 degrees of freedom as
           vibrations may cause significant error
 Vibrational temperatures:     30.31    42.04    45.03    85.81   107.63
          (Kelvin)            156.75   214.40   251.42   264.38   288.50
                              312.59   325.20   386.29   409.57   451.18
                              482.21   532.78   547.40   604.83   666.68
                              719.63   728.60   743.98   787.10   823.10
                              942.30   974.75  1022.19  1031.83  1119.37
                             1133.53  1153.58  1171.01  1196.06  1245.59
                             1255.89  1265.94  1352.13  1388.09  1388.95
                             1397.92  1433.11  1454.84  1529.96  1557.77
                             1604.64  1620.15  1639.22  1692.73  1698.91
                             1719.32  1763.72  1783.33  1813.81  1838.01
                             1854.20  1868.70  1876.99  1901.81  1930.56
                             1965.89  1975.41  1994.08  2016.59  2025.70
                             2034.10  2047.18  2052.15  2062.56  2075.38
                             2109.05  2146.12  2159.57  2171.74  2176.43
                             2181.67  2189.87  2199.25  2218.13  2228.79
                             2531.07  3404.81  4353.99  4355.61  4360.12
                             4374.96  4383.47  4388.17  4394.54  4402.86
                             4404.16  4415.24  4425.58  4431.46  4439.14
                             4441.91  4447.00  4464.54  4475.03  4530.56
                             4554.25  5201.99

 Zero-point correction=                           0.314842 (Hartree/Particle)
 Thermal correction to Energy=                    0.331693
 Thermal correction to Enthalpy=                  0.332638
 Thermal correction to Gibbs Free Energy=         0.268178
 Sum of electronic and zero-point Energies=          -1051.984906
 Sum of electronic and thermal Energies=             -1051.968054
 Sum of electronic and thermal Enthalpies=           -1051.967110
 Sum of electronic and thermal Free Energies=        -1052.031569

                     E (Thermal)             CV                S
                      KCal/Mol        Cal/Mol-Kelvin    Cal/Mol-Kelvin
 Total                  208.141             63.225            135.666
 Electronic               0.000              0.000              0.000
 Translational            0.889              2.981             42.329
 Rotational               0.889              2.981             33.206
 Vibrational            206.363             57.263             60.130
 Vibration     1          0.593              1.985              6.531
 Vibration     2          0.593              1.984              5.882
 Vibration     3          0.594              1.983              5.745
 Vibration     4          0.597              1.974              4.469
 Vibration     5          0.599              1.966              4.023
 Vibration     6          0.606              1.942              3.288
 Vibration     7          0.618              1.904              2.685
 Vibration     8          0.627              1.874              2.384
 Vibration     9          0.631              1.862              2.290
 Vibration    10          0.638              1.839              2.128
 Vibration    11          0.646              1.815              1.982
 Vibration    12          0.650              1.801              1.910
 Vibration    13          0.673              1.731              1.606
 Vibration    14          0.683              1.702              1.505
 Vibration    15          0.701              1.648              1.343
 Vibration    16          0.716              1.605              1.235
 Vibration    17          0.742              1.533              1.079
 Vibration    18          0.750              1.512              1.037
 Vibration    19          0.783              1.426              0.891
 Vibration    20          0.821              1.331              0.756
 Vibration    21          0.856              1.250              0.658
 Vibration    22          0.862              1.236              0.642
 Vibration    23          0.872              1.212              0.617
 Vibration    24          0.902              1.146              0.550
 Vibration    25          0.928              1.092              0.500

 Optimization completed.
    -- Stationary point found.
 Normal termination of Gaussian 16 at Thu Dec 10 22:00:28 2020.

 ----------------------------------------------------------------------
 # B3LYP/6-311++G(d,p) empiricaldispersion=gd3bj scf=xqc pop=npa geom=c
 heck
 ----------------------------------------------------------------------

 --------------------------------------
 CID_51077854_JID_6134_Energie_neutraal
 --------------------------------------
 Structure from the checkpoint file:  "JID_6134.chk"
 Charge =  0 Multiplicity = 1

 SCF Done:  E(RB3LYP) =  -1052.51337569     A.U. after   15 cycles
 Normal termination of Gaussian 16 at Thu Dec 10 22:06:54 2020.

 ----------------------------------------------------------------------
 # B3LYP/6-311++G(d,p) empiricaldispersion=gd3bj scf=xqc pop=npa geom=c
 heck
 ----------------------------------------------------------------------

 ------------------------------------
 CID_51077854_JID_6134_Energie_kation
 ------------------------------------
 Structure from the checkpoint file:  "JID_6134.chk"
 Charge =  1 Multiplicity = 2

 SCF Done:  E(UB3LYP) =  -1052.19339905     A.U. after   27 cycles
 Normal termination of Gaussian 16 at Thu Dec 10 22:21:54 2020.
 Gaussian 16:  ES64L-G16RevA.03 25-Dec-2016

 ----------------------------------------------------------------------
 # B3LYP/6-311++G(d,p) empiricaldispersion=gd3bj scf=xqc pop=npa geom=c
 heck
 ----------------------------------------------------------------------

 -----------------------------------
 CID_51077854_JID_6134_Energie_anion
 -----------------------------------
 Structure from the checkpoint file:  "JID_6134.chk"
 Charge = -1 Multiplicity = 2

                         Standard orientation:
 ---------------------------------------------------------------------
 Center     Atomic      Atomic             Coordinates (Angstroms)
 Number     Number       Type             X           Y           Z
 ---------------------------------------------------------------------
      1          6           0       -4.227340    0.331015   -1.035532
      2          6           0       -3.384670   -0.947862   -1.082504
      3          6           0       -3.149692   -1.690747    0.241448
      4          6           0       -2.436035   -0.969514    1.403471
      5          6           0       -1.118425   -0.207952    1.113590
      6          6           0       -1.270991    1.297137    0.796268
      7          6           0       -2.124463    1.746343   -0.398265
      8          6           0       -3.645338    1.514984   -0.238791
      9          7           0       -0.317292   -0.930959    0.123711
     10          6           0        1.032811   -0.958737   -0.055413
     11          8           0        1.534260   -1.520005   -1.029678
     12          6           0        1.927379   -0.276950    0.968449
     13         16           0        2.601953    1.299002    0.301120
     14          6           0        3.700394    0.610911   -1.008995
     15          6           0        4.789634   -0.178023   -0.443033
     16          7           0        5.624576   -0.822410    0.042300
     17          1           0       -5.227334    0.095329   -0.646400
     18          1           0       -4.376330    0.655118   -2.074223
     19          1           0       -3.879390   -1.652529   -1.763302
     20          1           0       -2.427184   -0.714572   -1.564692
     21          1           0       -2.590290   -2.608163    0.013694
     22          1           0       -4.119932   -2.032074    0.626019
     23          1           0       -2.216837   -1.739886    2.152394
     24          1           0       -3.119742   -0.266454    1.888512
     25          1           0       -0.554387   -0.239551    2.051708
     26          1           0       -0.259270    1.699009    0.662948
     27          1           0       -1.672982    1.770966    1.703414
     28          1           0       -1.752497    1.283861   -1.320933
     29          1           0       -1.940562    2.819995   -0.521090
     30          1           0       -4.182377    2.416876   -0.555862
     31          1           0       -3.879177    1.402025    0.826062
     32          1           0       -0.806109   -1.366004   -0.647629
     33          1           0        1.427656   -0.006250    1.899310
     34          1           0        2.762977   -0.943153    1.198976
     35          1           0        3.103848   -0.017956   -1.675174
     36          1           0        4.094031    1.469383   -1.560440
 ---------------------------------------------------------------------

 SCF Done:  E(UB3LYP) =  -1052.50774701     A.U. after   33 cycles
 SCF Done:  E(UB3LYP) =  -1052.50774701     a.u. after    1 cycles

 The electronic state is 2-A.
 Alpha  occ. eigenvalues --  -88.77175 -18.99907 -14.24575 -14.23085 -10.18830
 Alpha  occ. eigenvalues --  -10.15368 -10.13163 -10.12169 -10.12146 -10.07648
 Alpha  occ. eigenvalues --  -10.07581 -10.07534 -10.07238 -10.07235 -10.07173
 Alpha  occ. eigenvalues --  -10.06940  -7.85719  -5.82144  -5.81788  -5.81033
 Alpha  occ. eigenvalues --   -0.95141  -0.83681  -0.82877  -0.74116  -0.72728
 Alpha  occ. eigenvalues --   -0.68413  -0.68099  -0.66833  -0.59463  -0.59154
 Alpha  occ. eigenvalues --   -0.56825  -0.51476  -0.49648  -0.48068  -0.46106
 Alpha  occ. eigenvalues --   -0.43419  -0.41599  -0.39652  -0.39160  -0.38121
 Alpha  occ. eigenvalues --   -0.37863  -0.36249  -0.35040  -0.33704  -0.33089
 Alpha  occ. eigenvalues --   -0.32830  -0.32293  -0.31082  -0.30689  -0.28877
 Alpha  occ. eigenvalues --   -0.28181  -0.27679  -0.26527  -0.25976  -0.25610
 Alpha  occ. eigenvalues --   -0.25127  -0.24740  -0.24313  -0.23712  -0.22417
 Alpha  occ. eigenvalues --   -0.21510  -0.20988  -0.18204  -0.16406  -0.15097
 Alpha  occ. eigenvalues --    0.03834
 Alpha virt. eigenvalues --    0.05759   0.06466   0.06601   0.07205   0.07307
 Alpha virt. eigenvalues --    0.08278   0.08875   0.09109   0.09670   0.09958
 Alpha virt. eigenvalues --    0.10279   0.11165   0.11415   0.11790   0.11980

  Beta  occ. eigenvalues --  -88.77147 -18.99889 -14.24565 -14.23049 -10.18811
  Beta  occ. eigenvalues --  -10.15336 -10.13157 -10.12153 -10.12089 -10.07630
  Beta  occ. eigenvalues --  -10.07571 -10.07507 -10.07229 -10.07217 -10.07150
  Beta  occ. eigenvalues --  -10.06919  -7.85692  -5.82055  -5.81770  -5.81017
  Beta  occ. eigenvalues --   -0.95105  -0.83650  -0.82821  -0.74008  -0.72689
  Beta  occ. eigenvalues --   -0.68375  -0.68045  -0.66748  -0.59419  -0.59102
  Beta  occ. eigenvalues --   -0.56691  -0.51414  -0.49586  -0.48004  -0.46053
  Beta  occ. eigenvalues --   -0.43365  -0.41520  -0.39576  -0.39090  -0.38085
  Beta  occ. eigenvalues --   -0.37811  -0.36172  -0.34992  -0.33663  -0.33035
  Beta  occ. eigenvalues --   -0.32787  -0.32241  -0.30983  -0.30578  -0.28810
  Beta  occ. eigenvalues --   -0.28142  -0.27623  -0.26445  -0.25873  -0.25568
  Beta  occ. eigenvalues --   -0.25079  -0.24680  -0.24263  -0.23567  -0.22372
  Beta  occ. eigenvalues --   -0.21469  -0.20948  -0.18167  -0.16344  -0.15034
  Beta virt. eigenvalues --    0.06132   0.06246   0.06943   0.07313   0.07626
  Beta virt. eigenvalues --    0.07709   0.08593   0.09240   0.09712   0.09923
  Beta virt. eigenvalues --    0.10213   0.10507   0.11355   0.11600   0.11913

 Mulliken charges and spin densities:
               1          2
     1  C    0.633751  -1.364668
     2  C   -0.283539   0.346709
     3  C   -0.094352  -0.449754
     4  C    0.693937  -1.134709
     5  C   -0.227587   0.511266
     6  C    0.957150  -1.485307
     7  C   -0.830817   0.554720
     8  C    0.064734  -0.143845
     9  N   -0.193140   0.072340
    10  C   -0.128898  -0.168379
    11  O   -0.314260   0.002294
    12  C    0.065187  -0.256856
    13  S    0.099795   0.169148
    14  C   -0.368490   0.015073
    15  C    0.009321   0.001714
    16  N   -0.345516   0.015541
    17  H   -0.206982   0.352725
    18  H    0.005081   0.136798
    19  H   -0.157372   0.353338
    20  H   -0.011699   0.051240
    21  H    0.035579   0.126800
    22  H   -0.285615   0.460854
    23  H   -0.448262   0.644903
    24  H   -0.117366   0.264931
    25  H    0.083638   0.146091
    26  H    0.267396  -0.237528
    27  H   -0.561712   0.743407
    28  H    0.099888   0.031508
    29  H   -0.046792   0.229281
    30  H   -0.281031   0.456695
    31  H    0.136924  -0.010905
    32  H    0.417589  -0.057868
    33  H   -0.347988   0.591649
    34  H    0.219559   0.022974
    35  H    0.242067   0.000028
    36  H    0.219823   0.007793
 Sum of Mulliken charges =  -1.00000   1.00000

 Dipole moment (field-independent basis, Debye):
    X=              2.6552    Y=              2.2071    Z=             -4.0252  Tot=              5.3032
 Quadrupole moment (field-independent basis, Debye-Ang):
   XX=           -210.6462   YY=           -147.5378   ZZ=           -143.8280
   XY=             11.1493   XZ=             -2.9707   YZ=             -3.3884

 Summary of Natural Population Analysis:

                                       Natural Population
                Natural  -----------------------------------------------
    Atom  No    Charge         Core      Valence    Rydberg      Total
 -----------------------------------------------------------------------
      C    1   -0.18644      0.99962     2.17842    0.00840     3.18644
      C    2   -0.19267      0.99962     2.18469    0.00836     3.19267
      C    3   -0.19535      0.99962     2.18700    0.00873     3.19535
      C    4   -0.19146      0.99960     2.18226    0.00961     3.19146
      C    5   -0.01194      0.99957     1.99805    0.01432     3.01194
      C    6   -0.19125      0.99959     2.18245    0.00921     3.19125
      C    7   -0.19501      0.99962     2.18666    0.00874     3.19501
      C    8   -0.19267      0.99962     2.18499    0.00805     3.19267
      N    9   -0.31487      0.99965     2.80525    0.00997     3.81487
      C   10    0.33949      0.99965     1.63762    0.02323     2.66051
      O   11   -0.33669      0.99988     3.33127    0.00554     4.33669
      C   12   -0.29145      0.99955     2.28020    0.01169     3.29145
      S   13    0.12824      4.99965     2.85429    0.01781     7.87176
      C   14   -0.31056      0.99949     2.30273    0.00833     3.31056
      C   15    0.14852      0.99966     1.83442    0.01740     2.85148
      N   16   -0.17753      0.99979     2.66700    0.01073     3.67753
      H   17    0.09722      0.00000     0.40157    0.00121     0.40278
      H   18    0.09427      0.00000     0.40467    0.00106     0.40573
      H   19    0.10137      0.00000     0.39763    0.00100     0.39863
      H   20    0.08730      0.00000     0.41101    0.00169     0.41270
      H   21    0.09584      0.00000     0.40287    0.00129     0.40416
      H   22    0.10277      0.00000     0.39592    0.00132     0.39723
      H   23    0.10469      0.00000     0.39354    0.00177     0.39531
      H   24    0.10168      0.00000     0.39672    0.00160     0.39832
      H   25    0.10335      0.00000     0.39292    0.00374     0.39665
      H   26    0.10226      0.00000     0.39597    0.00177     0.39774
      H   27    0.09898      0.00000     0.39932    0.00170     0.40102
      H   28    0.09407      0.00000     0.40447    0.00147     0.40593
      H   29    0.10092      0.00000     0.39809    0.00100     0.39908
      H   30    0.09883      0.00000     0.39997    0.00120     0.40117
      H   31    0.09480      0.00000     0.40362    0.00158     0.40520
      H   32    0.19609      0.00000     0.30128    0.00264     0.30391
      H   33    0.11771      0.00000     0.38072    0.00156     0.38229
      H   34    0.11788      0.00000     0.38055    0.00157     0.38212
      H   35    0.14037      0.00000     0.35827    0.00135     0.35963
      H   36    0.12123      0.00000     0.37788    0.00089     0.37877
 =======================================================================
   * Total *   -0.00000     19.99418    44.79428    0.21154    65.00000

 Normal termination of Gaussian 16 at Thu Dec 10 22:38:58 2020.
