 Gaussian 16, Revision A.03,

 -----------------------------------------------------------
 # opt freq B3LYP/6-31G(d) empiricaldispersion=gd3bj scf=xqc
 -----------------------------------------------------------

 -------------------------------
 CID_106415961_JID_3277_neutraal
 -------------------------------
 Symbolic Z-matrix:
 Charge =  0 Multiplicity = 1

 SCF Done:  E(RB3LYP) =  -663.302356642     A.U. after   15 cycles
 SCF Done:  E(RB3LYP) =  -663.306732252     A.U. after   13 cycles
 SCF Done:  E(RB3LYP) =  -663.307470747     A.U. after   12 cycles
 SCF Done:  E(RB3LYP) =  -663.307746392     A.U. after   12 cycles
 SCF Done:  E(RB3LYP) =  -663.307853619     A.U. after   12 cycles
 SCF Done:  E(RB3LYP) =  -663.308088630     A.U. after   12 cycles
 SCF Done:  E(RB3LYP) =  -663.308080051     A.U. after   13 cycles
 SCF Done:  E(RB3LYP) =  -663.308257963     A.U. after   12 cycles
 SCF Done:  E(RB3LYP) =  -663.308193855     A.U. after   12 cycles
 SCF Done:  E(RB3LYP) =  -663.308170988     A.U. after   13 cycles
 SCF Done:  E(RB3LYP) =  -663.308404912     A.U. after   11 cycles
 SCF Done:  E(RB3LYP) =  -663.308421324     A.U. after   11 cycles
 SCF Done:  E(RB3LYP) =  -663.308421022     A.U. after   10 cycles
 SCF Done:  E(RB3LYP) =  -663.308423062     A.U. after   10 cycles
 SCF Done:  E(RB3LYP) =  -663.308423161     A.U. after    7 cycles
 Optimization completed.
    -- Stationary point found.
 Normal termination of Gaussian 16 at Wed Dec  9 22:44:13 2020.

 --------------------------------------------------------------------
 #N Geom=AllCheck Guess=TCheck SCRF=Check GenChk RB3LYP/6-31G(d) Freq
 --------------------------------------------------------------------

 Structure from the checkpoint file:  "JID_3277.chk"
 -------------------------------
 CID_106415961_JID_3277_neutraal
 -------------------------------
 Charge =  0 Multiplicity = 1

 SCF Done:  E(RB3LYP) =  -663.308423161     A.U. after    1 cycles

  Exact polarizability: 102.001 -12.318 104.045   1.474   0.166  79.253
 Approx polarizability: 140.146 -19.851 144.950   7.585   0.355 140.323

                      1                      2                      3
                      A                      A                      A
 Frequencies --     24.8278                41.5557                61.4678
 Red. masses --      5.1611                 8.2762                 4.0487
 Frc consts  --      0.0019                 0.0084                 0.0090
 IR Inten    --      0.4586                 0.9915                 1.0434

                      4                      5                      6
                      A                      A                      A
 Frequencies --     73.2702                77.2748               105.4289
 Red. masses --      3.8439                 1.2942                 5.5356
 Frc consts  --      0.0122                 0.0046                 0.0363
 IR Inten    --      0.7053                 0.3250                 0.5445

                      7                      8                      9
                      A                      A                      A
 Frequencies --    180.0395               210.6505               259.5563
 Red. masses --      2.8969                 3.7747                 3.7381
 Frc consts  --      0.0553                 0.0987                 0.1484
 IR Inten    --      3.4294                 2.1590                 4.0725

                     10                     11                     12
                      A                      A                      A
 Frequencies --    292.6743               318.7279               343.0504
 Red. masses --      2.3278                 2.6389                 4.0717
 Frc consts  --      0.1175                 0.1579                 0.2823
 IR Inten    --      6.5326                 0.1154                 2.2647

                     13                     14                     15
                      A                      A                      A
 Frequencies --    412.1999               447.6614               503.5535
 Red. masses --      2.6595                 4.5184                 1.7547
 Frc consts  --      0.2662                 0.5335                 0.2621
 IR Inten    --      2.0783                19.0035                17.0759

                     16                     17                     18
                      A                      A                      A
 Frequencies --    537.6454               618.6138               654.0599
 Red. masses --      3.7572                 3.6971                 4.0619
 Frc consts  --      0.6399                 0.8336                 1.0238
 IR Inten    --     11.0450                 3.1939                 8.2235

                     19                     20                     21
                      A                      A                      A
 Frequencies --    668.9245               681.6851               738.3765
 Red. masses --      4.4434                 1.4131                 4.4322
 Frc consts  --      1.1714                 0.3869                 1.4237
 IR Inten    --      1.7603               105.7859                 3.7790

                     22                     23                     24
                      A                      A                      A
 Frequencies --    770.2872               785.1764               854.5041
 Red. masses --      3.9206                 1.9633                 3.0676
 Frc consts  --      1.3706                 0.7131                 1.3197
 IR Inten    --     10.5938               108.7353                10.0245

                     25                     26                     27
                      A                      A                      A
 Frequencies --    885.5481               915.6101               964.4956
 Red. masses --      2.1758                 5.2002                 2.4384
 Frc consts  --      1.0053                 2.5686                 1.3364
 IR Inten    --     23.0595                10.4367                 7.3292

                     28                     29                     30
                      A                      A                      A
 Frequencies --   1000.5716              1006.4497              1032.6285
 Red. masses --      2.1537                 2.4133                 3.8600
 Frc consts  --      1.2704                 1.4403                 2.4251
 IR Inten    --      1.6359                10.0197                 6.2775

                     31                     32                     33
                      A                      A                      A
 Frequencies --   1078.8011              1082.1244              1088.7113
 Red. masses --      3.8377                 1.6651                 2.1925
 Frc consts  --      2.6315                 1.1488                 1.5312
 IR Inten    --      2.1672                 5.3882                 9.6038

                     34                     35                     36
                      A                      A                      A
 Frequencies --   1122.8590              1167.1011              1198.0173
 Red. masses --      2.2413                 3.0678                 3.0600
 Frc consts  --      1.6650                 2.4620                 2.5876
 IR Inten    --      6.9397               308.9226                21.1166

                     37                     38                     39
                      A                      A                      A
 Frequencies --   1219.8927              1246.3219              1310.7740
 Red. masses --      1.3041                 1.1469                 3.0646
 Frc consts  --      1.1435                 1.0496                 3.1022
 IR Inten    --      7.0914                11.0199                18.7689

                     40                     41                     42
                      A                      A                      A
 Frequencies --   1325.0643              1332.1791              1356.3717
 Red. masses --      1.5420                 1.4235                 1.5446
 Frc consts  --      1.5951                 1.4884                 1.6742
 IR Inten    --     19.4356                 8.4042                28.4697

                     43                     44                     45
                      A                      A                      A
 Frequencies --   1400.6851              1414.2982              1428.5106
 Red. masses --      1.6124                 2.3500                 1.5881
 Frc consts  --      1.8639                 2.7694                 1.9094
 IR Inten    --     25.6617                23.6643                28.3099

                     46                     47                     48
                      A                      A                      A
 Frequencies --   1437.4110              1486.1527              1499.0570
 Red. masses --      1.5542                 1.0886                 1.1471
 Frc consts  --      1.8920                 1.4166                 1.5188
 IR Inten    --     30.4073                12.1053                13.8268

                     49                     50                     51
                      A                      A                      A
 Frequencies --   1501.4066              1508.9270              1546.9176
 Red. masses --      1.0668                 1.0769                 1.1383
 Frc consts  --      1.4169                 1.4446                 1.6049
 IR Inten    --      8.6151                13.8832                 1.3611

                     52                     53                     54
                      A                      A                      A
 Frequencies --   1566.8778              1571.6675              1644.1643
 Red. masses --      1.1835                 5.8141                 7.9943
 Frc consts  --      1.7119                 8.4616                12.7327
 IR Inten    --     39.0993                 8.7640                95.3690

                     55                     56                     57
                      A                      A                      A
 Frequencies --   1840.9006              2997.1900              3049.9734
 Red. masses --      9.7200                 1.0678                 1.0657
 Frc consts  --     19.4077                 5.6514                 5.8407
 IR Inten    --    269.6687                34.9379                24.5444

                     58                     59                     60
                      A                      A                      A
 Frequencies --   3057.7840              3070.0063              3087.4774
 Red. masses --      1.0926                 1.0384                 1.0610
 Frc consts  --      6.0191                 5.7661                 5.9588
 IR Inten    --     45.2819                 5.5160                23.3369

                     61                     62                     63
                      A                      A                      A
 Frequencies --   3101.7577              3132.4202              3136.9001
 Red. masses --      1.0980                 1.0997                 1.1061
 Frc consts  --      6.2237                 6.3575                 6.4130
 IR Inten    --      9.0140                 5.7145                 8.5505

                     64                     65                     66
                      A                      A                      A
 Frequencies --   3176.9934              3487.9583              3677.3219
 Red. masses --      1.1023                 1.0737                 1.0640
 Frc consts  --      6.5549                 7.6960                 8.4776
 IR Inten    --      3.0996                20.0678                34.1572

 - Thermochemistry -
 -------------------
 Temperature   298.150 Kelvin.  Pressure   1.00000 Atm.
 Atom     1 has atomic number  6 and mass  12.00000

 Molecular mass:   185.08004 amu.
 Principal axes and moments of inertia in atomic units:
                           1         2         3
     Eigenvalues --  1574.680323074.224184039.75799
           X            0.99897  -0.04472  -0.00779
           Y            0.04467   0.99898  -0.00642
           Z            0.00807   0.00607   0.99995
 This molecule is an asymmetric top.
 Rotational symmetry number  1.
 Warning -- assumption of classical behavior for rotation
           may cause significant error
 Rotational temperatures (Kelvin)      0.05500     0.02817     0.02144
 Rotational constants (GHZ):           1.14610     0.58706     0.44674
 Zero-point vibrational energy     507321.3 (Joules/Mol)
                                  121.25269 (Kcal/Mol)
 Warning -- explicit consideration of  17 degrees of freedom as
           vibrations may cause significant error
 Vibrational temperatures:     35.72    59.79    88.44   105.42   111.18
          (Kelvin)            151.69   259.04   303.08   373.44   421.09
                              458.58   493.57   593.06   644.08   724.50
                              773.55   890.05   941.05   962.43   980.79
                             1062.36  1108.27  1129.69  1229.44  1274.11
                             1317.36  1387.69  1439.60  1448.06  1485.72
                             1552.15  1556.94  1566.41  1615.54  1679.20
                             1723.68  1755.15  1793.18  1885.91  1906.47
                             1916.71  1951.52  2015.27  2034.86  2055.31
                             2068.11  2138.24  2156.81  2160.19  2171.01
                             2225.67  2254.39  2261.28  2365.59  2648.65
                             4312.29  4388.23  4399.47  4417.05  4442.19
                             4462.74  4506.85  4513.30  4570.98  5018.39
                             5290.85

 Zero-point correction=                           0.193228 (Hartree/Particle)
 Thermal correction to Energy=                    0.206079
 Thermal correction to Enthalpy=                  0.207023
 Thermal correction to Gibbs Free Energy=         0.151586
 Sum of electronic and zero-point Energies=           -663.115195
 Sum of electronic and thermal Energies=              -663.102344
 Sum of electronic and thermal Enthalpies=            -663.101400
 Sum of electronic and thermal Free Energies=         -663.156837

                     E (Thermal)             CV                S
                      KCal/Mol        Cal/Mol-Kelvin    Cal/Mol-Kelvin
 Total                  129.316             45.646            116.677
 Electronic               0.000              0.000              0.000
 Translational            0.889              2.981             41.553
 Rotational               0.889              2.981             31.348
 Vibrational            127.539             39.685             43.776
 Vibration     1          0.593              1.985              6.205
 Vibration     2          0.594              1.981              5.184
 Vibration     3          0.597              1.973              4.410
 Vibration     4          0.599              1.967              4.064
 Vibration     5          0.599              1.964              3.959
 Vibration     6          0.605              1.945              3.351
 Vibration     7          0.629              1.867              2.328
 Vibration     8          0.643              1.825              2.038
 Vibration     9          0.668              1.747              1.665
 Vibration    10          0.688              1.687              1.458
 Vibration    11          0.705              1.638              1.317
 Vibration    12          0.722              1.589              1.198
 Vibration    13          0.776              1.444              0.919
 Vibration    14          0.807              1.366              0.803
 Vibration    15          0.859              1.242              0.649
 Vibration    16          0.893              1.167              0.570
 Vibration    17          0.978              0.993              0.419

                           ! Non-Optimized Parameters !
 Normal termination of Gaussian 16 at Wed Dec  9 22:49:50 2020.

 ----------------------------------------------------------------------
 # B3LYP/6-311++G(d,p) empiricaldispersion=gd3bj scf=xqc pop=npa geom=c
 heck
 ----------------------------------------------------------------------

 ---------------------------------------
 CID_106415961_JID_3277_Energie_neutraal
 ---------------------------------------
 Structure from the checkpoint file:  "JID_3277.chk"
 Charge =  0 Multiplicity = 1

 SCF Done:  E(RB3LYP) =  -663.508290616     A.U. after   14 cycles
 Normal termination of Gaussian 16 at Wed Dec  9 22:52:31 2020.

 ----------------------------------------------------------------------
 # B3LYP/6-311++G(d,p) empiricaldispersion=gd3bj scf=xqc pop=npa geom=c
 heck
 ----------------------------------------------------------------------

 -------------------------------------
 CID_106415961_JID_3277_Energie_kation
 -------------------------------------
 Structure from the checkpoint file:  "JID_3277.chk"
 Charge =  1 Multiplicity = 2

 SCF Done:  E(UB3LYP) =  -663.185940769     A.U. after   23 cycles
 Normal termination of Gaussian 16 at Wed Dec  9 22:56:20 2020.
 Gaussian 16:  ES64L-G16RevA.03 25-Dec-2016

 ----------------------------------------------------------------------
 # B3LYP/6-311++G(d,p) empiricaldispersion=gd3bj scf=xqc pop=npa geom=c
 heck
 ----------------------------------------------------------------------

 ------------------------------------
 CID_106415961_JID_3277_Energie_anion
 ------------------------------------
 Structure from the checkpoint file:  "JID_3277.chk"
 Charge = -1 Multiplicity = 2

                         Standard orientation:
 ---------------------------------------------------------------------
 Center     Atomic      Atomic             Coordinates (Angstroms)
 Number     Number       Type             X           Y           Z
 ---------------------------------------------------------------------
      1          6           0        2.985979   -1.932319   -0.467301
      2          6           0        2.311223   -0.647814   -0.148583
      3          7           0        1.734551    0.190439   -0.960562
      4          6           0        1.246389    1.151279   -0.098983
      5          7           0        1.514088    0.937400    1.166551
      6          8           0        2.236184   -0.274762    1.140959
      7          6           0        0.349716    2.258262   -0.548003
      8          6           0       -1.070451    1.706836   -0.759293
      9          7           0       -1.663769    1.327766    0.525886
     10          6           0       -2.676376    0.304278    0.410990
     11          6           0       -2.128287   -1.081138    0.070012
     12          8           0       -0.961550   -1.405076    0.117307
     13          8           0       -3.117832   -1.945010   -0.259041
     14          1           0        3.941567   -2.013810    0.058904
     15          1           0        2.353404   -2.770841   -0.155073
     16          1           0        3.150062   -1.995635   -1.543913
     17          1           0        0.330062    3.050387    0.206516
     18          1           0        0.727246    2.673072   -1.486989
     19          1           0       -1.694918    2.478862   -1.226842
     20          1           0       -1.003346    0.861848   -1.463612
     21          1           0       -0.928104    0.985673    1.143183
     22          1           0       -3.223567    0.205761    1.358418
     23          1           0       -3.421634    0.584744   -0.341587
     24          1           0       -2.688436   -2.806805   -0.418964
 ---------------------------------------------------------------------

 SCF Done:  E(UB3LYP) =  -663.496217563     A.U. after   33 cycles
 SCF Done:  E(UB3LYP) =  -663.496217563     a.u. after    1 cycles

 The electronic state is 2-A.
 Alpha  occ. eigenvalues --  -19.10601 -19.06341 -19.01274 -14.25447 -14.21018
 Alpha  occ. eigenvalues --  -14.20027 -10.20095 -10.17008 -10.13290 -10.10918
 Alpha  occ. eigenvalues --  -10.09830 -10.08819 -10.08803  -1.05424  -1.00473
 Alpha  occ. eigenvalues --   -0.91733  -0.83420  -0.81461  -0.77197  -0.67831
 Alpha  occ. eigenvalues --   -0.64576  -0.61494  -0.54670  -0.51014  -0.49416
 Alpha  occ. eigenvalues --   -0.48549  -0.41303  -0.40240  -0.39891  -0.38203
 Alpha  occ. eigenvalues --   -0.38106  -0.36820  -0.35063  -0.33581  -0.32430
 Alpha  occ. eigenvalues --   -0.32139  -0.31719  -0.30028  -0.29154  -0.27613
 Alpha  occ. eigenvalues --   -0.26867  -0.26232  -0.23636  -0.22398  -0.21627
 Alpha  occ. eigenvalues --   -0.19370  -0.18515  -0.17997  -0.13566   0.04612
 Alpha virt. eigenvalues --    0.06757   0.07097   0.07528   0.08762   0.09160
 Alpha virt. eigenvalues --    0.10122   0.10508   0.10880   0.11518   0.12168
 Alpha virt. eigenvalues --    0.12449   0.13233   0.14009   0.15227   0.15520

  Beta  occ. eigenvalues --  -19.10525 -19.06278 -19.01258 -14.25344 -14.21035
  Beta  occ. eigenvalues --  -14.20024 -10.20095 -10.16922 -10.13259 -10.10884
  Beta  occ. eigenvalues --  -10.09804 -10.08819 -10.08779  -1.05293  -1.00397
  Beta  occ. eigenvalues --   -0.91667  -0.83364  -0.81444  -0.77047  -0.67784
  Beta  occ. eigenvalues --   -0.64484  -0.61417  -0.54594  -0.50931  -0.49310
  Beta  occ. eigenvalues --   -0.48466  -0.41225  -0.40174  -0.39756  -0.38066
  Beta  occ. eigenvalues --   -0.38028  -0.36777  -0.34997  -0.33534  -0.32353
  Beta  occ. eigenvalues --   -0.32041  -0.31622  -0.29973  -0.29107  -0.27561
  Beta  occ. eigenvalues --   -0.26820  -0.26187  -0.23523  -0.22332  -0.21477
  Beta  occ. eigenvalues --   -0.19327  -0.18457  -0.17539  -0.13531
  Beta virt. eigenvalues --    0.07032   0.07389   0.08098   0.08395   0.09274
  Beta virt. eigenvalues --    0.09815   0.10220   0.10846   0.11145   0.12029
  Beta virt. eigenvalues --    0.12543   0.12700   0.13438   0.14302   0.15237

 Mulliken charges and spin densities:
               1          2
     1  C    1.426310  -1.977707
     2  C   -1.187009   1.184533
     3  N   -0.079985   0.112241
     4  C    0.427742  -0.306997
     5  N   -0.323624   0.135969
     6  O    0.172147   0.010317
     7  C   -0.945152   0.260128
     8  C    0.454962  -0.689693
     9  N   -0.101550   0.111206
    10  C    1.065376  -1.634705
    11  C    0.018140   0.125150
    12  O   -0.292335   0.006100
    13  O   -0.190173   0.059077
    14  H   -0.044322   0.193174
    15  H   -0.316495   0.527058
    16  H   -0.076187   0.241383
    17  H    0.141912   0.041846
    18  H    0.040453   0.128112
    19  H   -0.435083   0.628327
    20  H    0.056587   0.067387
    21  H    0.233018   0.013195
    22  H   -0.136625   0.338466
    23  H   -0.214428   0.424756
    24  H   -0.693682   1.000675
 Sum of Mulliken charges =  -1.00000   1.00000

 Dipole moment (field-independent basis, Debye):
    X=              4.0997    Y=              4.6399    Z=              1.0810  Tot=              6.2852
 Quadrupole moment (field-independent basis, Debye-Ang):
   XX=           -128.6544   YY=           -128.4740   ZZ=           -103.3314
   XY=             -4.5766   XZ=             -4.7087   YZ=             -3.6316

 Summary of Natural Population Analysis:

                                       Natural Population
                Natural  -----------------------------------------------
    Atom  No    Charge         Core      Valence    Rydberg      Total
 -----------------------------------------------------------------------
      C    1   -0.31660      0.99962     2.31152    0.00546     3.31660
      C    2    0.30414      0.99964     1.67687    0.01934     2.69586
      N    3   -0.27533      0.99966     2.76603    0.00963     3.77533
      C    4    0.18186      0.99964     1.79943    0.01907     2.81814
      N    5   -0.08992      0.99965     2.57878    0.01149     3.58992
      O    6   -0.16728      0.99985     3.15916    0.00827     4.16728
      C    7   -0.21577      0.99958     2.20661    0.00959     3.21577
      C    8   -0.08135      0.99962     2.07063    0.01110     3.08135
      N    9   -0.34465      0.99975     2.83257    0.01234     3.84465
      C   10   -0.13597      0.99959     2.12404    0.01234     3.13597
      C   11    0.39729      0.99973     1.57794    0.02504     2.60271
      O   12   -0.30817      0.99987     3.30000    0.00831     4.30817
      O   13   -0.34605      0.99988     3.33907    0.00710     4.34605
      H   14    0.10827      0.00000     0.39077    0.00096     0.39173
      H   15    0.12347      0.00000     0.37431    0.00222     0.37653
      H   16    0.11422      0.00000     0.38476    0.00102     0.38578
      H   17    0.10949      0.00000     0.38931    0.00119     0.39051
      H   18    0.11137      0.00000     0.38768    0.00095     0.38863
      H   19    0.09289      0.00000     0.40529    0.00182     0.40711
      H   20    0.09002      0.00000     0.40820    0.00178     0.40998
      H   21    0.18290      0.00000     0.31252    0.00457     0.31710
      H   22    0.10938      0.00000     0.38955    0.00106     0.39062
      H   23    0.10831      0.00000     0.39028    0.00141     0.39169
      H   24    0.24746      0.00000     0.21664    0.03590     0.25254
 =======================================================================
   * Total *    0.00000     12.99607    35.79195    0.21197    49.00000

 Normal termination of Gaussian 16 at Wed Dec  9 23:01:56 2020.
