 Gaussian 16, Revision A.03,

 -----------------------------------------------------------
 # opt freq B3LYP/6-31G(d) empiricaldispersion=gd3bj scf=xqc
 -----------------------------------------------------------

 ------------------------------
 CID_87814796_JID_5920_neutraal
 ------------------------------
 Symbolic Z-matrix:
 Charge =  0 Multiplicity = 1

 SCF Done:  E(RB3LYP) =  -670.142428739     A.U. after   14 cycles
 SCF Done:  E(RB3LYP) =  -670.143426911     A.U. after   13 cycles
 SCF Done:  E(RB3LYP) =  -670.141061100     A.U. after   14 cycles
 SCF Done:  E(RB3LYP) =  -670.144970649     A.U. after   12 cycles
 SCF Done:  E(RB3LYP) =  -670.145442495     A.U. after   13 cycles
 SCF Done:  E(RB3LYP) =  -670.145550313     A.U. after   12 cycles
 SCF Done:  E(RB3LYP) =  -670.145628204     A.U. after   12 cycles
 SCF Done:  E(RB3LYP) =  -670.145666406     A.U. after   11 cycles
 SCF Done:  E(RB3LYP) =  -670.145680375     A.U. after   10 cycles
 SCF Done:  E(RB3LYP) =  -670.145682583     A.U. after    9 cycles
 SCF Done:  E(RB3LYP) =  -670.145687322     A.U. after    9 cycles
 SCF Done:  E(RB3LYP) =  -670.145689062     A.U. after    9 cycles
 SCF Done:  E(RB3LYP) =  -670.145690863     A.U. after    9 cycles
 SCF Done:  E(RB3LYP) =  -670.145692937     A.U. after   10 cycles
 SCF Done:  E(RB3LYP) =  -670.145693568     A.U. after    8 cycles
 SCF Done:  E(RB3LYP) =  -670.145693733     A.U. after    8 cycles
 Optimization completed.
    -- Stationary point found.
 Normal termination of Gaussian 16 at Thu Dec 10 17:45:28 2020.

 --------------------------------------------------------------------
 #N Geom=AllCheck Guess=TCheck SCRF=Check GenChk RB3LYP/6-31G(d) Freq
 --------------------------------------------------------------------

 Structure from the checkpoint file:  "JID_5920.chk"
 ------------------------------
 CID_87814796_JID_5920_neutraal
 ------------------------------
 Charge =  0 Multiplicity = 1

 SCF Done:  E(RB3LYP) =  -670.145693733     A.U. after    1 cycles

  Exact polarizability: 159.540  -0.582 134.291   9.955   2.266  98.451
 Approx polarizability: 210.196  -2.072 201.937  18.916   4.196 154.356

                      1                      2                      3
                      A                      A                      A
 Frequencies --     20.0824                28.2697                44.1238
 Red. masses --      4.7443                 2.0159                 4.5101
 Frc consts  --      0.0011                 0.0009                 0.0052
 IR Inten    --      0.0794                 0.2290                 1.0861

                      4                      5                      6
                      A                      A                      A
 Frequencies --     50.7323                84.7447                93.9258
 Red. masses --      3.6777                 4.6027                 4.0478
 Frc consts  --      0.0056                 0.0195                 0.0210
 IR Inten    --      1.1712                 3.1813                 2.9034

                      7                      8                      9
                      A                      A                      A
 Frequencies --    123.3861               130.1934               193.8996
 Red. masses --      2.4968                 3.4158                 1.7840
 Frc consts  --      0.0224                 0.0341                 0.0395
 IR Inten    --      0.7187                 0.8893                 0.6885

                     10                     11                     12
                      A                      A                      A
 Frequencies --    204.1897               210.3624               218.5931
 Red. masses --      2.5756                 2.2727                 1.6305
 Frc consts  --      0.0633                 0.0593                 0.0459
 IR Inten    --      2.0352                 1.1739                 2.0251

                     13                     14                     15
                      A                      A                      A
 Frequencies --    276.5191               286.7815               305.3904
 Red. masses --      2.1060                 2.2898                 1.7949
 Frc consts  --      0.0949                 0.1110                 0.0986
 IR Inten    --      0.3905                 1.1412                 1.9855

                     16                     17                     18
                      A                      A                      A
 Frequencies --    315.5443               342.2640               393.4006
 Red. masses --      2.5140                 2.4854                 2.8103
 Frc consts  --      0.1475                 0.1715                 0.2563
 IR Inten    --      2.4324                 0.1485                 3.6139

                     19                     20                     21
                      A                      A                      A
 Frequencies --    470.6438               491.8437               529.5431
 Red. masses --      2.6060                 3.1850                 2.7370
 Frc consts  --      0.3401                 0.4540                 0.4522
 IR Inten    --      1.1225                 2.8041                 8.2560

                     22                     23                     24
                      A                      A                      A
 Frequencies --    642.4921               665.0699               678.5588
 Red. masses --      3.1797                 2.6217                 3.5465
 Frc consts  --      0.7733                 0.6832                 0.9621
 IR Inten    --      1.7339                 5.3243                 3.2409

                     25                     26                     27
                      A                      A                      A
 Frequencies --    697.9350               727.4035               756.2962
 Red. masses --      3.4120                 2.3955                 2.9791
 Frc consts  --      0.9792                 0.7468                 1.0040
 IR Inten    --     10.4401                 4.8351                 1.6976

                     28                     29                     30
                      A                      A                      A
 Frequencies --    796.6506               816.5187               825.6108
 Red. masses --      1.4139                 1.3505                 1.7013
 Frc consts  --      0.5287                 0.5305                 0.6833
 IR Inten    --     20.7718                 6.7880                16.4871

                     31                     32                     33
                      A                      A                      A
 Frequencies --    872.4657               889.0412               940.1362
 Red. masses --      2.3779                 1.3798                 2.0543
 Frc consts  --      1.0664                 0.6425                 1.0698
 IR Inten    --      2.2225                 6.9922                12.2463

                     34                     35                     36
                      A                      A                      A
 Frequencies --    963.9021               985.8029               991.3469
 Red. masses --      2.0248                 3.5289                 2.0484
 Frc consts  --      1.1084                 2.0205                 1.1861
 IR Inten    --      6.3654                 0.1721                 7.5276

                     37                     38                     39
                      A                      A                      A
 Frequencies --   1010.3098              1019.5084              1031.8006
 Red. masses --      2.1308                 2.3390                 1.6287
 Frc consts  --      1.2815                 1.4324                 1.0216
 IR Inten    --     16.0145                 1.7764                 5.8535

                     40                     41                     42
                      A                      A                      A
 Frequencies --   1077.7466              1086.3703              1106.9221
 Red. masses --      1.8400                 2.1174                 1.9665
 Frc consts  --      1.2592                 1.4723                 1.4196
 IR Inten    --     15.2042                 4.5926                 4.8213

                     43                     44                     45
                      A                      A                      A
 Frequencies --   1123.1018              1127.0716              1164.9841
 Red. masses --      1.6025                 2.0030                 1.9508
 Frc consts  --      1.1909                 1.4991                 1.5599
 IR Inten    --      0.4387                 0.3424                 6.2227

                     46                     47                     48
                      A                      A                      A
 Frequencies --   1172.0721              1217.7804              1222.1035
 Red. masses --      2.0897                 1.8346                 1.5196
 Frc consts  --      1.6914                 1.6030                 1.3372
 IR Inten    --     17.8572                15.9517                 4.1120

                     49                     50                     51
                      A                      A                      A
 Frequencies --   1230.5152              1288.2577              1305.3815
 Red. masses --      1.8429                 1.5338                 1.1614
 Frc consts  --      1.6441                 1.4998                 1.1660
 IR Inten    --      2.1049                 5.6658                 0.4921

                     52                     53                     54
                      A                      A                      A
 Frequencies --   1316.9179              1319.6598              1343.7128
 Red. masses --      3.2704                 1.2721                 1.6881
 Frc consts  --      3.3418                 1.3053                 1.7959
 IR Inten    --     21.5167                 6.8843                 3.5809

                     55                     56                     57
                      A                      A                      A
 Frequencies --   1354.3136              1365.5609              1382.9892
 Red. masses --      1.3494                 1.5462                 1.6586
 Frc consts  --      1.4583                 1.6988                 1.8691
 IR Inten    --      0.2900                16.6466                 5.3535

                     58                     59                     60
                      A                      A                      A
 Frequencies --   1396.5148              1403.7612              1411.4518
 Red. masses --      1.3501                 1.4487                 1.4551
 Frc consts  --      1.5513                 1.6820                 1.7080
 IR Inten    --      8.0685                13.9249                 4.2864

                     61                     62                     63
                      A                      A                      A
 Frequencies --   1425.5424              1433.3286              1441.0671
 Red. masses --      1.4217                 2.4105                 1.2781
 Frc consts  --      1.7023                 2.9177                 1.5638
 IR Inten    --      8.0748                28.2814                 5.9954

                     64                     65                     66
                      A                      A                      A
 Frequencies --   1447.0249              1449.7059              1506.1357
 Red. masses --      1.2211                 1.5312                 1.0840
 Frc consts  --      1.5065                 1.8960                 1.4488
 IR Inten    --      3.3689                 4.3241                 7.4758

                     67                     68                     69
                      A                      A                      A
 Frequencies --   1507.1023              1509.1294              1518.5765
 Red. masses --      1.5390                 1.2763                 1.0823
 Frc consts  --      2.0596                 1.7126                 1.4705
 IR Inten    --     25.3783                14.7038                 8.6739

                     70                     71                     72
                      A                      A                      A
 Frequencies --   1522.1432              1522.3401              1524.4367
 Red. masses --      1.3639                 1.0733                 1.0949
 Frc consts  --      1.8619                 1.4655                 1.4992
 IR Inten    --     14.8585                 5.8599                11.0159

                     73                     74                     75
                      A                      A                      A
 Frequencies --   1533.3326              1537.8355              1542.0656
 Red. masses --      1.2208                 1.0562                 1.0553
 Frc consts  --      1.6911                 1.4716                 1.4786
 IR Inten    --     10.7148                 3.6541                 3.5621

                     76                     77                     78
                      A                      A                      A
 Frequencies --   1569.7535              1826.6321              2889.9706
 Red. masses --      4.9880                10.1041                 1.0833
 Frc consts  --      7.2417                19.8633                 5.3307
 IR Inten    --     23.3877               177.0723               114.6261

                     79                     80                     81
                      A                      A                      A
 Frequencies --   3012.0175              3029.6782              3044.1861
 Red. masses --      1.0802                 1.0600                 1.0667
 Frc consts  --      5.7737                 5.7328                 5.8242
 IR Inten    --      8.2287                19.3475                26.6959

                     82                     83                     84
                      A                      A                      A
 Frequencies --   3048.8035              3053.0162              3055.0619
 Red. masses --      1.0637                 1.0550                 1.0924
 Frc consts  --      5.8252                 5.7938                 6.0074
 IR Inten    --     32.0344                 4.4928                 9.1564

                     85                     86                     87
                      A                      A                      A
 Frequencies --   3057.7312              3070.4754              3082.8711
 Red. masses --      1.0517                 1.0359                 1.0932
 Frc consts  --      5.7934                 5.7542                 6.1215
 IR Inten    --     29.6474                29.1748                14.5224

                     88                     89                     90
                      A                      A                      A
 Frequencies --   3088.0379              3092.2735              3096.4542
 Red. masses --      1.0746                 1.0958                 1.0989
 Frc consts  --      6.0378                 6.1735                 6.2081
 IR Inten    --     18.5036                 7.5976                66.8480

                     91                     92                     93
                      A                      A                      A
 Frequencies --   3115.8410              3140.5308              3141.8275
 Red. masses --      1.1006                 1.1029                 1.1013
 Frc consts  --      6.2955                 6.4088                 6.4052
 IR Inten    --     49.4071                24.5388                21.9512

                     94                     95                     96
                      A                      A                      A
 Frequencies --   3146.2233              3151.7888              3274.0278
 Red. masses --      1.1016                 1.1030                 1.0970
 Frc consts  --      6.4249                 6.4555                 6.9282
 IR Inten    --     16.4834                18.2490                 7.3473

 - Thermochemistry -
 -------------------
 Temperature   298.150 Kelvin.  Pressure   1.00000 Atm.
 Atom     1 has atomic number  6 and mass  12.00000

 Molecular mass:   209.15281 amu.
 Principal axes and moments of inertia in atomic units:
                           1         2         3
     Eigenvalues --  1476.090096181.145416997.45096
           X            0.99995   0.00413   0.00877
           Y           -0.00412   0.99999  -0.00056
           Z           -0.00877   0.00052   0.99996
 This molecule is an asymmetric top.
 Rotational symmetry number  1.
 Warning -- assumption of classical behavior for rotation
           may cause significant error
 Rotational temperatures (Kelvin)      0.05868     0.01401     0.01238
 Rotational constants (GHZ):           1.22265     0.29198     0.25791
 Zero-point vibrational energy     783251.6 (Joules/Mol)
                                  187.20162 (Kcal/Mol)
 Warning -- explicit consideration of  21 degrees of freedom as
           vibrations may cause significant error
 Vibrational temperatures:     28.89    40.67    63.48    72.99   121.93
          (Kelvin)            135.14   177.53   187.32   278.98   293.78
                              302.66   314.51   397.85   412.61   439.39
                              454.00   492.44   566.02   677.15   707.65
                              761.89   924.40   956.89   976.29  1004.17
                             1046.57  1088.14  1146.20  1174.79  1187.87
                             1255.28  1279.13  1352.65  1386.84  1418.35
                             1426.33  1453.61  1466.85  1484.53  1550.64
                             1563.04  1592.61  1615.89  1621.60  1676.15
                             1686.35  1752.11  1758.33  1770.44  1853.52
                             1878.15  1894.75  1898.70  1933.30  1948.56
                             1964.74  1989.81  2009.27  2019.70  2030.76
                             2051.04  2062.24  2073.37  2081.95  2085.80
                             2166.99  2168.38  2171.30  2184.89  2190.02
                             2190.31  2193.32  2206.12  2212.60  2218.69
                             2258.53  2628.12  4158.02  4333.62  4359.03
                             4379.90  4386.55  4392.61  4395.55  4399.39
                             4417.73  4435.56  4443.00  4449.09  4455.11
                             4483.00  4518.52  4520.39  4526.71  4534.72
                             4710.60

 Zero-point correction=                           0.298325 (Hartree/Particle)
 Thermal correction to Energy=                    0.314459
 Thermal correction to Enthalpy=                  0.315403
 Thermal correction to Gibbs Free Energy=         0.252262
 Sum of electronic and zero-point Energies=           -669.847369
 Sum of electronic and thermal Energies=              -669.831235
 Sum of electronic and thermal Enthalpies=            -669.830291
 Sum of electronic and thermal Free Energies=         -669.893431

                     E (Thermal)             CV                S
                      KCal/Mol        Cal/Mol-Kelvin    Cal/Mol-Kelvin
 Total                  197.326             58.264            132.891
 Electronic               0.000              0.000              0.000
 Translational            0.889              2.981             41.918
 Rotational               0.889              2.981             32.523
 Vibrational            195.548             52.303             58.450
 Vibration     1          0.593              1.986              6.626
 Vibration     2          0.593              1.984              5.947
 Vibration     3          0.595              1.980              5.065
 Vibration     4          0.595              1.977              4.789
 Vibration     5          0.601              1.960              3.778
 Vibration     6          0.603              1.954              3.577
 Vibration     7          0.610              1.930              3.047
 Vibration     8          0.612              1.923              2.943
 Vibration     9          0.635              1.848              2.190
 Vibration    10          0.640              1.834              2.095
 Vibration    11          0.643              1.825              2.041
 Vibration    12          0.646              1.813              1.971
 Vibration    13          0.678              1.717              1.555
 Vibration    14          0.684              1.698              1.493
 Vibration    15          0.696              1.663              1.387
 Vibration    16          0.703              1.644              1.333
 Vibration    17          0.721              1.591              1.202
 Vibration    18          0.761              1.484              0.987
 Vibration    19          0.828              1.315              0.736
 Vibration    20          0.848              1.268              0.679
 Vibration    21          0.885              1.185              0.588

                           ! Non-Optimized Parameters !
 Normal termination of Gaussian 16 at Thu Dec 10 17:57:04 2020.

 ----------------------------------------------------------------------
 # B3LYP/6-311++G(d,p) empiricaldispersion=gd3bj scf=xqc pop=npa geom=c
 heck
 ----------------------------------------------------------------------

 --------------------------------------
 CID_87814796_JID_5920_Energie_neutraal
 --------------------------------------
 Structure from the checkpoint file:  "JID_5920.chk"
 Charge =  0 Multiplicity = 1

 SCF Done:  E(RB3LYP) =  -670.331018546     A.U. after   14 cycles
 Normal termination of Gaussian 16 at Thu Dec 10 18:02:32 2020.

 ----------------------------------------------------------------------
 # B3LYP/6-311++G(d,p) empiricaldispersion=gd3bj scf=xqc pop=npa geom=c
 heck
 ----------------------------------------------------------------------

 ------------------------------------
 CID_87814796_JID_5920_Energie_kation
 ------------------------------------
 Structure from the checkpoint file:  "JID_5920.chk"
 Charge =  1 Multiplicity = 2

 SCF Done:  E(UB3LYP) =  -670.006470125     A.U. after   29 cycles
 Normal termination of Gaussian 16 at Thu Dec 10 18:18:27 2020.
 Gaussian 16:  ES64L-G16RevA.03 25-Dec-2016

 ----------------------------------------------------------------------
 # B3LYP/6-311++G(d,p) empiricaldispersion=gd3bj scf=xqc pop=npa geom=c
 heck
 ----------------------------------------------------------------------

 -----------------------------------
 CID_87814796_JID_5920_Energie_anion
 -----------------------------------
 Structure from the checkpoint file:  "JID_5920.chk"
 Charge = -1 Multiplicity = 2

                         Standard orientation:
 ---------------------------------------------------------------------
 Center     Atomic      Atomic             Coordinates (Angstroms)
 Number     Number       Type             X           Y           Z
 ---------------------------------------------------------------------
      1          6           0        4.777595   -0.768684    0.783874
      2          6           0        3.365845   -1.099081    0.294410
      3          6           0        2.586571    0.127132   -0.072440
      4          7           0        2.961404    1.386796    0.124457
      5          6           0        1.915884    2.103971   -0.371844
      6          7           0        0.920882    1.381971   -0.864732
      7          7           0        1.367826    0.106093   -0.672415
      8          6           0        0.517387   -1.026764   -1.006697
      9          6           0       -0.319836   -1.517226    0.181671
     10          6           0       -1.179944   -0.433454    0.843695
     11          6           0       -2.178112    0.264476   -0.105300
     12          6           0       -3.167881   -0.667630   -0.819564
     13          6           0       -3.972344   -1.581051    0.110850
     14          6           0       -2.872343    1.380341    0.648262
     15          8           0       -4.064777    1.598362    0.644715
     16          1           0        5.346069   -0.247674    0.008552
     17          1           0        5.309586   -1.686719    1.052422
     18          1           0        4.740698   -0.113547    1.657931
     19          1           0        3.414330   -1.769954   -0.574536
     20          1           0        2.821810   -1.655528    1.070562
     21          1           0        1.888850    3.185124   -0.376881
     22          1           0       -0.117083   -0.700150   -1.832842
     23          1           0        1.156349   -1.834146   -1.377596
     24          1           0       -0.949169   -2.341590   -0.174903
     25          1           0        0.350423   -1.944844    0.937865
     26          1           0       -1.720446   -0.887916    1.682533
     27          1           0       -0.520833    0.328788    1.276535
     28          1           0       -1.572807    0.796807   -0.856783
     29          1           0       -3.861589   -0.043751   -1.393281
     30          1           0       -2.621031   -1.276789   -1.551025
     31          1           0       -4.536732   -0.991027    0.838305
     32          1           0       -4.687702   -2.179621   -0.463301
     33          1           0       -3.328637   -2.277959    0.660103
     34          1           0       -2.181577    2.037396    1.225945
 ---------------------------------------------------------------------

 SCF Done:  E(UB3LYP) =  -670.324351708     A.U. after   30 cycles

 The electronic state is 2-A.
 Alpha  occ. eigenvalues --  -19.01611 -14.29815 -14.24133 -14.20617 -10.14975
 Alpha  occ. eigenvalues --  -10.14523 -10.12300 -10.11994 -10.08821 -10.08101
 Alpha  occ. eigenvalues --  -10.07889 -10.07721 -10.07241 -10.06702 -10.06325
 Alpha  occ. eigenvalues --   -0.98108  -0.94660  -0.81030  -0.75908  -0.72586
 Alpha  occ. eigenvalues --   -0.68240  -0.66502  -0.63215  -0.59190  -0.55728
 Alpha  occ. eigenvalues --   -0.53244  -0.51853  -0.50676  -0.46667  -0.44104
 Alpha  occ. eigenvalues --   -0.42453  -0.40212  -0.39801  -0.37583  -0.36114
 Alpha  occ. eigenvalues --   -0.35399  -0.34687  -0.33542  -0.32763  -0.32028
 Alpha  occ. eigenvalues --   -0.31759  -0.30617  -0.29601  -0.28649  -0.27554
 Alpha  occ. eigenvalues --   -0.27361  -0.26861  -0.26283  -0.25495  -0.24632
 Alpha  occ. eigenvalues --   -0.23752  -0.23104  -0.22358  -0.19231  -0.18549
 Alpha  occ. eigenvalues --   -0.16444  -0.15351   0.04132
 Alpha virt. eigenvalues --    0.06036   0.06933   0.07614   0.07961   0.08361
 Alpha virt. eigenvalues --    0.08855   0.09646   0.10072   0.10197   0.10444
 Alpha virt. eigenvalues --    0.10875   0.11546   0.11922   0.12508   0.12747

  Beta  occ. eigenvalues --  -19.01493 -14.29813 -14.24122 -14.20612 -10.14866
  Beta  occ. eigenvalues --  -10.14509 -10.12297 -10.11962 -10.08774 -10.08112
  Beta  occ. eigenvalues --  -10.07856 -10.07695 -10.07226 -10.06681 -10.06313
  Beta  occ. eigenvalues --   -0.98093  -0.94436  -0.81009  -0.75874  -0.72539
  Beta  occ. eigenvalues --   -0.68185  -0.66460  -0.63153  -0.59115  -0.55668
  Beta  occ. eigenvalues --   -0.53176  -0.51813  -0.50528  -0.46578  -0.44004
  Beta  occ. eigenvalues --   -0.42381  -0.40138  -0.39757  -0.37518  -0.36080
  Beta  occ. eigenvalues --   -0.35309  -0.34587  -0.33476  -0.32726  -0.31943
  Beta  occ. eigenvalues --   -0.31706  -0.30559  -0.29533  -0.28248  -0.27504
  Beta  occ. eigenvalues --   -0.27312  -0.26799  -0.26219  -0.25398  -0.24567
  Beta  occ. eigenvalues --   -0.23688  -0.23082  -0.22284  -0.19195  -0.18533
  Beta  occ. eigenvalues --   -0.16383  -0.15258
  Beta virt. eigenvalues --    0.06761   0.07284   0.07373   0.08078   0.08294
  Beta virt. eigenvalues --    0.08713   0.09289   0.09721   0.10379   0.10555
  Beta virt. eigenvalues --    0.10802   0.11066   0.11739   0.12148   0.12640

 Mulliken charges and spin densities:
               1          2
     1  C    0.777461  -1.472510
     2  C   -0.323529   0.094912
     3  C    0.105726  -0.364077
     4  N   -0.103592   0.042736
     5  C    0.147629  -0.035807
     6  N   -0.106269  -0.023082
     7  N    0.151737   0.054229
     8  C   -0.343297  -0.195198
     9  C    0.793980  -1.136559
    10  C   -0.140902   0.053382
    11  C    0.815479  -0.352641
    12  C   -0.491501   0.103296
    13  C   -0.062039  -0.545904
    14  C   -0.242547  -0.093144
    15  O   -0.264206   0.031771
    16  H    0.063482   0.094488
    17  H   -0.343463   0.488573
    18  H    0.072703   0.090551
    19  H   -0.283360   0.457097
    20  H   -0.175331   0.324160
    21  H    0.151254   0.001685
    22  H   -0.153088   0.365511
    23  H   -0.899987   1.097428
    24  H   -0.302398   0.460465
    25  H   -0.417794   0.616231
    26  H   -0.022449   0.228777
    27  H    0.031010   0.143791
    28  H    0.237801  -0.006743
    29  H    0.133645   0.039518
    30  H   -0.010806   0.146624
    31  H    0.144014   0.024607
    32  H    0.020207   0.101418
    33  H   -0.038209   0.170123
    34  H    0.078639  -0.005707
 Sum of Mulliken charges =  -1.00000   1.00000

 Dipole moment (field-independent basis, Debye):
    X=             -1.9438    Y=              4.9951    Z=             -0.2579  Tot=              5.3662
 Quadrupole moment (field-independent basis, Debye-Ang):
   XX=           -174.6001   YY=           -141.1412   ZZ=           -122.9139
   XY=             16.2782   XZ=              1.1025   YZ=             -2.8094

 Summary of Natural Population Analysis:

                                       Natural Population
                Natural  -----------------------------------------------
    Atom  No    Charge         Core      Valence    Rydberg      Total
 -----------------------------------------------------------------------
      C    1   -0.28063      0.99967     2.27482    0.00614     3.28063
      C    2   -0.21501      0.99960     2.20774    0.00767     3.21501
      C    3    0.21018      0.99960     1.77355    0.01667     2.78982
      N    4   -0.27259      0.99970     2.76437    0.00853     3.77259
      C    5    0.08716      0.99970     1.89504    0.01811     2.91284
      N    6   -0.16571      0.99973     2.65502    0.01095     3.66571
      N    7   -0.12002      0.99961     2.60628    0.01414     3.62002
      C    8   -0.08699      0.99960     2.07505    0.01234     3.08699
      C    9   -0.19348      0.99961     2.18431    0.00956     3.19348
      C   10   -0.18998      0.99961     2.18036    0.01001     3.18998
      C   11   -0.17043      0.99956     2.16167    0.00920     3.17043
      C   12   -0.19266      0.99963     2.18335    0.00969     3.19266
      C   13   -0.29051      0.99966     2.28553    0.00532     3.29051
      C   14    0.24768      0.99971     1.73193    0.02069     2.75232
      O   15   -0.27457      0.99988     3.26833    0.00636     4.27457
      H   16    0.10008      0.00000     0.39894    0.00098     0.39992
      H   17    0.09990      0.00000     0.39913    0.00097     0.40010
      H   18    0.10207      0.00000     0.39680    0.00113     0.39793
      H   19    0.11083      0.00000     0.38691    0.00226     0.38917
      H   20    0.11169      0.00000     0.38562    0.00268     0.38831
      H   21    0.08966      0.00000     0.40956    0.00078     0.41034
      H   22    0.10580      0.00000     0.39256    0.00164     0.39420
      H   23    0.11193      0.00000     0.38442    0.00366     0.38807
      H   24    0.10426      0.00000     0.39356    0.00219     0.39574
      H   25    0.10311      0.00000     0.39503    0.00185     0.39689
      H   26    0.10190      0.00000     0.39699    0.00111     0.39810
      H   27    0.10272      0.00000     0.39579    0.00149     0.39728
      H   28    0.12327      0.00000     0.37476    0.00197     0.37673
      H   29    0.10259      0.00000     0.39640    0.00100     0.39741
      H   30    0.09686      0.00000     0.40207    0.00107     0.40314
      H   31    0.10308      0.00000     0.39599    0.00093     0.39692
      H   32    0.09671      0.00000     0.40265    0.00064     0.40329
      H   33    0.09614      0.00000     0.40299    0.00087     0.40386
      H   34    0.04501      0.00000     0.45284    0.00215     0.45499
 =======================================================================
   * Total *   -0.00000     14.99487    41.81038    0.19475    57.00000

 Normal termination of Gaussian 16 at Thu Dec 10 18:34:59 2020.
