 Gaussian 16, Revision A.03,

 -----------------------------------------------------------
 # opt freq B3LYP/6-31G(d) empiricaldispersion=gd3bj scf=xqc
 -----------------------------------------------------------

 -------------------------------
 CID_129976418_JID_5508_neutraal
 -------------------------------
 Symbolic Z-matrix:
 Charge =  0 Multiplicity = 1

 SCF Done:  E(RB3LYP) =  -738.330107500     A.U. after   14 cycles
 SCF Done:  E(RB3LYP) =  -738.338358195     A.U. after   12 cycles
 SCF Done:  E(RB3LYP) =  -738.338586280     A.U. after   12 cycles
 SCF Done:  E(RB3LYP) =  -738.338970614     A.U. after   12 cycles
 SCF Done:  E(RB3LYP) =  -738.339368100     A.U. after   11 cycles
 SCF Done:  E(RB3LYP) =  -738.339415021     A.U. after   11 cycles
 SCF Done:  E(RB3LYP) =  -738.339464848     A.U. after   12 cycles
 SCF Done:  E(RB3LYP) =  -738.339476716     A.U. after   10 cycles
 SCF Done:  E(RB3LYP) =  -738.339486284     A.U. after   10 cycles
 SCF Done:  E(RB3LYP) =  -738.339489050     A.U. after    9 cycles
 SCF Done:  E(RB3LYP) =  -738.339489689     A.U. after    8 cycles
 SCF Done:  E(RB3LYP) =  -738.339490617     A.U. after    9 cycles
 SCF Done:  E(RB3LYP) =  -738.339491160     A.U. after    8 cycles
 SCF Done:  E(RB3LYP) =  -738.339491266     A.U. after    8 cycles
 Optimization completed.
    -- Stationary point found.
 Normal termination of Gaussian 16 at Thu Dec 10 16:35:22 2020.

 --------------------------------------------------------------------
 #N Geom=AllCheck Guess=TCheck SCRF=Check GenChk RB3LYP/6-31G(d) Freq
 --------------------------------------------------------------------

 Structure from the checkpoint file:  "JID_5508.chk"
 -------------------------------
 CID_129976418_JID_5508_neutraal
 -------------------------------
 Charge =  0 Multiplicity = 1

 SCF Done:  E(RB3LYP) =  -738.339491266     A.U. after    1 cycles

  Exact polarizability: 157.587   1.621 121.144 -12.329   5.662  69.229
 Approx polarizability: 218.738  -0.128 204.517 -23.043  16.861 107.315

                      1                      2                      3
                      A                      A                      A
 Frequencies --     22.7139                33.6975                40.2997
 Red. masses --      4.2657                11.9019                 5.8653
 Frc consts  --      0.0013                 0.0080                 0.0056
 IR Inten    --      0.2317                 1.1616                 0.3001

                      4                      5                      6
                      A                      A                      A
 Frequencies --     76.3482               105.3718               140.0922
 Red. masses --      6.7843                 5.4566                 4.1270
 Frc consts  --      0.0233                 0.0357                 0.0477
 IR Inten    --      0.2369                 0.0745                 0.4820

                      7                      8                      9
                      A                      A                      A
 Frequencies --    179.4907               224.5684               268.7577
 Red. masses --      1.1139                 3.9659                 3.7956
 Frc consts  --      0.0211                 0.1178                 0.1615
 IR Inten    --      0.4669                 6.6210                 0.7697

                     10                     11                     12
                      A                      A                      A
 Frequencies --    289.8047               335.0637               361.8161
 Red. masses --      3.7527                 3.4816                 6.9961
 Frc consts  --      0.1857                 0.2303                 0.5396
 IR Inten    --      1.8922                 0.5486                 0.8291

                     13                     14                     15
                      A                      A                      A
 Frequencies --    387.5208               441.2608               513.6082
 Red. masses --      6.1716                 3.3956                 3.7120
 Frc consts  --      0.5461                 0.3895                 0.5769
 IR Inten    --      1.2933                 1.1390                11.7261

                     16                     17                     18
                      A                      A                      A
 Frequencies --    540.6675               601.1507               621.4951
 Red. masses --      2.7847                 2.8069                 4.2477
 Frc consts  --      0.4796                 0.5976                 0.9667
 IR Inten    --     19.1942                31.6908                 0.1930

                     19                     20                     21
                      A                      A                      A
 Frequencies --    649.4807               672.8859               689.0273
 Red. masses --      2.6125                 3.4819                 2.0504
 Frc consts  --      0.6493                 0.9289                 0.5735
 IR Inten    --     25.7475                24.1692                72.3842

                     22                     23                     24
                      A                      A                      A
 Frequencies --    707.0265               712.6521               728.9408
 Red. masses --      2.7524                 2.5580                 1.3788
 Frc consts  --      0.8106                 0.7654                 0.4316
 IR Inten    --     58.7418                16.4760                26.7830

                     25                     26                     27
                      A                      A                      A
 Frequencies --    737.2650               815.7864               859.2246
 Red. masses --      3.4888                 4.8715                 1.3083
 Frc consts  --      1.1173                 1.9101                 0.5691
 IR Inten    --      0.8449                11.3913                 4.8978

                     28                     29                     30
                      A                      A                      A
 Frequencies --    883.3167               926.0454               942.5055
 Red. masses --      4.5466                 6.0168                 3.4562
 Frc consts  --      2.0901                 3.0400                 1.8089
 IR Inten    --      7.1064                 3.1240                 5.6375

                     31                     32                     33
                      A                      A                      A
 Frequencies --    961.2477              1014.9458              1023.9505
 Red. masses --      3.3409                 1.6795                 5.1354
 Frc consts  --      1.8188                 1.0193                 3.1724
 IR Inten    --      6.3880                26.0979                 5.2603

                     34                     35                     36
                      A                      A                      A
 Frequencies --   1054.4268              1077.8225              1120.4681
 Red. masses --      2.6575                 1.4764                 4.5527
 Frc consts  --      1.7408                 1.0105                 3.3676
 IR Inten    --     21.6471                 2.3415                11.6123

                     37                     38                     39
                      A                      A                      A
 Frequencies --   1147.2454              1169.6533              1183.6357
 Red. masses --      1.9776                 1.7643                 2.0651
 Frc consts  --      1.5336                 1.4221                 1.7046
 IR Inten    --     25.7327                99.6393                61.3537

                     40                     41                     42
                      A                      A                      A
 Frequencies --   1218.2835              1244.7694              1256.7370
 Red. masses --      2.2947                 1.7221                 2.0783
 Frc consts  --      2.0066                 1.5721                 1.9339
 IR Inten    --     75.4424                52.5750                34.1279

                     43                     44                     45
                      A                      A                      A
 Frequencies --   1319.9442              1330.0696              1354.8890
 Red. masses --      6.2884                 2.3121                 1.9152
 Frc consts  --      6.4551                 2.4100                 2.0715
 IR Inten    --     87.3317                 3.5216                 0.5641

                     46                     47                     48
                      A                      A                      A
 Frequencies --   1382.0385              1396.2766              1444.7575
 Red. masses --      2.6510                 2.5282                 1.3281
 Frc consts  --      2.9834                 2.9040                 1.6334
 IR Inten    --     46.8582                28.6321                 1.0248

                     49                     50                     51
                      A                      A                      A
 Frequencies --   1457.7827              1483.4371              1497.7359
 Red. masses --      3.8618                 1.0915                 1.2387
 Frc consts  --      4.8353                 1.4152                 1.6372
 IR Inten    --    199.3733                 9.8060                 1.7294

                     52                     53                     54
                      A                      A                      A
 Frequencies --   1503.2453              1558.4869              1610.2733
 Red. masses --      1.0427                 4.2522                 6.0631
 Frc consts  --      1.3883                 6.0851                 9.2628
 IR Inten    --      8.7437                44.4507                14.4836

                     55                     56                     57
                      A                      A                      A
 Frequencies --   1653.3133              1668.4876              1859.7158
 Red. masses --      7.6621                10.2056                 9.8792
 Frc consts  --     12.3398                16.7392                20.1310
 IR Inten    --    124.6445               320.4615               309.7015

                     58                     59                     60
                      A                      A                      A
 Frequencies --   3069.4717              3073.0336              3124.7839
 Red. masses --      1.0365                 1.0637                 1.1005
 Frc consts  --      5.7534                 5.9182                 6.3310
 IR Inten    --      8.8311                 7.8676                 7.3984

                     61                     62                     63
                      A                      A                      A
 Frequencies --   3132.8736              3168.8063              3269.8304
 Red. masses --      1.0997                 1.1029                 1.0943
 Frc consts  --      6.3594                 6.5250                 6.8934
 IR Inten    --      2.9842                 8.6422                 7.7172

                     64                     65                     66
                      A                      A                      A
 Frequencies --   3318.2627              3323.2265              3687.7279
 Red. masses --      1.1020                 1.1006                 1.0640
 Frc consts  --      7.1492                 7.1613                 8.5253
 IR Inten    --      1.9989                 1.3751                53.5281

 - Thermochemistry -
 -------------------
 Temperature   298.150 Kelvin.  Pressure   1.00000 Atm.
 Atom     1 has atomic number  6 and mass  12.00000

 Molecular mass:   207.06439 amu.
 Principal axes and moments of inertia in atomic units:
                           1         2         3
     Eigenvalues --  1369.939525397.758116292.90889
           X            0.99997   0.00750  -0.00236
           Y           -0.00748   0.99995   0.00658
           Z            0.00241  -0.00656   0.99998
 This molecule is an asymmetric top.
 Rotational symmetry number  1.
 Warning -- assumption of classical behavior for rotation
           may cause significant error
 Rotational temperatures (Kelvin)      0.06322     0.01605     0.01376
 Rotational constants (GHZ):           1.31739     0.33435     0.28679
 Zero-point vibrational energy     476529.7 (Joules/Mol)
                                  113.89333 (Kcal/Mol)
 Warning -- explicit consideration of  17 degrees of freedom as
           vibrations may cause significant error
 Vibrational temperatures:     32.68    48.48    57.98   109.85   151.61
          (Kelvin)            201.56   258.25   323.10   386.68   416.96
                              482.08   520.57   557.56   634.88   738.97
                              777.90   864.92   894.19   934.46   968.13
                              991.36  1017.25  1025.35  1048.78  1060.76
                             1173.73  1236.23  1270.90  1332.37  1356.06
                             1383.02  1460.28  1473.24  1517.08  1550.75
                             1612.10  1650.63  1682.87  1702.99  1752.84
                             1790.95  1808.16  1899.11  1913.67  1949.38
                             1988.45  2008.93  2078.68  2097.42  2134.34
                             2154.91  2162.83  2242.31  2316.82  2378.75
                             2400.58  2675.72  4416.29  4421.41  4495.87
                             4507.51  4559.21  4704.56  4774.24  4781.38
                             5305.82

 Zero-point correction=                           0.181501 (Hartree/Particle)
 Thermal correction to Energy=                    0.194624
 Thermal correction to Enthalpy=                  0.195569
 Thermal correction to Gibbs Free Energy=         0.139088
 Sum of electronic and zero-point Energies=           -738.157991
 Sum of electronic and thermal Energies=              -738.144867
 Sum of electronic and thermal Enthalpies=            -738.143923
 Sum of electronic and thermal Free Energies=         -738.200403

                     E (Thermal)             CV                S
                      KCal/Mol        Cal/Mol-Kelvin    Cal/Mol-Kelvin
 Total                  122.129             48.172            118.873
 Electronic               0.000              0.000              0.000
 Translational            0.889              2.981             41.888
 Rotational               0.889              2.981             32.209
 Vibrational            120.351             42.211             44.776
 Vibration     1          0.593              1.985              6.382
 Vibration     2          0.594              1.983              5.599
 Vibration     3          0.594              1.981              5.244
 Vibration     4          0.599              1.965              3.983
 Vibration     5          0.605              1.945              3.352
 Vibration     6          0.615              1.913              2.803
 Vibration     7          0.629              1.867              2.334
 Vibration     8          0.649              1.804              1.922
 Vibration     9          0.673              1.731              1.604
 Vibration    10          0.686              1.693              1.475
 Vibration    11          0.716              1.605              1.236
 Vibration    12          0.736              1.551              1.114
 Vibration    13          0.756              1.497              1.010
 Vibration    14          0.801              1.380              0.823
 Vibration    15          0.869              1.220              0.625
 Vibration    16          0.896              1.160              0.564
 Vibration    17          0.959              1.029              0.448

                           ! Non-Optimized Parameters !
 Normal termination of Gaussian 16 at Thu Dec 10 16:42:11 2020.

 ----------------------------------------------------------------------
 # B3LYP/6-311++G(d,p) empiricaldispersion=gd3bj scf=xqc pop=npa geom=c
 heck
 ----------------------------------------------------------------------

 ---------------------------------------
 CID_129976418_JID_5508_Energie_neutraal
 ---------------------------------------
 Structure from the checkpoint file:  "JID_5508.chk"
 Charge =  0 Multiplicity = 1

 SCF Done:  E(RB3LYP) =  -738.552365398     A.U. after   14 cycles
 Normal termination of Gaussian 16 at Thu Dec 10 16:45:48 2020.

 ----------------------------------------------------------------------
 # B3LYP/6-311++G(d,p) empiricaldispersion=gd3bj scf=xqc pop=npa geom=c
 heck
 ----------------------------------------------------------------------

 -------------------------------------
 CID_129976418_JID_5508_Energie_kation
 -------------------------------------
 Structure from the checkpoint file:  "JID_5508.chk"
 Charge =  1 Multiplicity = 2

 SCF Done:  E(UB3LYP) =  -738.246162531     A.U. after   21 cycles
 Normal termination of Gaussian 16 at Thu Dec 10 16:53:32 2020.
 Gaussian 16:  ES64L-G16RevA.03 25-Dec-2016

 ----------------------------------------------------------------------
 # B3LYP/6-311++G(d,p) empiricaldispersion=gd3bj scf=xqc pop=npa geom=c
 heck
 ----------------------------------------------------------------------

 ------------------------------------
 CID_129976418_JID_5508_Energie_anion
 ------------------------------------
 Structure from the checkpoint file:  "JID_5508.chk"
 Charge = -1 Multiplicity = 2

                         Standard orientation:
 ---------------------------------------------------------------------
 Center     Atomic      Atomic             Coordinates (Angstroms)
 Number     Number       Type             X           Y           Z
 ---------------------------------------------------------------------
      1          6           0       -1.586504   -2.292103   -0.405461
      2          6           0       -2.421924   -1.101286   -0.084599
      3          7           0       -3.712075   -1.112162    0.147398
      4          6           0       -4.080284    0.198449    0.402095
      5          6           0       -3.005315    1.031349    0.327234
      6          7           0       -1.923929    0.202794    0.012444
      7          6           0       -0.620293    0.619225   -0.161846
      8          7           0        0.422410   -0.090934   -0.464865
      9          6           0        1.465483    0.838626   -0.508298
     10          6           0        0.976507    2.069280   -0.226611
     11          8           0       -0.383337    1.943846    0.000302
     12          6           0        2.860608    0.409757   -0.821672
     13          6           0        3.435521   -0.571353    0.189547
     14          8           0        4.046150   -1.576226   -0.087714
     15          8           0        3.215367   -0.166351    1.462770
     16          1           0       -2.242087   -3.164769   -0.407406
     17          1           0       -0.786205   -2.434759    0.327629
     18          1           0       -1.100623   -2.194992   -1.381501
     19          1           0       -5.105729    0.458124    0.624917
     20          1           0       -2.876590    2.093180    0.456684
     21          1           0        1.386865    3.061410   -0.139613
     22          1           0        2.910653   -0.079514   -1.797770
     23          1           0        3.518932    1.286304   -0.847395
     24          1           0        3.621704   -0.844674    2.034418
 ---------------------------------------------------------------------

 SCF Done:  E(UB3LYP) =  -738.546801415     A.U. after   32 cycles

 The electronic state is 2-A.
 Alpha  occ. eigenvalues --  -19.08633 -19.06502 -19.00952 -14.28033 -14.19635
 Alpha  occ. eigenvalues --  -14.18937 -10.19911 -10.18131 -10.12613 -10.10949
 Alpha  occ. eigenvalues --  -10.09962 -10.09388 -10.08630 -10.08282 -10.06944
 Alpha  occ. eigenvalues --   -1.03020  -1.00553  -0.91920  -0.91704  -0.82168
 Alpha  occ. eigenvalues --   -0.78993  -0.68948  -0.67260  -0.63243  -0.59558
 Alpha  occ. eigenvalues --   -0.54150  -0.52951  -0.50460  -0.47613  -0.45401
 Alpha  occ. eigenvalues --   -0.43108  -0.39539  -0.39176  -0.38174  -0.37258
 Alpha  occ. eigenvalues --   -0.35682  -0.34987  -0.34250  -0.33876  -0.32116
 Alpha  occ. eigenvalues --   -0.30178  -0.29947  -0.29281  -0.28915  -0.28823
 Alpha  occ. eigenvalues --   -0.28144  -0.22558  -0.22274  -0.20144  -0.19004
 Alpha  occ. eigenvalues --   -0.17757  -0.17447  -0.13611  -0.11932   0.04578
 Alpha virt. eigenvalues --    0.06690   0.07524   0.07950   0.09018   0.09259
 Alpha virt. eigenvalues --    0.10293   0.10502   0.11585   0.12615   0.13043
 Alpha virt. eigenvalues --    0.13150   0.13463   0.14214   0.14564   0.14860

  Beta  occ. eigenvalues --  -19.08492 -19.06461 -19.00907 -14.28074 -14.19581
  Beta  occ. eigenvalues --  -14.18935 -10.19845 -10.17936 -10.12451 -10.10822
  Beta  occ. eigenvalues --  -10.09982 -10.09293 -10.08605 -10.08253 -10.06955
  Beta  occ. eigenvalues --   -1.02777  -1.00454  -0.91820  -0.91618  -0.81999
  Beta  occ. eigenvalues --   -0.78892  -0.68835  -0.67101  -0.63041  -0.59467
  Beta  occ. eigenvalues --   -0.53970  -0.52797  -0.50362  -0.47504  -0.45225
  Beta  occ. eigenvalues --   -0.42985  -0.39437  -0.38709  -0.38005  -0.37091
  Beta  occ. eigenvalues --   -0.35489  -0.34886  -0.34016  -0.33633  -0.32012
  Beta  occ. eigenvalues --   -0.30119  -0.29864  -0.29131  -0.28879  -0.28715
  Beta  occ. eigenvalues --   -0.28052  -0.22209  -0.21840  -0.19882  -0.18907
  Beta  occ. eigenvalues --   -0.17646  -0.17414  -0.13023  -0.11359
  Beta virt. eigenvalues --    0.07305   0.07910   0.08262   0.08711   0.09073
  Beta virt. eigenvalues --    0.09783   0.10485   0.10980   0.12031   0.12687
  Beta virt. eigenvalues --    0.12943   0.13175   0.13508   0.14413   0.14659

 Mulliken charges and spin densities:
               1          2
     1  C   -0.589002  -0.102339
     2  C   -0.009821   0.061365
     3  N   -0.152424   0.011814
     4  C   -0.131785   0.006416
     5  C    0.020960   0.058606
     6  N   -0.030627  -0.011874
     7  C    0.026916  -0.265411
     8  N   -0.091101   0.081604
     9  C    0.604724  -0.228904
    10  C   -0.803450   0.612127
    11  O   -0.092875   0.038414
    12  C    1.690168  -2.082956
    13  C   -0.115403   0.172949
    14  O   -0.315822   0.039608
    15  O   -0.170328   0.037969
    16  H    0.165276  -0.000904
    17  H    0.167733   0.014199
    18  H    0.143601   0.027062
    19  H    0.133051   0.010080
    20  H    0.111763   0.059760
    21  H   -1.059456   1.254357
    22  H    0.070367   0.142147
    23  H   -0.506133   0.715369
    24  H   -0.066331   0.348541
 Sum of Mulliken charges =  -1.00000   1.00000

 Dipole moment (field-independent basis, Debye):
    X=             -4.7365    Y=             -1.6076    Z=              0.7720  Tot=              5.0611
 Quadrupole moment (field-independent basis, Debye-Ang):
   XX=           -159.7364   YY=           -122.6444   ZZ=           -104.6028
   XY=            -12.2628   XZ=              2.9252   YZ=              3.5386

 Summary of Natural Population Analysis:

                                       Natural Population
                Natural  -----------------------------------------------
    Atom  No    Charge         Core      Valence    Rydberg      Total
 -----------------------------------------------------------------------
      C    1   -0.30967      0.99963     2.30525    0.00479     3.30967
      C    2    0.23269      0.99964     1.75217    0.01550     2.76731
      N    3   -0.26607      0.99969     2.75439    0.01199     3.76607
      C    4   -0.03233      0.99958     2.01948    0.01327     3.03233
      C    5   -0.02374      0.99956     2.01382    0.01035     3.02374
      N    6   -0.22298      0.99959     2.71620    0.00719     3.72298
      C    7    0.38203      0.99959     1.59953    0.01885     2.61797
      N    8   -0.26558      0.99967     2.75699    0.00893     3.76558
      C    9    0.04015      0.99953     1.94558    0.01474     2.95985
      C   10    0.06151      0.99940     1.92524    0.01385     2.93849
      O   11   -0.23044      0.99986     3.22390    0.00668     4.23044
      C   12   -0.24946      0.99954     2.23915    0.01077     3.24946
      C   13    0.42021      0.99974     1.55422    0.02583     2.57979
      O   14   -0.30697      0.99987     3.30097    0.00613     4.30697
      O   15   -0.34272      0.99988     3.33624    0.00660     4.34272
      H   16    0.10659      0.00000     0.39227    0.00114     0.39341
      H   17    0.11359      0.00000     0.38520    0.00120     0.38641
      H   18    0.11290      0.00000     0.38589    0.00121     0.38710
      H   19    0.09244      0.00000     0.40664    0.00092     0.40756
      H   20    0.10820      0.00000     0.39073    0.00107     0.39180
      H   21    0.10112      0.00000     0.39645    0.00242     0.39888
      H   22    0.11563      0.00000     0.38317    0.00120     0.38437
      H   23    0.12385      0.00000     0.37145    0.00470     0.37615
      H   24    0.23906      0.00000     0.25603    0.00491     0.26094
 =======================================================================
   * Total *   -0.00000     14.99477    38.81096    0.19427    54.00000

 Normal termination of Gaussian 16 at Thu Dec 10 17:04:15 2020.
