 Gaussian 16, Revision A.03,

 -----------------------------------------------------------
 # opt freq B3LYP/6-31G(d) empiricaldispersion=gd3bj scf=xqc
 -----------------------------------------------------------

 ------------------------------
 CID_61374769_JID_2455_neutraal
 ------------------------------
 Symbolic Z-matrix:
 Charge =  0 Multiplicity = 1

 SCF Done:  E(RB3LYP) =  -602.906927275     A.U. after   15 cycles
 SCF Done:  E(RB3LYP) =  -602.913362379     A.U. after   15 cycles
 SCF Done:  E(RB3LYP) =  -602.914366846     A.U. after   16 cycles
 SCF Done:  E(RB3LYP) =  -602.915170876     A.U. after   14 cycles
 SCF Done:  E(RB3LYP) =  -602.915594444     A.U. after   14 cycles
 SCF Done:  E(RB3LYP) =  -602.915597057     A.U. after   13 cycles
 SCF Done:  E(RB3LYP) =  -602.915679705     A.U. after   11 cycles
 SCF Done:  E(RB3LYP) =  -602.915684027     A.U. after   10 cycles
 SCF Done:  E(RB3LYP) =  -602.915684521     A.U. after    8 cycles
 SCF Done:  E(RB3LYP) =  -602.915684721     A.U. after    8 cycles
 SCF Done:  E(RB3LYP) =  -602.915684845     A.U. after    8 cycles
 SCF Done:  E(RB3LYP) =  -602.915684964     A.U. after    7 cycles
 SCF Done:  E(RB3LYP) =  -602.915685148     A.U. after    8 cycles
 SCF Done:  E(RB3LYP) =  -602.915685246     A.U. after    7 cycles
 SCF Done:  E(RB3LYP) =  -602.915685303     A.U. after    7 cycles
 Optimization completed.
    -- Stationary point found.
 Normal termination of Gaussian 16 at Wed Dec  9 17:33:27 2020.

 --------------------------------------------------------------------
 #N Geom=AllCheck Guess=TCheck SCRF=Check GenChk RB3LYP/6-31G(d) Freq
 --------------------------------------------------------------------

 Structure from the checkpoint file:  "JID_2455.chk"
 ------------------------------
 CID_61374769_JID_2455_neutraal
 ------------------------------
 Charge =  0 Multiplicity = 1

 SCF Done:  E(RB3LYP) =  -602.915685303     A.U. after    1 cycles

  Exact polarizability:  85.355   7.118  86.257 -17.173  -1.412  86.237
 Approx polarizability: 128.930  14.345 146.611 -46.845  -0.549 159.165

                      1                      2                      3
                      A                      A                      A
 Frequencies --     34.9449                67.2815                75.2027
 Red. masses --      8.3179                 3.2869                 2.9616
 Frc consts  --      0.0060                 0.0088                 0.0099
 IR Inten    --      0.4692                 0.8633                 1.9109

                      4                      5                      6
                      A                      A                      A
 Frequencies --     85.7900               106.7181               159.8085
 Red. masses --      5.2421                 6.4239                 7.1983
 Frc consts  --      0.0227                 0.0431                 0.1083
 IR Inten    --      0.0792                 9.6654                 4.2189

                      7                      8                      9
                      A                      A                      A
 Frequencies --    243.7303               275.3693               331.0834
 Red. masses --      3.6605                 4.5662                 2.6979
 Frc consts  --      0.1281                 0.2040                 0.1742
 IR Inten    --      6.3356                 2.7415                 1.6211

                     10                     11                     12
                      A                      A                      A
 Frequencies --    377.1211               486.3494               562.5198
 Red. masses --      8.0976                 3.0867                 3.5241
 Frc consts  --      0.6785                 0.4302                 0.6570
 IR Inten    --     26.5035                 2.1094                 2.3053

                     13                     14                     15
                      A                      A                      A
 Frequencies --    564.5212               573.9331               581.1961
 Red. masses --      3.7349                 8.9138                 3.4327
 Frc consts  --      0.7013                 1.7300                 0.6832
 IR Inten    --      2.3228                12.0185                 3.0827

                     16                     17                     18
                      A                      A                      A
 Frequencies --    615.1167               658.7843               678.1897
 Red. masses --      3.8489                 4.3024                 6.0763
 Frc consts  --      0.8580                 1.1001                 1.6466
 IR Inten    --      8.2026                 9.4455                39.8757

                     19                     20                     21
                      A                      A                      A
 Frequencies --    708.3384               839.7823               852.9142
 Red. masses --      4.6052                 1.5601                 3.3809
 Frc consts  --      1.3614                 0.6482                 1.4491
 IR Inten    --      2.7487                14.8239                 8.8618

                     22                     23                     24
                      A                      A                      A
 Frequencies --    937.2414               980.0285              1005.8955
 Red. masses --      2.6573                 2.9515                 2.7481
 Frc consts  --      1.3753                 1.6702                 1.6383
 IR Inten    --      8.6037                14.8850                 3.4091

                     25                     26                     27
                      A                      A                      A
 Frequencies --   1021.3594              1037.9180              1099.1510
 Red. masses --      2.1908                 2.3254                 5.2773
 Frc consts  --      1.3465                 1.4759                 3.7565
 IR Inten    --      4.3629                 0.0811                14.0020

                     28                     29                     30
                      A                      A                      A
 Frequencies --   1125.2402              1181.1923              1207.4905
 Red. masses --      2.7444                 1.2427                 2.0646
 Frc consts  --      2.0474                 1.0215                 1.7736
 IR Inten    --     52.9939                 2.1067               102.3925

                     31                     32                     33
                      A                      A                      A
 Frequencies --   1258.7131              1277.2619              1296.9419
 Red. masses --      1.1216                 1.4607                 1.6178
 Frc consts  --      1.0470                 1.4040                 1.6033
 IR Inten    --      0.2914                 9.4476                 9.8258

                     34                     35                     36
                      A                      A                      A
 Frequencies --   1331.8493              1348.5153              1358.3203
 Red. masses --      1.6265                 2.3478                 2.2241
 Frc consts  --      1.6999                 2.5155                 2.4177
 IR Inten    --      9.6687                85.7410                65.5336

                     37                     38                     39
                      A                      A                      A
 Frequencies --   1397.2502              1409.2118              1427.8629
 Red. masses --      1.4203                 1.8859                 2.5541
 Frc consts  --      1.6337                 2.2065                 3.0681
 IR Inten    --     17.3724               111.1079               129.1662

                     40                     41                     42
                      A                      A                      A
 Frequencies --   1481.3193              1497.9398              1503.5611
 Red. masses --      1.0735                 1.1020                 1.1012
 Frc consts  --      1.3878                 1.4569                 1.4668
 IR Inten    --      0.2851                23.5055                14.7463

                     43                     44                     45
                      A                      A                      A
 Frequencies --   1524.2335              1811.1052              1873.3893
 Red. masses --      1.0869                12.5783                12.0640
 Frc consts  --      1.4878                24.3086                24.9458
 IR Inten    --      9.3395               574.1354                35.1733

                     46                     47                     48
                      A                      A                      A
 Frequencies --   2254.0565              3085.3387              3089.8687
 Red. masses --     13.5908                 1.0626                 1.0629
 Frc consts  --     40.6841                 5.9596                 5.9788
 IR Inten    --    383.7620                 9.7407                23.3622

                     49                     50                     51
                      A                      A                      A
 Frequencies --   3090.7406              3096.3255              3128.5543
 Red. masses --      1.0604                 1.0626                 1.1054
 Frc consts  --      5.9680                 6.0024                 6.3745
 IR Inten    --     13.4588                 0.8810                 0.2395

                     52                     53                     54
                      A                      A                      A
 Frequencies --   3142.8616              3149.1770              3161.5106
 Red. masses --      1.1035                 1.1040                 1.1039
 Frc consts  --      6.4223                 6.4506                 6.5008
 IR Inten    --      4.8938                10.0433                 3.3940

 - Thermochemistry -
 -------------------
 Temperature   298.150 Kelvin.  Pressure   1.00000 Atm.
 Atom     1 has atomic number  6 and mass  12.00000

 Molecular mass:   168.06473 amu.
 Principal axes and moments of inertia in atomic units:
                           1         2         3
     Eigenvalues --  1491.496831977.810052156.99227
           X            0.99552   0.05353  -0.07796
           Y           -0.05906   0.99577  -0.07036
           Z            0.07386   0.07465   0.99447
 This molecule is an asymmetric top.
 Rotational symmetry number  1.
 Warning -- assumption of classical behavior for rotation
           may cause significant error
 Rotational temperatures (Kelvin)      0.05807     0.04379     0.04015
 Rotational constants (GHZ):           1.21002     0.91249     0.83669
 Zero-point vibrational energy     403560.9 (Joules/Mol)
                                   96.45338 (Kcal/Mol)
 Warning -- explicit consideration of  16 degrees of freedom as
           vibrations may cause significant error
 Vibrational temperatures:     50.28    96.80   108.20   123.43   153.54
          (Kelvin)            229.93   350.67   396.19   476.36   542.59
                              699.75   809.34   812.22   825.76   836.21
                              885.02   947.84   975.76  1019.14  1208.26
                             1227.15  1348.48  1410.04  1447.26  1469.51
                             1493.33  1581.43  1618.97  1699.47  1737.31
                             1811.01  1837.69  1866.01  1916.23  1940.21
                             1954.32  2010.33  2027.54  2054.38  2131.29
                             2155.20  2163.29  2193.03  2605.78  2695.39
                             3243.08  4439.11  4445.63  4446.89  4454.92
                             4501.29  4521.88  4530.96  4548.71

 Zero-point correction=                           0.153708 (Hartree/Particle)
 Thermal correction to Energy=                    0.164729
 Thermal correction to Enthalpy=                  0.165673
 Thermal correction to Gibbs Free Energy=         0.115330
 Sum of electronic and zero-point Energies=           -602.761977
 Sum of electronic and thermal Energies=              -602.750957
 Sum of electronic and thermal Enthalpies=            -602.750012
 Sum of electronic and thermal Free Energies=         -602.800355

                     E (Thermal)             CV                S
                      KCal/Mol        Cal/Mol-Kelvin    Cal/Mol-Kelvin
 Total                  103.369             39.092            105.955
 Electronic               0.000              0.000              0.000
 Translational            0.889              2.981             41.266
 Rotational               0.889              2.981             30.232
 Vibrational            101.591             33.130             34.457
 Vibration     1          0.594              1.983              5.527
 Vibration     2          0.598              1.970              4.231
 Vibration     3          0.599              1.966              4.012
 Vibration     4          0.601              1.959              3.754
 Vibration     5          0.606              1.944              3.328
 Vibration     6          0.622              1.892              2.552
 Vibration     7          0.659              1.773              1.775
 Vibration     8          0.677              1.719              1.562
 Vibration     9          0.713              1.613              1.255
 Vibration    10          0.748              1.519              1.051
 Vibration    11          0.842              1.280              0.693
 Vibration    12          0.918              1.112              0.519
 Vibration    13          0.920              1.108              0.515
 Vibration    14          0.930              1.088              0.497
 Vibration    15          0.938              1.072              0.483
 Vibration    16          0.975              1.000              0.424

 Optimization completed.
    -- Stationary point found.
 Normal termination of Gaussian 16 at Wed Dec  9 17:39:10 2020.

 ----------------------------------------------------------------------
 # B3LYP/6-311++G(d,p) empiricaldispersion=gd3bj scf=xqc pop=npa geom=c
 heck
 ----------------------------------------------------------------------

 --------------------------------------
 CID_61374769_JID_2455_Energie_neutraal
 --------------------------------------
 Structure from the checkpoint file:  "JID_2455.chk"
 Charge =  0 Multiplicity = 1

 SCF Done:  E(RB3LYP) =  -603.087970942     A.U. after   15 cycles
 Normal termination of Gaussian 16 at Wed Dec  9 17:41:36 2020.

 ----------------------------------------------------------------------
 # B3LYP/6-311++G(d,p) empiricaldispersion=gd3bj scf=xqc pop=npa geom=c
 heck
 ----------------------------------------------------------------------

 ------------------------------------
 CID_61374769_JID_2455_Energie_kation
 ------------------------------------
 Structure from the checkpoint file:  "JID_2455.chk"
 Charge =  1 Multiplicity = 2

 SCF Done:  E(UB3LYP) =  -602.743362822     A.U. after   29 cycles
 Normal termination of Gaussian 16 at Wed Dec  9 17:48:06 2020.
 Gaussian 16:  ES64L-G16RevA.03 25-Dec-2016

 ----------------------------------------------------------------------
 # B3LYP/6-311++G(d,p) empiricaldispersion=gd3bj scf=xqc pop=npa geom=c
 heck
 ----------------------------------------------------------------------

 -----------------------------------
 CID_61374769_JID_2455_Energie_anion
 -----------------------------------
 Structure from the checkpoint file:  "JID_2455.chk"
 Charge = -1 Multiplicity = 2

                         Standard orientation:
 ---------------------------------------------------------------------
 Center     Atomic      Atomic             Coordinates (Angstroms)
 Number     Number       Type             X           Y           Z
 ---------------------------------------------------------------------
      1          6           0       -2.120457   -0.886230    0.307068
      2          6           0       -2.111287    0.562791    0.817714
      3          6           0       -0.925518    1.222792    0.126392
      4          8           0       -0.516283    2.357513    0.264193
      5          7           0       -0.344100    0.280107   -0.719140
      6          6           0       -0.986086   -0.964996   -0.706131
      7          8           0       -0.656634   -1.912354   -1.383978
      8          6           0        0.863937    0.541926   -1.485559
      9          6           0        2.084700    0.693564   -0.569563
     10          7           0        2.332426   -0.521714    0.234158
     11          7           0        1.588482   -0.683267    1.204387
     12          7           0        0.973434   -0.947172    2.132155
     13          1           0       -1.913124   -1.614155    1.097347
     14          1           0       -3.056238   -1.182218   -0.174605
     15          1           0       -1.968921    0.640417    1.899215
     16          1           0       -3.020225    1.118685    0.568538
     17          1           0        0.989699   -0.303938   -2.163850
     18          1           0        0.730204    1.462313   -2.062514
     19          1           0        2.978613    0.832680   -1.180542
     20          1           0        1.959895    1.570176    0.074248
 ---------------------------------------------------------------------

 SCF Done:  E(UB3LYP) =  -603.080541541     A.U. after   33 cycles
 SCF Done:  E(UB3LYP) =  -603.080541541     a.u. after    1 cycles

 The electronic state is 2-A.
 Alpha  occ. eigenvalues --  -19.00799 -19.00111 -14.32227 -14.25952 -14.22730
 Alpha  occ. eigenvalues --  -14.22066 -10.18578 -10.17531 -10.10864 -10.09703
 Alpha  occ. eigenvalues --  -10.08414 -10.08031  -0.99549  -0.96476  -0.94454
 Alpha  occ. eigenvalues --   -0.85492  -0.83760  -0.71556  -0.65281  -0.58652
 Alpha  occ. eigenvalues --   -0.56592  -0.51644  -0.44888  -0.41232  -0.40733
 Alpha  occ. eigenvalues --   -0.38326  -0.37277  -0.36921  -0.35696  -0.33842
 Alpha  occ. eigenvalues --   -0.32814  -0.31692  -0.31200  -0.30937  -0.29962
 Alpha  occ. eigenvalues --   -0.28807  -0.28439  -0.27300  -0.24110  -0.18613
 Alpha  occ. eigenvalues --   -0.17988  -0.16862  -0.15739  -0.12113   0.05051
 Alpha virt. eigenvalues --    0.06809   0.07908   0.08505   0.09880   0.10203
 Alpha virt. eigenvalues --    0.10692   0.11585   0.12664   0.12995   0.13533
 Alpha virt. eigenvalues --    0.14365   0.14662   0.16075   0.16574   0.17210

  Beta  occ. eigenvalues --  -19.00794 -19.00069 -14.31871 -14.25958 -14.22377
  Beta  occ. eigenvalues --  -14.22111 -10.18579 -10.17429 -10.10857 -10.09575
  Beta  occ. eigenvalues --  -10.08391 -10.08009  -0.98937  -0.96428  -0.94380
  Beta  occ. eigenvalues --   -0.85433  -0.83513  -0.71483  -0.65128  -0.58541
  Beta  occ. eigenvalues --   -0.56380  -0.51584  -0.44748  -0.41057  -0.40524
  Beta  occ. eigenvalues --   -0.37973  -0.36867  -0.36425  -0.35582  -0.33474
  Beta  occ. eigenvalues --   -0.32652  -0.31144  -0.30965  -0.30845  -0.29786
  Beta  occ. eigenvalues --   -0.28655  -0.28238  -0.27046  -0.23986  -0.18454
  Beta  occ. eigenvalues --   -0.17930  -0.16205  -0.15666  -0.12008
  Beta virt. eigenvalues --    0.08045   0.08349   0.08439   0.10042   0.10225
  Beta virt. eigenvalues --    0.10985   0.11608   0.11815   0.12760   0.13274
  Beta virt. eigenvalues --    0.13872   0.14490   0.14996   0.16007   0.16591

 Mulliken charges and spin densities:
               1          2
     1  C    0.046911  -0.377413
     2  C    0.179866  -0.461534
     3  C    0.225094  -0.240777
     4  O   -0.346845   0.030158
     5  N    0.103651   0.077447
     6  C    0.023269   0.030329
     7  O   -0.323802   0.002281
     8  C   -0.312518   0.084189
     9  C    0.537493  -0.885538
    10  N   -0.562003   0.328002
    11  N    0.572072  -0.072778
    12  N   -0.327709   0.114480
    13  H    0.226520  -0.023423
    14  H   -0.335380   0.532429
    15  H    0.074686   0.112162
    16  H   -0.556168   0.767731
    17  H    0.165747   0.039419
    18  H    0.159630   0.001651
    19  H   -0.704614   0.889045
    20  H    0.154099   0.052139
 Sum of Mulliken charges =  -1.00000   1.00000

 Dipole moment (field-independent basis, Debye):
    X=              0.2481    Y=             -0.0542    Z=             -0.3954  Tot=              0.4699
 Quadrupole moment (field-independent basis, Debye-Ang):
   XX=           -126.3878   YY=           -101.0190   ZZ=            -91.4299
   XY=              4.5452   XZ=              1.9156   YZ=             -2.7265

 Summary of Natural Population Analysis:

                                       Natural Population
                Natural  -----------------------------------------------
    Atom  No    Charge         Core      Valence    Rydberg      Total
 -----------------------------------------------------------------------
      C    1   -0.23618      0.99960     2.22766    0.00892     3.23618
      C    2   -0.23603      0.99960     2.22780    0.00863     3.23603
      C    3    0.37345      0.99966     1.60377    0.02312     2.62655
      O    4   -0.30221      0.99987     3.29692    0.00542     4.30221
      N    5   -0.26852      0.99959     2.75823    0.01070     3.76852
      C    6    0.36374      0.99966     1.61376    0.02284     2.63626
      O    7   -0.30118      0.99987     3.29590    0.00541     4.30118
      C    8   -0.09656      0.99961     2.08479    0.01216     3.09656
      C    9   -0.09219      0.99958     2.08063    0.01197     3.09219
      N   10   -0.20684      0.99970     2.69266    0.01447     3.70684
      N   11    0.14376      0.99970     2.34090    0.01564     3.35624
      N   12   -0.02856      0.99982     2.51626    0.01248     3.52856
      H   13    0.11892      0.00000     0.38023    0.00085     0.38108
      H   14    0.11542      0.00000     0.38240    0.00217     0.38458
      H   15    0.11704      0.00000     0.38212    0.00084     0.38296
      H   16    0.11986      0.00000     0.37309    0.00704     0.38014
      H   17    0.11360      0.00000     0.38522    0.00118     0.38640
      H   18    0.10339      0.00000     0.39571    0.00090     0.39661
      H   19    0.10084      0.00000     0.39621    0.00295     0.39916
      H   20    0.09825      0.00000     0.40072    0.00103     0.40175
 =======================================================================
   * Total *    0.00000     11.99627    31.83500    0.16874    44.00000

 Normal termination of Gaussian 16 at Wed Dec  9 17:53:51 2020.
