 Gaussian 16, Revision A.03,

 -----------------------------------------------------------
 # opt freq B3LYP/6-31G(d) empiricaldispersion=gd3bj scf=xqc
 -----------------------------------------------------------

 ------------------------------
 CID_64081426_JID_4739_neutraal
 ------------------------------
 Symbolic Z-matrix:
 Charge =  0 Multiplicity = 1

 SCF Done:  E(RB3LYP) =  -1026.71683212     A.U. after   15 cycles
 SCF Done:  E(RB3LYP) =  -1026.72720211     A.U. after   13 cycles
 SCF Done:  E(RB3LYP) =  -1026.72874208     A.U. after   12 cycles
 SCF Done:  E(RB3LYP) =  -1026.72924333     A.U. after   12 cycles
 SCF Done:  E(RB3LYP) =  -1026.72984492     A.U. after   12 cycles
 SCF Done:  E(RB3LYP) =  -1026.73039101     A.U. after   12 cycles
 SCF Done:  E(RB3LYP) =  -1026.73049555     A.U. after   15 cycles
 SCF Done:  E(RB3LYP) =  -1026.73082519     A.U. after   14 cycles
 SCF Done:  E(RB3LYP) =  -1026.73115113     A.U. after   12 cycles
 SCF Done:  E(RB3LYP) =  -1026.73122907     A.U. after   11 cycles
 SCF Done:  E(RB3LYP) =  -1026.73146344     A.U. after   11 cycles
 SCF Done:  E(RB3LYP) =  -1026.73147209     A.U. after   11 cycles
 SCF Done:  E(RB3LYP) =  -1026.73147550     A.U. after   10 cycles
 SCF Done:  E(RB3LYP) =  -1026.73147532     A.U. after    8 cycles
 SCF Done:  E(RB3LYP) =  -1026.73147651     A.U. after    9 cycles
 SCF Done:  E(RB3LYP) =  -1026.73147656     A.U. after    6 cycles
 Optimization completed.
    -- Stationary point found.
 Normal termination of Gaussian 16 at Thu Dec 10 10:36:35 2020.

 --------------------------------------------------------------------
 #N Geom=AllCheck Guess=TCheck SCRF=Check GenChk RB3LYP/6-31G(d) Freq
 --------------------------------------------------------------------

 Structure from the checkpoint file:  "JID_4739.chk"
 ------------------------------
 CID_64081426_JID_4739_neutraal
 ------------------------------
 Charge =  0 Multiplicity = 1

 SCF Done:  E(RB3LYP) =  -1026.73147656     A.U. after    1 cycles

  Exact polarizability: 143.471  -5.991 125.818 -10.197  -4.585  92.777
 Approx polarizability: 198.973  -0.073 193.107 -24.092  -5.194 148.619

                      1                      2                      3
                      A                      A                      A
 Frequencies --     23.8125                48.8069                57.8226
 Red. masses --      4.5498                 3.6915                 3.8369
 Frc consts  --      0.0015                 0.0052                 0.0076
 IR Inten    --      1.8140                 2.3581                 0.2684

                      4                      5                      6
                      A                      A                      A
 Frequencies --     83.6541                96.9949               151.4515
 Red. masses --      4.0473                 3.3645                 1.9390
 Frc consts  --      0.0167                 0.0186                 0.0262
 IR Inten    --      2.9005                 3.0625                 1.3343

                      7                      8                      9
                      A                      A                      A
 Frequencies --    162.5120               194.5408               205.5879
 Red. masses --      5.8910                 1.5762                 1.6146
 Frc consts  --      0.0917                 0.0351                 0.0402
 IR Inten    --      0.6857                 1.1105                 2.2938

                     10                     11                     12
                      A                      A                      A
 Frequencies --    219.0858               257.2248               274.4098
 Red. masses --      2.5819                 1.8989                 3.1290
 Frc consts  --      0.0730                 0.0740                 0.1388
 IR Inten    --      2.8870                 1.1625                 1.3829

                     13                     14                     15
                      A                      A                      A
 Frequencies --    332.0141               346.3116               355.5966
 Red. masses --      4.8702                 6.7373                 2.9708
 Frc consts  --      0.3163                 0.4761                 0.2213
 IR Inten    --      2.3538                 2.8380                 6.4497

                     16                     17                     18
                      A                      A                      A
 Frequencies --    368.4478               400.0582               479.7370
 Red. masses --      4.8570                 2.1696                 2.8660
 Frc consts  --      0.3885                 0.2046                 0.3886
 IR Inten    --      2.8253                 2.7187                 6.9322

                     19                     20                     21
                      A                      A                      A
 Frequencies --    490.9625               508.3499               549.0390
 Red. masses --      6.5761                 1.5406                 4.0338
 Frc consts  --      0.9339                 0.2346                 0.7164
 IR Inten    --     10.0885                79.9813                30.8934

                     22                     23                     24
                      A                      A                      A
 Frequencies --    621.5958               639.2384               642.2534
 Red. masses --      7.7096                 2.3081                 3.3109
 Frc consts  --      1.7551                 0.5557                 0.8047
 IR Inten    --     90.9976                 2.6727                 6.8177

                     25                     26                     27
                      A                      A                      A
 Frequencies --    690.9703               704.5222               791.7464
 Red. masses --      3.2258                 1.4083                 1.5900
 Frc consts  --      0.9074                 0.4118                 0.5873
 IR Inten    --    120.1112                82.2092               105.8073

                     28                     29                     30
                      A                      A                      A
 Frequencies --    800.1810               833.5435               851.6525
 Red. masses --      1.2851                 2.0368                 1.2495
 Frc consts  --      0.4848                 0.8338                 0.5340
 IR Inten    --     24.5985                24.6605                 5.4861

                     31                     32                     33
                      A                      A                      A
 Frequencies --    904.4186               912.0887               958.2580
 Red. masses --      2.4550                 4.8313                 4.3227
 Frc consts  --      1.1832                 2.3680                 2.3387
 IR Inten    --    119.5515                 7.5791                11.5158

                     34                     35                     36
                      A                      A                      A
 Frequencies --    974.6967              1012.5649              1063.6053
 Red. masses --      2.5754                 1.6118                 1.6600
 Frc consts  --      1.4415                 0.9737                 1.1064
 IR Inten    --     53.3501                 0.9485                34.3353

                     37                     38                     39
                      A                      A                      A
 Frequencies --   1066.6690              1104.7949              1108.4194
 Red. masses --      1.7957                 1.3953                 3.0439
 Frc consts  --      1.2037                 1.0034                 2.2034
 IR Inten    --     36.3294                30.4626                65.0160

                     40                     41                     42
                      A                      A                      A
 Frequencies --   1119.7530              1153.8133              1162.8048
 Red. masses --      3.2302                 1.4247                 1.4358
 Frc consts  --      2.3863                 1.1175                 1.1438
 IR Inten    --    119.9110                 6.8447                 5.1147

                     43                     44                     45
                      A                      A                      A
 Frequencies --   1175.5367              1198.7271              1221.3711
 Red. masses --      1.3932                 2.6566                 1.9794
 Frc consts  --      1.1343                 2.2491                 1.7397
 IR Inten    --      5.5641                10.5140                 7.1716

                     46                     47                     48
                      A                      A                      A
 Frequencies --   1249.7436              1259.3464              1286.7295
 Red. masses --      2.4169                 2.0425                 2.6677
 Frc consts  --      2.2241                 1.9085                 2.6023
 IR Inten    --     25.1061                12.1430                16.8343

                     49                     50                     51
                      A                      A                      A
 Frequencies --   1312.0170              1327.1843              1338.8861
 Red. masses --      9.7130                 1.3531                 1.3886
 Frc consts  --      9.8511                 1.4042                 1.4666
 IR Inten    --    183.6797                12.1766                 3.9490

                     52                     53                     54
                      A                      A                      A
 Frequencies --   1398.7899              1413.6094              1426.4541
 Red. masses --      1.2950                 1.2413                 4.3557
 Frc consts  --      1.4929                 1.4615                 5.2219
 IR Inten    --     23.4252                 4.6472                 3.7339

                     55                     56                     57
                      A                      A                      A
 Frequencies --   1468.9115              1476.3006              1484.1769
 Red. masses --      3.0407                 1.1458                 1.1598
 Frc consts  --      3.8655                 1.4713                 1.5053
 IR Inten    --     14.7938                 1.5450                 4.0010

                     58                     59                     60
                      A                      A                      A
 Frequencies --   1508.6692              1513.6592              1523.2814
 Red. masses --      1.0912                 1.0976                 1.0477
 Frc consts  --      1.4634                 1.4816                 1.4324
 IR Inten    --      1.4282                 3.5687                 6.2382

                     61                     62                     63
                      A                      A                      A
 Frequencies --   1527.0227              1528.9814              1530.5146
 Red. masses --      1.1779                 2.7253                 1.1106
 Frc consts  --      1.6183                 3.7538                 1.5328
 IR Inten    --      1.9278                28.8663                15.7454

                     64                     65                     66
                      A                      A                      A
 Frequencies --   1534.8919              1561.2350              1591.9686
 Red. masses --      1.0980                 1.0493                 3.3819
 Frc consts  --      1.5241                 1.5069                 5.0499
 IR Inten    --     13.8879                 5.2434                11.2377

                     67                     68                     69
                      A                      A                      A
 Frequencies --   3007.2431              3018.1570              3039.0625
 Red. masses --      1.0455                 1.0719                 1.0556
 Frc consts  --      5.5706                 5.7530                 5.7445
 IR Inten    --     43.9066                37.6663                27.2587

                     70                     71                     72
                      A                      A                      A
 Frequencies --   3043.9211              3075.4035              3077.5032
 Red. masses --      1.0459                 1.0899                 1.1039
 Frc consts  --      5.7096                 6.0736                 6.1599
 IR Inten    --     84.6142                40.9890                38.9253

                     73                     74                     75
                      A                      A                      A
 Frequencies --   3107.2369              3119.2844              3146.9666
 Red. masses --      1.1028                 1.0960                 1.1039
 Frc consts  --      6.2735                 6.2831                 6.4411
 IR Inten    --     36.0675                18.1205                15.2941

                     76                     77                     78
                      A                      A                      A
 Frequencies --   3163.2912              3278.3253              3295.4153
 Red. masses --      1.0902                 1.0902                 1.1039
 Frc consts  --      6.4274                 6.9034                 7.0635
 IR Inten    --      3.5567                 0.0420                 1.8597

                     79                     80                     81
                      A                      A                      A
 Frequencies --   3306.6769              3484.3986              3664.3245
 Red. masses --      1.0983                 1.0730                 1.0809
 Frc consts  --      7.0755                 7.6751                 8.5514
 IR Inten    --      3.7172                 0.9526                81.4720

 - Thermochemistry -
 -------------------
 Temperature   298.150 Kelvin.  Pressure   1.00000 Atm.
 Atom     1 has atomic number  6 and mass  12.00000

 Molecular mass:   217.08850 amu.
 Principal axes and moments of inertia in atomic units:
                           1         2         3
     Eigenvalues --  2083.117543662.120694494.98913
           X            0.99998   0.00180  -0.00648
           Y           -0.00220   0.99805  -0.06234
           Z            0.00636   0.06236   0.99803
 This molecule is an asymmetric top.
 Rotational symmetry number  1.
 Warning -- assumption of classical behavior for rotation
           may cause significant error
 Rotational temperatures (Kelvin)      0.04158     0.02365     0.01927
 Rotational constants (GHZ):           0.86637     0.49281     0.40150
 Zero-point vibrational energy     636468.5 (Joules/Mol)
                                  152.11963 (Kcal/Mol)
 Warning -- explicit consideration of  21 degrees of freedom as
           vibrations may cause significant error
 Vibrational temperatures:     34.26    70.22    83.19   120.36   139.55
          (Kelvin)            217.90   233.82   279.90   295.80   315.22
                              370.09   394.81   477.69   498.27   511.62
                              530.11   575.59   690.23   706.39   731.40
                              789.94   894.34   919.72   924.06   994.15
                             1013.65  1139.15  1151.28  1199.28  1225.34
                             1301.26  1312.29  1378.72  1402.37  1456.86
                             1530.29  1534.70  1589.55  1594.77  1611.07
                             1660.08  1673.02  1691.34  1724.70  1757.28
                             1798.10  1811.92  1851.32  1887.70  1909.52
                             1926.36  2012.55  2033.87  2052.35  2113.44
                             2124.07  2135.40  2170.64  2177.82  2191.66
                             2197.05  2199.86  2202.07  2208.37  2246.27
                             2290.49  4326.75  4342.45  4372.53  4379.52
                             4424.82  4427.84  4470.62  4487.95  4527.78
                             4551.27  4716.78  4741.37  4757.57  5013.27
                             5272.15

 Zero-point correction=                           0.242418 (Hartree/Particle)
 Thermal correction to Energy=                    0.257315
 Thermal correction to Enthalpy=                  0.258259
 Thermal correction to Gibbs Free Energy=         0.199422
 Sum of electronic and zero-point Energies=          -1026.489058
 Sum of electronic and thermal Energies=             -1026.474162
 Sum of electronic and thermal Enthalpies=           -1026.473217
 Sum of electronic and thermal Free Energies=        -1026.532054

                     E (Thermal)             CV                S
                      KCal/Mol        Cal/Mol-Kelvin    Cal/Mol-Kelvin
 Total                  161.468             55.040            123.832
 Electronic               0.000              0.000              0.000
 Translational            0.889              2.981             42.029
 Rotational               0.889              2.981             31.906
 Vibrational            159.690             49.079             49.898
 Vibration     1          0.593              1.985              6.288
 Vibration     2          0.595              1.978              4.865
 Vibration     3          0.596              1.974              4.530
 Vibration     4          0.601              1.960              3.803
 Vibration     5          0.603              1.951              3.514
 Vibration     6          0.619              1.901              2.654
 Vibration     7          0.623              1.888              2.520
 Vibration     8          0.635              1.847              2.184
 Vibration     9          0.640              1.832              2.083
 Vibration    10          0.647              1.812              1.967
 Vibration    11          0.667              1.751              1.681
 Vibration    12          0.677              1.721              1.568
 Vibration    13          0.714              1.612              1.250
 Vibration    14          0.724              1.583              1.183
 Vibration    15          0.731              1.564              1.141
 Vibration    16          0.741              1.537              1.086
 Vibration    17          0.766              1.470              0.962
 Vibration    18          0.836              1.295              0.711
 Vibration    19          0.847              1.270              0.681
 Vibration    20          0.864              1.231              0.638
 Vibration    21          0.904              1.142              0.546

 Optimization completed.
    -- Stationary point found.
 Normal termination of Gaussian 16 at Thu Dec 10 10:45:14 2020.

 ----------------------------------------------------------------------
 # B3LYP/6-311++G(d,p) empiricaldispersion=gd3bj scf=xqc pop=npa geom=c
 heck
 ----------------------------------------------------------------------

 --------------------------------------
 CID_64081426_JID_4739_Energie_neutraal
 --------------------------------------
 Structure from the checkpoint file:  "JID_4739.chk"
 Charge =  0 Multiplicity = 1

 SCF Done:  E(RB3LYP) =  -1026.94340777     A.U. after   16 cycles
 Normal termination of Gaussian 16 at Thu Dec 10 10:49:38 2020.

 ----------------------------------------------------------------------
 # B3LYP/6-311++G(d,p) empiricaldispersion=gd3bj scf=xqc pop=npa geom=c
 heck
 ----------------------------------------------------------------------

 ------------------------------------
 CID_64081426_JID_4739_Energie_kation
 ------------------------------------
 Structure from the checkpoint file:  "JID_4739.chk"
 Charge =  1 Multiplicity = 2

 SCF Done:  E(UB3LYP) =  -1026.64628966     A.U. after   25 cycles
 Normal termination of Gaussian 16 at Thu Dec 10 10:59:38 2020.
 Gaussian 16:  ES64L-G16RevA.03 25-Dec-2016

 ----------------------------------------------------------------------
 # B3LYP/6-311++G(d,p) empiricaldispersion=gd3bj scf=xqc pop=npa geom=c
 heck
 ----------------------------------------------------------------------

 -----------------------------------
 CID_64081426_JID_4739_Energie_anion
 -----------------------------------
 Structure from the checkpoint file:  "JID_4739.chk"
 Charge = -1 Multiplicity = 2

                         Standard orientation:
 ---------------------------------------------------------------------
 Center     Atomic      Atomic             Coordinates (Angstroms)
 Number     Number       Type             X           Y           Z
 ---------------------------------------------------------------------
      1          6           0       -2.451272   -2.096205    0.814902
      2          7           0       -2.437077   -1.643449   -0.576238
      3          6           0       -3.018403   -0.324417   -0.780299
      4          6           0       -2.272377    0.839837   -0.099623
      5          7           0       -0.861970    0.832918   -0.513316
      6          6           0       -0.555936    1.491384   -1.781863
      7         16           0        0.319551    1.038182    0.680733
      8          8           0        0.931549    2.370576    0.579202
      9          8           0       -0.279714    0.583935    1.940524
     10          6           0        1.529481   -0.123624    0.170588
     11          6           0        2.769488    0.213224   -0.334803
     12          7           0        3.416254   -0.960005   -0.606255
     13          6           0        2.612877   -2.035576   -0.280945
     14          6           0        1.425137   -1.546755    0.207535
     15          1           0       -3.490487   -2.151695    1.160474
     16          1           0       -1.890688   -1.462386    1.520027
     17          1           0       -2.037067   -3.109756    0.861826
     18          1           0       -1.471212   -1.607301   -0.900208
     19          1           0       -3.071117   -0.144932   -1.862125
     20          1           0       -4.053529   -0.334263   -0.414460
     21          1           0       -2.741496    1.803244   -0.349702
     22          1           0       -2.303634    0.727947    0.984015
     23          1           0       -0.664101    2.582182   -1.723896
     24          1           0        0.466715    1.251326   -2.084117
     25          1           0       -1.234236    1.099463   -2.544338
     26          1           0        3.212679    1.182949   -0.497879
     27          1           0        4.351958   -1.028475   -0.977117
     28          1           0        2.958257   -3.049454   -0.417955
     29          1           0        0.586049   -2.119310    0.573622
 ---------------------------------------------------------------------

 SCF Done:  E(UB3LYP) =  -1026.93852145     A.U. after   31 cycles

 The electronic state is 2-A.
 Alpha  occ. eigenvalues --  -88.96796 -19.02176 -19.01863 -14.26788 -14.25233
 Alpha  occ. eigenvalues --  -14.21017 -10.11886 -10.11515 -10.11461 -10.11158
 Alpha  occ. eigenvalues --  -10.10599 -10.09821 -10.09498 -10.07769  -8.02915
 Alpha  occ. eigenvalues --   -5.99201  -5.99171  -5.99005  -1.02247  -0.91239
 Alpha  occ. eigenvalues --   -0.89182  -0.85184  -0.81322  -0.70772  -0.66533
 Alpha  occ. eigenvalues --   -0.64724  -0.62259  -0.59716  -0.55524  -0.51311
 Alpha  occ. eigenvalues --   -0.49805  -0.46553  -0.46316  -0.42980  -0.40550
 Alpha  occ. eigenvalues --   -0.40104  -0.39118  -0.37115  -0.35907  -0.34341
 Alpha  occ. eigenvalues --   -0.33996  -0.33554  -0.33108  -0.32526  -0.32169
 Alpha  occ. eigenvalues --   -0.31314  -0.30641  -0.29696  -0.28075  -0.26699
 Alpha  occ. eigenvalues --   -0.25216  -0.22883  -0.22267  -0.21220  -0.18194
 Alpha  occ. eigenvalues --   -0.15684  -0.14105  -0.13797   0.04016
 Alpha virt. eigenvalues --    0.05743   0.06996   0.07843   0.08467   0.08642
 Alpha virt. eigenvalues --    0.09678   0.10297   0.10523   0.11050   0.11399
 Alpha virt. eigenvalues --    0.11612   0.12087   0.12721   0.13421   0.13912

  Beta  occ. eigenvalues --  -88.96794 -19.02171 -19.01858 -14.26701 -14.25231
  Beta  occ. eigenvalues --  -14.21014 -10.11880 -10.11498 -10.11439 -10.11148
  Beta  occ. eigenvalues --  -10.10574 -10.09813 -10.09496 -10.07767  -8.02911
  Beta  occ. eigenvalues --   -5.99198  -5.99169  -5.99002  -1.02233  -0.91226
  Beta  occ. eigenvalues --   -0.89087  -0.85176  -0.81313  -0.70700  -0.66508
  Beta  occ. eigenvalues --   -0.64674  -0.62220  -0.59687  -0.55479  -0.51249
  Beta  occ. eigenvalues --   -0.49718  -0.46520  -0.46227  -0.42947  -0.40531
  Beta  occ. eigenvalues --   -0.40082  -0.39068  -0.37092  -0.35889  -0.34315
  Beta  occ. eigenvalues --   -0.33916  -0.33528  -0.33068  -0.32486  -0.32141
  Beta  occ. eigenvalues --   -0.31288  -0.30615  -0.29678  -0.28061  -0.26684
  Beta  occ. eigenvalues --   -0.25207  -0.22872  -0.22256  -0.21209  -0.18165
  Beta  occ. eigenvalues --   -0.15660  -0.14097  -0.13778
  Beta virt. eigenvalues --    0.05899   0.07180   0.07535   0.08459   0.08871
  Beta virt. eigenvalues --    0.09229   0.09754   0.10636   0.11028   0.11109
  Beta virt. eigenvalues --    0.11522   0.11760   0.12105   0.13175   0.13367

 Mulliken charges and spin densities:
               1          2
     1  C   -0.233107  -0.189267
     2  N   -0.189789   0.055874
     3  C    0.110748  -0.626689
     4  C   -0.656975   0.383982
     5  N   -0.079968   0.054163
     6  C    0.072603  -0.471983
     7  S    1.194320  -1.125122
     8  O   -0.114267   0.014818
     9  O   -0.244608  -0.007974
    10  C    0.469108  -1.744935
    11  C    0.099206   0.372862
    12  N    0.233709  -0.317324
    13  C    0.537876  -1.275813
    14  C   -0.786385   1.664441
    15  H    0.071916   0.063024
    16  H    0.079589   0.043317
    17  H    0.074897   0.086771
    18  H    0.186332   0.073380
    19  H    0.037780   0.134393
    20  H    0.007770   0.125183
    21  H   -0.033399   0.172370
    22  H    0.253389  -0.062450
    23  H    0.050734   0.140170
    24  H   -0.031997   0.220121
    25  H   -0.140964   0.283549
    26  H   -0.290017   0.514323
    27  H   -0.844666   1.210761
    28  H   -0.967603   1.143816
    29  H    0.133769   0.064238
 Sum of Mulliken charges =  -1.00000   1.00000

 Dipole moment (field-independent basis, Debye):
    X=            -10.3870    Y=              2.6360    Z=              2.4383  Tot=             10.9902
 Quadrupole moment (field-independent basis, Debye-Ang):
   XX=           -177.3301   YY=           -136.8767   ZZ=           -128.1347
   XY=             12.2412   XZ=             10.7134   YZ=             -8.9560

 Summary of Natural Population Analysis:

                                       Natural Population
                Natural  -----------------------------------------------
    Atom  No    Charge         Core      Valence    Rydberg      Total
 -----------------------------------------------------------------------
      C    1   -0.18738      0.99966     2.18050    0.00722     3.18738
      N    2   -0.33996      0.99976     2.82887    0.01133     3.83996
      C    3   -0.09174      0.99962     2.07950    0.01262     3.09174
      C    4   -0.10093      0.99960     2.08970    0.01163     3.10093
      N    5   -0.38123      0.99973     2.86667    0.01482     3.88123
      C    6   -0.18168      0.99963     2.17261    0.00943     3.18168
      S    7    1.12029      4.99907     1.78000    0.10064     6.87971
      O    8   -0.46568      0.99991     3.46063    0.00514     4.46568
      O    9   -0.46667      0.99990     3.46150    0.00527     4.46667
      C   10   -0.20025      0.99935     2.18434    0.01656     3.20025
      C   11    0.00477      0.99949     1.98119    0.01456     2.99523
      N   12   -0.25285      0.99969     2.74104    0.01211     3.75285
      C   13   -0.00780      0.99956     1.99401    0.01422     3.00780
      C   14   -0.14077      0.99950     2.12967    0.01160     3.14077
      H   15    0.08761      0.00000     0.41145    0.00094     0.41239
      H   16    0.09120      0.00000     0.40739    0.00142     0.40880
      H   17    0.09422      0.00000     0.40490    0.00088     0.40578
      H   18    0.17690      0.00000     0.31910    0.00400     0.32310
      H   19    0.09286      0.00000     0.40602    0.00112     0.40714
      H   20    0.09148      0.00000     0.40765    0.00087     0.40852
      H   21    0.09048      0.00000     0.40825    0.00128     0.40952
      H   22    0.11398      0.00000     0.38476    0.00127     0.38602
      H   23    0.09414      0.00000     0.40478    0.00108     0.40586
      H   24    0.10862      0.00000     0.39032    0.00106     0.39138
      H   25    0.09823      0.00000     0.40060    0.00116     0.40177
      H   26    0.11453      0.00000     0.38411    0.00136     0.38547
      H   27    0.21975      0.00000     0.21948    0.06078     0.28025
      H   28    0.10737      0.00000     0.38976    0.00287     0.39263
      H   29    0.11054      0.00000     0.38829    0.00117     0.38946
 =======================================================================
   * Total *   -0.00000     17.99449    39.67709    0.32842    58.00000

 Normal termination of Gaussian 16 at Thu Dec 10 11:11:43 2020.
