 Gaussian 16, Revision A.03,

 -----------------------------------------------------------
 # opt freq B3LYP/6-31G(d) empiricaldispersion=gd3bj scf=xqc
 -----------------------------------------------------------

 -------------------------------
 CID_106660823_JID_5443_neutraal
 -------------------------------
 Symbolic Z-matrix:
 Charge =  0 Multiplicity = 1

 SCF Done:  E(RB3LYP) =  -670.119978652     A.U. after   14 cycles
 SCF Done:  E(RB3LYP) =  -670.125896952     A.U. after   12 cycles
 SCF Done:  E(RB3LYP) =  -670.126304209     A.U. after   12 cycles
 SCF Done:  E(RB3LYP) =  -670.127378273     A.U. after   12 cycles
 SCF Done:  E(RB3LYP) =  -670.128016923     A.U. after   12 cycles
 SCF Done:  E(RB3LYP) =  -670.128527060     A.U. after   12 cycles
 SCF Done:  E(RB3LYP) =  -670.128715585     A.U. after   11 cycles
 SCF Done:  E(RB3LYP) =  -670.128786354     A.U. after   10 cycles
 SCF Done:  E(RB3LYP) =  -670.128797832     A.U. after   10 cycles
 SCF Done:  E(RB3LYP) =  -670.128804881     A.U. after    9 cycles
 SCF Done:  E(RB3LYP) =  -670.129096713     A.U. after   14 cycles
 SCF Done:  E(RB3LYP) =  -670.129096363     A.U. after   10 cycles
 SCF Done:  E(RB3LYP) =  -670.129103576     A.U. after   10 cycles
 SCF Done:  E(RB3LYP) =  -670.129103636     A.U. after    7 cycles
 SCF Done:  E(RB3LYP) =  -670.129104127     A.U. after    7 cycles
 Optimization completed.
    -- Stationary point found.
 Normal termination of Gaussian 16 at Thu Dec 10 16:51:21 2020.

 --------------------------------------------------------------------
 #N Geom=AllCheck Guess=TCheck SCRF=Check GenChk RB3LYP/6-31G(d) Freq
 --------------------------------------------------------------------

 Structure from the checkpoint file:  "JID_5443.chk"
 -------------------------------
 CID_106660823_JID_5443_neutraal
 -------------------------------
 Charge =  0 Multiplicity = 1

 SCF Done:  E(RB3LYP) =  -670.129104127     A.U. after    1 cycles

  Exact polarizability: 183.885 -10.082 147.786   1.838   6.386  91.590
 Approx polarizability: 249.872  -9.815 218.491   7.324  18.974 141.276

                      1                      2                      3
                      A                      A                      A
 Frequencies --     21.4155                40.3856                54.6843
 Red. masses --      4.0408                 2.9259                 1.0857
 Frc consts  --      0.0011                 0.0028                 0.0019
 IR Inten    --      0.5180                 1.5254                 0.2741

                      4                      5                      6
                      A                      A                      A
 Frequencies --     64.9713                93.4167               102.4330
 Red. masses --      3.5639                 3.1746                 2.8657
 Frc consts  --      0.0089                 0.0163                 0.0177
 IR Inten    --      0.8397                 0.4250                 2.5612

                      7                      8                      9
                      A                      A                      A
 Frequencies --    108.6066               156.1628               175.5007
 Red. masses --      3.2585                 2.3681                 1.3493
 Frc consts  --      0.0226                 0.0340                 0.0245
 IR Inten    --      1.2393                 1.8181                 1.0484

                     10                     11                     12
                      A                      A                      A
 Frequencies --    225.8364               230.6100               239.3972
 Red. masses --      2.6714                 1.9560                 3.3998
 Frc consts  --      0.0803                 0.0613                 0.1148
 IR Inten    --      2.1294                 0.9550                 3.4355

                     13                     14                     15
                      A                      A                      A
 Frequencies --    264.4315               288.2766               312.7151
 Red. masses --      1.2504                 1.5478                 2.0376
 Frc consts  --      0.0515                 0.0758                 0.1174
 IR Inten    --     17.8214                14.8036                10.2577

                     16                     17                     18
                      A                      A                      A
 Frequencies --    337.3175               352.9006               404.9766
 Red. masses --      2.3028                 5.0826                 2.1943
 Frc consts  --      0.1544                 0.3729                 0.2120
 IR Inten    --      4.2210                 3.9148                12.3356

                     19                     20                     21
                      A                      A                      A
 Frequencies --    415.3930               441.9250               461.2587
 Red. masses --      4.0175                 2.2894                 3.3478
 Frc consts  --      0.4084                 0.2634                 0.4197
 IR Inten    --      2.5533                 9.4264                 4.8798

                     22                     23                     24
                      A                      A                      A
 Frequencies --    498.8871               524.0019               543.4826
 Red. masses --      3.3085                 3.4706                 3.6971
 Frc consts  --      0.4852                 0.5615                 0.6434
 IR Inten    --     12.8893                 2.1154                 3.9370

                     25                     26                     27
                      A                      A                      A
 Frequencies --    623.7521               656.7495               713.6184
 Red. masses --      3.7722                 4.6042                 1.8212
 Frc consts  --      0.8647                 1.1701                 0.5464
 IR Inten    --     15.5420                11.9761                70.0025

                     28                     29                     30
                      A                      A                      A
 Frequencies --    759.2164               767.8434               775.6661
 Red. masses --      3.8567                 2.3513                 3.9279
 Frc consts  --      1.3098                 0.8168                 1.3924
 IR Inten    --      2.1368                 8.9760                 6.8768

                     31                     32                     33
                      A                      A                      A
 Frequencies --    809.7654               858.1566               871.3914
 Red. masses --      3.1094                 1.4282                 1.8369
 Frc consts  --      1.2013                 0.6197                 0.8218
 IR Inten    --      4.3286                18.7034                 2.8792

                     34                     35                     36
                      A                      A                      A
 Frequencies --    903.3505               940.4769               950.7367
 Red. masses --      1.6739                 1.4180                 1.4172
 Frc consts  --      0.8048                 0.7390                 0.7548
 IR Inten    --    151.5689                21.0858                 1.1943

                     37                     38                     39
                      A                      A                      A
 Frequencies --    960.5023               998.4449              1014.6481
 Red. masses --      2.1396                 1.7983                 1.9432
 Frc consts  --      1.1630                 1.0563                 1.1787
 IR Inten    --     11.7616                10.4941                 2.8694

                     40                     41                     42
                      A                      A                      A
 Frequencies --   1035.5510              1042.6336              1073.3893
 Red. masses --      1.8749                 4.1749                 1.5563
 Frc consts  --      1.1846                 2.6740                 1.0564
 IR Inten    --     27.8754                39.1117                 6.3743

                     43                     44                     45
                      A                      A                      A
 Frequencies --   1075.1185              1113.7482              1147.3730
 Red. masses --      1.6506                 2.9513                 2.2782
 Frc consts  --      1.1241                 2.1570                 1.7670
 IR Inten    --      5.7888                16.1307                72.7130

                     46                     47                     48
                      A                      A                      A
 Frequencies --   1188.2264              1190.5769              1200.9528
 Red. masses --      1.6143                 1.2901                 2.2249
 Frc consts  --      1.3429                 1.0775                 1.8907
 IR Inten    --     18.9927                 5.8874                38.4862

                     49                     50                     51
                      A                      A                      A
 Frequencies --   1211.2635              1222.2916              1249.2526
 Red. masses --      1.5590                 1.6761                 1.7191
 Frc consts  --      1.3477                 1.4754                 1.5807
 IR Inten    --      1.4097                33.2369                19.9373

                     52                     53                     54
                      A                      A                      A
 Frequencies --   1274.9519              1298.0530              1315.2380
 Red. masses --      1.8113                 3.3753                 1.4983
 Frc consts  --      1.7347                 3.3508                 1.5271
 IR Inten    --    112.5134                12.2036                 0.6486

                     55                     56                     57
                      A                      A                      A
 Frequencies --   1329.4979              1356.3406              1373.6385
 Red. masses --      1.5144                 3.0415                 1.4346
 Frc consts  --      1.5771                 3.2967                 1.5949
 IR Inten    --     79.1602                47.0289                 9.6146

                     58                     59                     60
                      A                      A                      A
 Frequencies --   1393.0811              1397.7394              1434.0852
 Red. masses --      1.8456                 1.3730                 1.3489
 Frc consts  --      2.1103                 1.5804                 1.6345
 IR Inten    --     28.2480                 4.4790                14.5488

                     61                     62                     63
                      A                      A                      A
 Frequencies --   1434.2994              1443.3557              1445.0655
 Red. masses --      1.3026                 1.5766                 1.3516
 Frc consts  --      1.5789                 1.9351                 1.6629
 IR Inten    --      7.9549                10.8342                 5.4374

                     64                     65                     66
                      A                      A                      A
 Frequencies --   1494.5049              1504.4831              1506.0086
 Red. masses --      1.2174                 1.0901                 1.0454
 Frc consts  --      1.6021                 1.4538                 1.3970
 IR Inten    --      2.8491                 0.7125                 4.5704

                     67                     68                     69
                      A                      A                      A
 Frequencies --   1514.8281              1520.6887              1524.8490
 Red. masses --      1.0543                 1.1397                 1.1055
 Frc consts  --      1.4254                 1.5528                 1.5145
 IR Inten    --     13.3883                15.5789                 8.5162

                     70                     71                     72
                      A                      A                      A
 Frequencies --   1526.0733              1535.2502              1540.3010
 Red. masses --      1.0608                 1.9296                 1.0674
 Frc consts  --      1.4556                 2.6796                 1.4921
 IR Inten    --      4.5493                53.3596                 0.1240

                     73                     74                     75
                      A                      A                      A
 Frequencies --   1545.7547              1555.3519              1629.8459
 Red. masses --      2.4563                 1.0829                 3.8008
 Frc consts  --      3.4579                 1.5435                 5.9487
 IR Inten    --    162.1735                21.6051                20.5922

                     76                     77                     78
                      A                      A                      A
 Frequencies --   1654.8621              1696.7219              2999.0144
 Red. masses --      5.5330                 1.0905                 1.0748
 Frc consts  --      8.9276                 1.8496                 5.6956
 IR Inten    --    153.0573                24.7813                55.6181

                     79                     80                     81
                      A                      A                      A
 Frequencies --   3021.6391              3032.3562              3035.7864
 Red. masses --      1.0760                 1.0599                 1.0508
 Frc consts  --      5.7882                 5.7424                 5.7055
 IR Inten    --      2.7574                36.7141                53.1264

                     82                     83                     84
                      A                      A                      A
 Frequencies --   3038.7947              3055.2501              3098.9859
 Red. masses --      1.0328                 1.0358                 1.1000
 Frc consts  --      5.6194                 5.6964                 6.2244
 IR Inten    --     51.2911                23.6538                36.3577

                     85                     86                     87
                      A                      A                      A
 Frequencies --   3100.9344              3106.3460              3106.7379
 Red. masses --      1.0968                 1.1037                 1.1029
 Frc consts  --      6.2137                 6.2747                 6.2718
 IR Inten    --     62.3218                19.1194                39.7431

                     88                     89                     90
                      A                      A                      A
 Frequencies --   3114.8943              3134.2286              3153.3623
 Red. masses --      1.1009                 1.1031                 1.1038
 Frc consts  --      6.2932                 6.3847                 6.4665
 IR Inten    --     14.6871                17.0606                28.9858

                     91                     92                     93
                      A                      A                      A
 Frequencies --   3160.8140              3169.6668              3173.4605
 Red. masses --      1.0888                 1.0900                 1.0907
 Frc consts  --      6.4090                 6.4519                 6.4719
 IR Inten    --      3.5107                40.1562                 3.7744

                     94                     95                     96
                      A                      A                      A
 Frequencies --   3444.5783              3531.1116              3546.0392
 Red. masses --      1.0497                 1.0915                 1.0742
 Frc consts  --      7.3381                 8.0186                 7.9581
 IR Inten    --      4.1430                 1.3376                 3.3353

 - Thermochemistry -
 -------------------
 Temperature   298.150 Kelvin.  Pressure   1.00000 Atm.
 Atom     1 has atomic number  6 and mass  12.00000

 Molecular mass:   209.15281 amu.
 Principal axes and moments of inertia in atomic units:
                           1         2         3
     Eigenvalues --  1813.882646037.747167411.21810
           X            0.99997  -0.00253  -0.00662
           Y            0.00245   0.99993  -0.01167
           Z            0.00665   0.01165   0.99991
 This molecule is an asymmetric top.
 Rotational symmetry number  1.
 Warning -- assumption of classical behavior for rotation
           may cause significant error
 Rotational temperatures (Kelvin)      0.04775     0.01435     0.01169
 Rotational constants (GHZ):           0.99496     0.29891     0.24351
 Zero-point vibrational energy     783449.6 (Joules/Mol)
                                  187.24896 (Kcal/Mol)
 Warning -- explicit consideration of  24 degrees of freedom as
           vibrations may cause significant error
 Vibrational temperatures:     30.81    58.11    78.68    93.48   134.41
          (Kelvin)            147.38   156.26   224.68   252.51   324.93
                              331.80   344.44   380.46   414.77   449.93
                              485.32   507.75   582.67   597.66   635.83
                              663.65   717.79   753.92   781.95   897.44
                              944.92  1026.74  1092.34  1104.76  1116.01
                             1165.07  1234.70  1253.74  1299.72  1353.14
                             1367.90  1381.95  1436.54  1459.85  1489.93
                             1500.12  1544.37  1546.86  1602.44  1650.81
                             1709.59  1712.97  1727.90  1742.74  1758.61
                             1797.40  1834.37  1867.61  1892.33  1912.85
                             1951.47  1976.36  2004.33  2011.04  2063.33
                             2063.64  2076.67  2079.13  2150.26  2164.62
                             2166.81  2179.50  2187.93  2193.92  2195.68
                             2208.88  2216.15  2224.00  2237.80  2344.98
                             2380.98  2441.20  4314.91  4347.46  4362.88
                             4367.82  4372.15  4395.82  4458.75  4461.55
                             4469.34  4469.90  4481.64  4509.46  4536.98
                             4547.71  4560.44  4565.90  4955.98  5080.48
                             5101.96

 Zero-point correction=                           0.298400 (Hartree/Particle)
 Thermal correction to Energy=                    0.314895
 Thermal correction to Enthalpy=                  0.315839
 Thermal correction to Gibbs Free Energy=         0.252984
 Sum of electronic and zero-point Energies=           -669.830704
 Sum of electronic and thermal Energies=              -669.814209
 Sum of electronic and thermal Enthalpies=            -669.813265
 Sum of electronic and thermal Free Energies=         -669.876120

                     E (Thermal)             CV                S
                      KCal/Mol        Cal/Mol-Kelvin    Cal/Mol-Kelvin
 Total                  197.600             60.697            132.290
 Electronic               0.000              0.000              0.000
 Translational            0.889              2.981             41.918
 Rotational               0.889              2.981             32.762
 Vibrational            195.822             54.735             57.611
 Vibration     1          0.593              1.985              6.498
 Vibration     2          0.594              1.981              5.240
 Vibration     3          0.596              1.976              4.640
 Vibration     4          0.597              1.971              4.300
 Vibration     5          0.602              1.954              3.587
 Vibration     6          0.605              1.947              3.407
 Vibration     7          0.606              1.942              3.294
 Vibration     8          0.620              1.896              2.596
 Vibration     9          0.627              1.873              2.376
 Vibration    10          0.650              1.802              1.912
 Vibration    11          0.652              1.794              1.874
 Vibration    12          0.657              1.780              1.807
 Vibration    13          0.671              1.738              1.632
 Vibration    14          0.685              1.696              1.484
 Vibration    15          0.701              1.649              1.348
 Vibration    16          0.718              1.601              1.225
 Vibration    17          0.729              1.569              1.153
 Vibration    18          0.770              1.459              0.945
 Vibration    19          0.779              1.437              0.908
 Vibration    20          0.802              1.379              0.821
 Vibration    21          0.819              1.336              0.762
 Vibration    22          0.854              1.252              0.661
 Vibration    23          0.879              1.197              0.601
 Vibration    24          0.899              1.154              0.558

 Optimization completed.
    -- Stationary point found.
 Normal termination of Gaussian 16 at Thu Dec 10 17:02:58 2020.

 ----------------------------------------------------------------------
 # B3LYP/6-311++G(d,p) empiricaldispersion=gd3bj scf=xqc pop=npa geom=c
 heck
 ----------------------------------------------------------------------

 ---------------------------------------
 CID_106660823_JID_5443_Energie_neutraal
 ---------------------------------------
 Structure from the checkpoint file:  "JID_5443.chk"
 Charge =  0 Multiplicity = 1

 SCF Done:  E(RB3LYP) =  -670.323958182     A.U. after   15 cycles
 Normal termination of Gaussian 16 at Thu Dec 10 17:09:45 2020.

 ----------------------------------------------------------------------
 # B3LYP/6-311++G(d,p) empiricaldispersion=gd3bj scf=xqc pop=npa geom=c
 heck
 ----------------------------------------------------------------------

 -------------------------------------
 CID_106660823_JID_5443_Energie_kation
 -------------------------------------
 Structure from the checkpoint file:  "JID_5443.chk"
 Charge =  1 Multiplicity = 2

 SCF Done:  E(UB3LYP) =  -670.033183723     A.U. after   28 cycles
 Normal termination of Gaussian 16 at Thu Dec 10 17:25:16 2020.
 Gaussian 16:  ES64L-G16RevA.03 25-Dec-2016

 ----------------------------------------------------------------------
 # B3LYP/6-311++G(d,p) empiricaldispersion=gd3bj scf=xqc pop=npa geom=c
 heck
 ----------------------------------------------------------------------

 ------------------------------------
 CID_106660823_JID_5443_Energie_anion
 ------------------------------------
 Structure from the checkpoint file:  "JID_5443.chk"
 Charge = -1 Multiplicity = 2

                         Standard orientation:
 ---------------------------------------------------------------------
 Center     Atomic      Atomic             Coordinates (Angstroms)
 Number     Number       Type             X           Y           Z
 ---------------------------------------------------------------------
      1          6           0        3.919519   -2.438838   -0.351998
      2          6           0        3.061669   -1.218467   -0.133217
      3          6           0        1.674339   -1.275373   -0.260564
      4          6           0        0.883250   -0.133074   -0.056513
      5          6           0        1.577218    1.054653    0.255316
      6          6           0        2.962340    1.005896    0.383226
      7          7           0        3.707399   -0.088165    0.203933
      8          8           0        0.936430    2.263296    0.445977
      9          6           0        0.454986    2.848538   -0.768887
     10          7           0       -0.499769   -0.180685   -0.222365
     11          6           0       -1.390611    0.387498    0.800600
     12          6           0       -2.799549    0.608789    0.252123
     13          6           0       -3.504445   -0.639808   -0.298773
     14          6           0       -3.598700   -1.773026    0.735033
     15          7           0       -4.805650   -0.218056   -0.836915
     16          1           0        3.320574   -3.317263   -0.610362
     17          1           0        4.639008   -2.257579   -1.158341
     18          1           0        4.500102   -2.663241    0.549548
     19          1           0        1.190733   -2.218125   -0.507528
     20          1           0        3.482142    1.926991    0.642427
     21          1           0       -0.266739    2.191737   -1.267515
     22          1           0       -0.029785    3.785698   -0.486816
     23          1           0        1.288649    3.055925   -1.451367
     24          1           0       -0.797493   -1.111253   -0.495891
     25          1           0       -1.419224   -0.258999    1.691988
     26          1           0       -0.966845    1.340452    1.116240
     27          1           0       -3.413774    1.027944    1.063086
     28          1           0       -2.770000    1.356871   -0.547155
     29          1           0       -2.928971   -1.002628   -1.162249
     30          1           0       -4.139221   -1.436034    1.629174
     31          1           0       -4.139074   -2.631049    0.318124
     32          1           0       -2.613277   -2.130346    1.059148
     33          1           0       -5.288565   -1.023927   -1.233342
     34          1           0       -5.393620    0.106068   -0.067636
 ---------------------------------------------------------------------

 SCF Done:  E(UB3LYP) =  -670.314513624     A.U. after   33 cycles
 SCF Done:  E(UB3LYP) =  -670.314513624     a.u. after    1 cycles

 The electronic state is 2-A.
 Alpha  occ. eigenvalues --  -19.05621 -14.23319 -14.20572 -14.19087 -10.13374
 Alpha  occ. eigenvalues --  -10.13157 -10.13150 -10.11766 -10.11017 -10.10379
 Alpha  occ. eigenvalues --  -10.09883 -10.08065 -10.07677 -10.06904 -10.05539
 Alpha  occ. eigenvalues --   -0.97120  -0.85377  -0.83634  -0.78863  -0.70405
 Alpha  occ. eigenvalues --   -0.68934  -0.66105  -0.62890  -0.61071  -0.58460
 Alpha  occ. eigenvalues --   -0.54879  -0.54634  -0.49950  -0.47215  -0.44201
 Alpha  occ. eigenvalues --   -0.42420  -0.41408  -0.39565  -0.38034  -0.37009
 Alpha  occ. eigenvalues --   -0.36149  -0.35753  -0.34484  -0.33954  -0.33509
 Alpha  occ. eigenvalues --   -0.32746  -0.32432  -0.30089  -0.29890  -0.29224
 Alpha  occ. eigenvalues --   -0.28386  -0.27471  -0.26846  -0.26148  -0.24184
 Alpha  occ. eigenvalues --   -0.23081  -0.22418  -0.19941  -0.16435  -0.15517
 Alpha  occ. eigenvalues --   -0.14550  -0.13151   0.04125
 Alpha virt. eigenvalues --    0.06261   0.06443   0.06932   0.07611   0.07778
 Alpha virt. eigenvalues --    0.08358   0.08749   0.09568   0.09824   0.10280
 Alpha virt. eigenvalues --    0.10736   0.11137   0.11503   0.11828   0.12001

  Beta  occ. eigenvalues --  -19.05622 -14.23308 -14.20537 -14.19049 -10.13368
  Beta  occ. eigenvalues --  -10.13128 -10.13120 -10.11750 -10.11018 -10.10365
  Beta  occ. eigenvalues --  -10.09865 -10.08052 -10.07666 -10.06889 -10.05486
  Beta  occ. eigenvalues --   -0.97114  -0.85327  -0.83586  -0.78792  -0.70354
  Beta  occ. eigenvalues --   -0.68899  -0.66053  -0.62850  -0.61004  -0.58428
  Beta  occ. eigenvalues --   -0.54808  -0.54590  -0.49900  -0.47138  -0.44167
  Beta  occ. eigenvalues --   -0.42387  -0.41377  -0.39509  -0.38005  -0.36973
  Beta  occ. eigenvalues --   -0.36124  -0.35714  -0.34434  -0.33896  -0.33458
  Beta  occ. eigenvalues --   -0.32687  -0.32389  -0.30031  -0.29856  -0.29186
  Beta  occ. eigenvalues --   -0.28350  -0.27422  -0.26798  -0.26105  -0.24129
  Beta  occ. eigenvalues --   -0.23037  -0.22318  -0.19903  -0.16392  -0.15461
  Beta  occ. eigenvalues --   -0.14493  -0.13083
  Beta virt. eigenvalues --    0.06224   0.06851   0.06995   0.07212   0.07862
  Beta virt. eigenvalues --    0.08298   0.08730   0.08947   0.09747   0.10338
  Beta virt. eigenvalues --    0.10572   0.10818   0.11415   0.11752   0.11958

 Mulliken charges and spin densities:
               1          2
     1  C    0.515924  -1.208147
     2  C   -1.166630   0.890462
     3  C    0.219792  -0.416854
     4  C    0.762281  -0.069815
     5  C   -0.260865  -0.364167
     6  C   -0.516083   0.470994
     7  N   -0.076296   0.053177
     8  O   -0.153943   0.010811
     9  C    0.113065  -0.414079
    10  N    0.107306   0.020629
    11  C   -0.813337   0.271099
    12  C    1.423109  -1.650029
    13  C   -0.812235   0.556484
    14  C    1.478924  -2.012107
    15  N   -0.419756   0.173952
    16  H   -0.081263   0.230832
    17  H    0.105236   0.040816
    18  H    0.068507   0.079417
    19  H   -0.912140   1.042976
    20  H    0.107565   0.083212
    21  H    0.078239   0.108225
    22  H   -0.058390   0.212466
    23  H    0.053807   0.077557
    24  H    0.971740  -0.702504
    25  H   -0.073822   0.248975
    26  H    0.359103  -0.149245
    27  H   -0.238472   0.356703
    28  H    0.122867   0.062914
    29  H   -0.668504   0.871396
    30  H   -0.152381   0.301308
    31  H   -0.587157   0.727676
    32  H   -0.346483   0.499063
    33  H   -0.147753   0.380188
    34  H   -0.001954   0.215617
 Sum of Mulliken charges =  -1.00000   1.00000

 Dipole moment (field-independent basis, Debye):
    X=              6.1160    Y=              5.1854    Z=              0.8268  Tot=              8.0609
 Quadrupole moment (field-independent basis, Debye-Ang):
   XX=           -189.1498   YY=           -140.6962   ZZ=           -122.4984
   XY=            -12.3131   XZ=             -6.0676   YZ=             -1.3502

 Summary of Natural Population Analysis:

                                       Natural Population
                Natural  -----------------------------------------------
    Atom  No    Charge         Core      Valence    Rydberg      Total
 -----------------------------------------------------------------------
      C    1   -0.29769      0.99963     2.29146    0.00660     3.29769
      C    2    0.10775      0.99955     1.87855    0.01414     2.89225
      C    3   -0.13724      0.99948     2.12869    0.00907     3.13724
      C    4    0.09632      0.99944     1.89268    0.01155     2.90368
      C    5    0.10986      0.99931     1.87851    0.01231     2.89014
      C    6    0.01712      0.99954     1.96967    0.01367     2.98288
      N    7   -0.25155      0.99968     2.74083    0.01104     3.75155
      O    8   -0.29314      0.99987     3.28371    0.00957     4.29314
      C    9   -0.09957      0.99959     2.09216    0.00782     3.09957
      N   10   -0.31780      0.99968     2.80745    0.01067     3.81780
      C   11   -0.08898      0.99959     2.08025    0.00914     3.08898
      C   12   -0.19130      0.99960     2.18302    0.00867     3.19130
      C   13   -0.01932      0.99961     2.00766    0.01205     3.01932
      C   14   -0.29645      0.99965     2.28995    0.00685     3.29645
      N   15   -0.41916      0.99977     2.90897    0.01042     3.91916
      H   16    0.10134      0.00000     0.39786    0.00079     0.39866
      H   17    0.10476      0.00000     0.39420    0.00104     0.39524
      H   18    0.10579      0.00000     0.39312    0.00109     0.39421
      H   19    0.10576      0.00000     0.39256    0.00169     0.39424
      H   20    0.09137      0.00000     0.40723    0.00141     0.40863
      H   21    0.09168      0.00000     0.40676    0.00156     0.40832
      H   22    0.08842      0.00000     0.41029    0.00129     0.41158
      H   23    0.08141      0.00000     0.41702    0.00157     0.41859
      H   24    0.18520      0.00000     0.31070    0.00410     0.31480
      H   25    0.08696      0.00000     0.41158    0.00146     0.41304
      H   26    0.10661      0.00000     0.39153    0.00186     0.39339
      H   27    0.09584      0.00000     0.40309    0.00107     0.40416
      H   28    0.10359      0.00000     0.39478    0.00163     0.39641
      H   29    0.08782      0.00000     0.40949    0.00269     0.41218
      H   30    0.09581      0.00000     0.40249    0.00170     0.40419
      H   31    0.10372      0.00000     0.39352    0.00276     0.39628
      H   32    0.09915      0.00000     0.39890    0.00195     0.40085
      H   33    0.17627      0.00000     0.32143    0.00229     0.32373
      H   34    0.16964      0.00000     0.32830    0.00206     0.33036
 =======================================================================
   * Total *    0.00000     14.99401    41.81841    0.18758    57.00000

 Normal termination of Gaussian 16 at Thu Dec 10 17:43:23 2020.
