 Gaussian 16, Revision A.03,

 -----------------------------------------------------------
 # opt freq B3LYP/6-31G(d) empiricaldispersion=gd3bj scf=xqc
 -----------------------------------------------------------

 ------------------------------
 CID_80714654_JID_9157_neutraal
 ------------------------------
 Symbolic Z-matrix:
 Charge =  0 Multiplicity = 1

 SCF Done:  E(RB3LYP) =  -876.927164015     A.U. after   15 cycles
 SCF Done:  E(RB3LYP) =  -876.937043635     A.U. after   13 cycles
 SCF Done:  E(RB3LYP) =  -876.939614357     A.U. after   13 cycles
 SCF Done:  E(RB3LYP) =  -876.940347265     A.U. after   12 cycles
 SCF Done:  E(RB3LYP) =  -876.940639025     A.U. after   12 cycles
 SCF Done:  E(RB3LYP) =  -876.940810609     A.U. after   11 cycles
 SCF Done:  E(RB3LYP) =  -876.940969156     A.U. after   11 cycles
 SCF Done:  E(RB3LYP) =  -876.941073179     A.U. after   11 cycles
 SCF Done:  E(RB3LYP) =  -876.941105475     A.U. after   11 cycles
 SCF Done:  E(RB3LYP) =  -876.941126104     A.U. after   10 cycles
 SCF Done:  E(RB3LYP) =  -876.941169712     A.U. after    9 cycles
 SCF Done:  E(RB3LYP) =  -876.941170696     A.U. after    9 cycles
 SCF Done:  E(RB3LYP) =  -876.941171180     A.U. after    9 cycles
 SCF Done:  E(RB3LYP) =  -876.941171284     A.U. after    8 cycles
 SCF Done:  E(RB3LYP) =  -876.941171320     A.U. after    7 cycles
 Optimization completed.
    -- Stationary point found.
 Normal termination of Gaussian 16 at Sun Dec 13 20:25:59 2020.

 --------------------------------------------------------------------
 #N Geom=AllCheck Guess=TCheck SCRF=Check GenChk RB3LYP/6-31G(d) Freq
 --------------------------------------------------------------------

 Structure from the checkpoint file:  "JID_9157.chk"
 ------------------------------
 CID_80714654_JID_9157_neutraal
 ------------------------------
 Charge =  0 Multiplicity = 1

 SCF Done:  E(RB3LYP) =  -876.941171320     A.U. after    1 cycles

  Exact polarizability: 222.156  -3.290 160.410  -2.867  -0.361 113.346
 Approx polarizability: 274.991   4.786 271.198  -6.796  -5.308 170.645

                      1                      2                      3
                      A                      A                      A
 Frequencies --     17.8734                26.9497                40.8764
 Red. masses --      3.8125                 3.0945                 4.3037
 Frc consts  --      0.0007                 0.0013                 0.0042
 IR Inten    --      0.3964                 0.2910                 0.1899

                      4                      5                      6
                      A                      A                      A
 Frequencies --     64.6834                70.4474                86.7626
 Red. masses --      3.8541                 4.1164                 4.5915
 Frc consts  --      0.0095                 0.0120                 0.0204
 IR Inten    --      0.5520                 0.5921                 1.7307

                      7                      8                      9
                      A                      A                      A
 Frequencies --    117.1894               149.7391               191.9406
 Red. masses --      4.0183                 4.1122                 3.4974
 Frc consts  --      0.0325                 0.0543                 0.0759
 IR Inten    --      0.6555                 0.9344                 1.3101

                     10                     11                     12
                      A                      A                      A
 Frequencies --    218.6703               232.0207               247.2371
 Red. masses --      3.3946                 2.2810                 1.3785
 Frc consts  --      0.0956                 0.0723                 0.0496
 IR Inten    --      0.0836                 3.1643                 1.4151

                     13                     14                     15
                      A                      A                      A
 Frequencies --    272.9010               283.2766               304.9852
 Red. masses --      1.2754                 2.1725                 2.6323
 Frc consts  --      0.0560                 0.1027                 0.1443
 IR Inten    --      0.7723                 0.8154                22.5741

                     16                     17                     18
                      A                      A                      A
 Frequencies --    334.7877               338.1859               379.3602
 Red. masses --      1.4432                 2.1206                 3.0667
 Frc consts  --      0.0953                 0.1429                 0.2600
 IR Inten    --     39.9647                11.6051                 2.2879

                     19                     20                     21
                      A                      A                      A
 Frequencies --    392.1468               416.6369               434.8481
 Red. masses --      4.0869                 2.7725                 3.5415
 Frc consts  --      0.3703                 0.2836                 0.3946
 IR Inten    --     12.5271                 1.5447                11.6654

                     22                     23                     24
                      A                      A                      A
 Frequencies --    451.5350               490.5073               503.4164
 Red. masses --      3.9128                 1.8266                 3.2896
 Frc consts  --      0.4700                 0.2589                 0.4912
 IR Inten    --      3.5702                48.9578                12.0075

                     25                     26                     27
                      A                      A                      A
 Frequencies --    538.0977               542.5433               583.5169
 Red. masses --      1.1988                 4.0233                 3.9222
 Frc consts  --      0.2045                 0.6977                 0.7868
 IR Inten    --     11.9673                 8.2523                 1.9113

                     28                     29                     30
                      A                      A                      A
 Frequencies --    621.9251               643.4409               687.4189
 Red. masses --      3.5143                 4.1876                 3.1957
 Frc consts  --      0.8009                 1.0215                 0.8897
 IR Inten    --     10.9265                 8.6458                50.8434

                     31                     32                     33
                      A                      A                      A
 Frequencies --    700.5400               732.3889               747.1150
 Red. masses --      4.3881                 4.1670                 4.9597
 Frc consts  --      1.2688                 1.3169                 1.6311
 IR Inten    --     35.6317                61.9984                37.4088

                     34                     35                     36
                      A                      A                      A
 Frequencies --    777.9662               782.6966               801.3727
 Red. masses --      4.8998                 3.3368                 3.0046
 Frc consts  --      1.7472                 1.2044                 1.1369
 IR Inten    --     25.7443                10.6044                16.0913

                     37                     38                     39
                      A                      A                      A
 Frequencies --    824.6296               832.9200               852.4478
 Red. masses --      1.6502                 2.0164                 2.7644
 Frc consts  --      0.6612                 0.8242                 1.1835
 IR Inten    --    197.5664                10.9918                 4.7810

                     40                     41                     42
                      A                      A                      A
 Frequencies --    868.1455               895.1471               912.5848
 Red. masses --      2.3687                 2.6746                 2.5108
 Frc consts  --      1.0518                 1.2627                 1.2320
 IR Inten    --      4.8964                 3.0579                 7.7184

                     43                     44                     45
                      A                      A                      A
 Frequencies --    942.4031               956.1117               959.7622
 Red. masses --      1.1728                 3.5702                 2.2105
 Frc consts  --      0.6137                 1.9229                 1.1997
 IR Inten    --      0.7603                 8.9911                23.5122

                     46                     47                     48
                      A                      A                      A
 Frequencies --    973.8382              1001.7250              1008.8284
 Red. masses --      1.5185                 2.7189                 2.3199
 Frc consts  --      0.8485                 1.6074                 1.3911
 IR Inten    --      0.1850                14.9821                19.7660

                     49                     50                     51
                      A                      A                      A
 Frequencies --   1021.3523              1039.3239              1063.7201
 Red. masses --      1.8316                 5.6541                 2.5991
 Frc consts  --      1.1257                 3.5984                 1.7327
 IR Inten    --      4.5219                38.3465                12.7010

                     52                     53                     54
                      A                      A                      A
 Frequencies --   1096.6302              1101.7080              1127.1720
 Red. masses --      1.5720                 2.1073                 1.3730
 Frc consts  --      1.1138                 1.5070                 1.0277
 IR Inten    --      0.4486                 1.7128                 7.2668

                     55                     56                     57
                      A                      A                      A
 Frequencies --   1132.7487              1161.4304              1185.9881
 Red. masses --      2.1955                 1.4073                 1.8974
 Frc consts  --      1.6598                 1.1184                 1.5724
 IR Inten    --     11.0361                 9.5396                 5.1194

                     58                     59                     60
                      A                      A                      A
 Frequencies --   1206.0682              1216.5469              1234.8259
 Red. masses --      1.6367                 1.7888                 2.4796
 Frc consts  --      1.4027                 1.5598                 2.2276
 IR Inten    --     94.8302                47.0605                14.9169

                     61                     62                     63
                      A                      A                      A
 Frequencies --   1243.2881              1246.7826              1250.2225
 Red. masses --      1.3446                 1.7042                 2.0973
 Frc consts  --      1.2246                 1.5608                 1.9314
 IR Inten    --     13.0143                43.5999                11.4274

                     64                     65                     66
                      A                      A                      A
 Frequencies --   1279.4653              1304.1350              1306.0199
 Red. masses --      1.2753                 1.5921                 2.9658
 Frc consts  --      1.2301                 1.5954                 2.9805
 IR Inten    --      1.9271                24.4772                83.0021

                     67                     68                     69
                      A                      A                      A
 Frequencies --   1312.5186              1328.5447              1345.5231
 Red. masses --      1.6856                 1.5300                 1.4666
 Frc consts  --      1.7109                 1.5911                 1.5644
 IR Inten    --      9.7827                 2.2809                 4.7799

                     70                     71                     72
                      A                      A                      A
 Frequencies --   1356.8527              1362.5653              1369.1977
 Red. masses --      1.3808                 1.3151                 1.5048
 Frc consts  --      1.4978                 1.4386                 1.6621
 IR Inten    --     13.6110                 1.9665                17.0161

                     73                     74                     75
                      A                      A                      A
 Frequencies --   1387.6405              1391.4205              1402.2375
 Red. masses --      1.4999                 1.5544                 3.0048
 Frc consts  --      1.7017                 1.7731                 3.4811
 IR Inten    --      5.4246                22.4738                45.8325

                     76                     77                     78
                      A                      A                      A
 Frequencies --   1427.1303              1436.4097              1452.4241
 Red. masses --      1.2438                 2.1669                 1.4231
 Frc consts  --      1.4926                 2.6341                 1.7687
 IR Inten    --      3.4980                38.6478                22.0404

                     79                     80                     81
                      A                      A                      A
 Frequencies --   1493.3924              1513.0283              1513.8815
 Red. masses --      1.6381                 2.3726                 1.1891
 Frc consts  --      2.1525                 3.2001                 1.6056
 IR Inten    --     45.8226               204.1532                40.2956

                     82                     83                     84
                      A                      A                      A
 Frequencies --   1516.4125              1523.3917              1526.6420
 Red. masses --      1.0772                 1.1317                 1.1238
 Frc consts  --      1.4594                 1.5474                 1.5432
 IR Inten    --     12.2820                18.8934                 4.0457

                     85                     86                     87
                      A                      A                      A
 Frequencies --   1535.0161              1542.2345              1542.6022
 Red. masses --      1.1254                 1.1137                 1.0647
 Frc consts  --      1.5623                 1.5607                 1.4927
 IR Inten    --     47.8044                 2.0177                 0.8285

                     88                     89                     90
                      A                      A                      A
 Frequencies --   1558.6676              1629.9040              1671.6030
 Red. masses --      3.4195                 3.7379                 1.5998
 Frc consts  --      4.8946                 5.8506                 2.6338
 IR Inten    --      9.8819                33.2610               243.3181

                     91                     92                     93
                      A                      A                      A
 Frequencies --   1732.7419              3028.6240              3040.5888
 Red. masses --      3.8135                 1.0807                 1.0420
 Frc consts  --      6.7460                 5.8404                 5.6758
 IR Inten    --    237.0137                 6.6290                24.5549

                     94                     95                     96
                      A                      A                      A
 Frequencies --   3046.2749              3077.6287              3086.1203
 Red. masses --      1.0366                 1.0598                 1.0619
 Frc consts  --      5.6674                 5.9143                 5.9590
 IR Inten    --     29.4396                28.4682                29.9021

                     97                     98                     99
                      A                      A                      A
 Frequencies --   3092.1198              3105.6026              3114.8689
 Red. masses --      1.0626                 1.0956                 1.1056
 Frc consts  --      5.9858                 6.2260                 6.3204
 IR Inten    --     18.1282                18.5467                 2.6113

                    100                    101                    102
                      A                      A                      A
 Frequencies --   3116.0865              3117.8891              3131.1928
 Red. masses --      1.1024                 1.1025                 1.1035
 Frc consts  --      6.3070                 6.3147                 6.3743
 IR Inten    --     53.4146                32.4515                31.5339

                    103                    104                    105
                      A                      A                      A
 Frequencies --   3133.1137              3139.3126              3145.7282
 Red. masses --      1.1057                 1.0943                 1.0914
 Frc consts  --      6.3948                 6.3542                 6.3630
 IR Inten    --     46.2303                29.0430                14.0075

                    106                    107                    108
                      A                      A                      A
 Frequencies --   3147.4498              3157.9489              3489.4217
 Red. masses --      1.0954                 1.0907                 1.0505
 Frc consts  --      6.3938                 6.4085                 7.5359
 IR Inten    --     38.4330                19.7464                68.6439

                    109                    110                    111
                      A                      A                      A
 Frequencies --   3599.6620              3605.4142              3666.1162
 Red. masses --      1.0746                 1.0945                 1.0805
 Frc consts  --      8.2041                 8.3823                 8.5561
 IR Inten    --     39.8249                30.1509                64.1986

 - Thermochemistry -
 -------------------
 Temperature   298.150 Kelvin.  Pressure   1.00000 Atm.
 Atom     1 has atomic number  6 and mass  12.00000

 Molecular mass:   264.15863 amu.
 Principal axes and moments of inertia in atomic units:
                           1         2         3
     Eigenvalues --  2075.56263********************
           X            0.99993  -0.01188   0.00084
           Y            0.01188   0.99993   0.00062
           Z           -0.00085  -0.00061   1.00000
 This molecule is an asymmetric top.
 Rotational symmetry number  1.
 Warning -- assumption of classical behavior for rotation
           may cause significant error
 Rotational temperatures (Kelvin)      0.04173     0.00858     0.00764
 Rotational constants (GHZ):           0.86952     0.17882     0.15925
 Zero-point vibrational energy     881558.8 (Joules/Mol)
                                  210.69760 (Kcal/Mol)
 Warning -- explicit consideration of  27 degrees of freedom as
           vibrations may cause significant error
 Vibrational temperatures:     25.72    38.77    58.81    93.06   101.36
          (Kelvin)            124.83   168.61   215.44   276.16   314.62
                              333.83   355.72   392.64   407.57   438.81
                              481.68   486.57   545.81   564.21   599.45
                              625.65   649.66   705.73   724.30   774.20
                              780.60   839.55   894.81   925.77   989.04
                             1007.92  1053.74  1074.93  1119.32  1126.13
                             1153.00  1186.46  1198.39  1226.48  1249.07
                             1287.92  1313.01  1355.91  1375.63  1380.88
                             1401.14  1441.26  1451.48  1469.50  1495.36
                             1530.46  1577.81  1585.11  1621.75  1629.77
                             1671.04  1706.37  1735.26  1750.34  1776.64
                             1788.81  1793.84  1798.79  1840.87  1876.36
                             1879.07  1888.42  1911.48  1935.91  1952.21
                             1960.43  1969.97  1996.51  2001.94  2017.51
                             2053.32  2066.67  2089.71  2148.66  2176.91
                             2178.14  2181.78  2191.82  2196.50  2208.55
                             2218.93  2219.46  2242.57  2345.07  2405.06
                             2493.03  4357.51  4374.73  4382.91  4428.02
                             4440.24  4448.87  4468.27  4481.60  4483.35
                             4485.95  4505.09  4507.85  4516.77  4526.00
                             4528.48  4543.58  5020.50  5179.11  5187.39
                             5274.72

 Zero-point correction=                           0.335768 (Hartree/Particle)
 Thermal correction to Energy=                    0.353686
 Thermal correction to Enthalpy=                  0.354630
 Thermal correction to Gibbs Free Energy=         0.288004
 Sum of electronic and zero-point Energies=           -876.605403
 Sum of electronic and thermal Energies=              -876.587485
 Sum of electronic and thermal Enthalpies=            -876.586541
 Sum of electronic and thermal Free Energies=         -876.653168

                     E (Thermal)             CV                S
                      KCal/Mol        Cal/Mol-Kelvin    Cal/Mol-Kelvin
 Total                  221.941             69.401            140.227
 Electronic               0.000              0.000              0.000
 Translational            0.889              2.981             42.613
 Rotational               0.889              2.981             33.828
 Vibrational            220.164             63.439             63.785
 Vibration     1          0.593              1.986              6.857
 Vibration     2          0.593              1.984              6.042
 Vibration     3          0.594              1.981              5.216
 Vibration     4          0.597              1.971              4.309
 Vibration     5          0.598              1.968              4.141
 Vibration     6          0.601              1.958              3.732
 Vibration     7          0.608              1.935              3.146
 Vibration     8          0.618              1.903              2.676
 Vibration     9          0.634              1.851              2.209
 Vibration    10          0.646              1.813              1.970
 Vibration    11          0.653              1.792              1.863
 Vibration    12          0.661              1.767              1.750
 Vibration    13          0.676              1.723              1.578
 Vibration    14          0.682              1.705              1.514
 Vibration    15          0.696              1.664              1.389
 Vibration    16          0.716              1.606              1.237
 Vibration    17          0.718              1.599              1.221
 Vibration    18          0.749              1.514              1.042
 Vibration    19          0.760              1.487              0.992
 Vibration    20          0.780              1.434              0.903
 Vibration    21          0.795              1.394              0.843
 Vibration    22          0.810              1.357              0.791
 Vibration    23          0.846              1.271              0.682
 Vibration    24          0.859              1.242              0.650
 Vibration    25          0.893              1.166              0.569
 Vibration    26          0.898              1.156              0.560
 Vibration    27          0.940              1.067              0.479

                           ! Non-Optimized Parameters !
 Normal termination of Gaussian 16 at Sun Dec 13 20:46:05 2020.

 ----------------------------------------------------------------------
 # B3LYP/6-311++G(d,p) empiricaldispersion=gd3bj scf=xqc pop=npa geom=c
 heck
 ----------------------------------------------------------------------

 --------------------------------------
 CID_80714654_JID_9157_Energie_neutraal
 --------------------------------------
 Structure from the checkpoint file:  "JID_9157.chk"
 Charge =  0 Multiplicity = 1

 SCF Done:  E(RB3LYP) =  -877.193089785     A.U. after   16 cycles
 Normal termination of Gaussian 16 at Sun Dec 13 20:55:59 2020.

 ----------------------------------------------------------------------
 # B3LYP/6-311++G(d,p) empiricaldispersion=gd3bj scf=xqc pop=npa geom=c
 heck
 ----------------------------------------------------------------------

 ------------------------------------
 CID_80714654_JID_9157_Energie_kation
 ------------------------------------
 Structure from the checkpoint file:  "JID_9157.chk"
 Charge =  1 Multiplicity = 2

 SCF Done:  E(UB3LYP) =  -876.916417850     A.U. after   27 cycles
 Normal termination of Gaussian 16 at Sun Dec 13 21:20:07 2020.
 Gaussian 16:  ES64L-G16RevA.03 25-Dec-2016

 ----------------------------------------------------------------------
 # B3LYP/6-311++G(d,p) empiricaldispersion=gd3bj scf=xqc pop=npa geom=c
 heck
 ----------------------------------------------------------------------

 -----------------------------------
 CID_80714654_JID_9157_Energie_anion
 -----------------------------------
 Structure from the checkpoint file:  "JID_9157.chk"
 Charge = -1 Multiplicity = 2

                         Standard orientation:
 ---------------------------------------------------------------------
 Center     Atomic      Atomic             Coordinates (Angstroms)
 Number     Number       Type             X           Y           Z
 ---------------------------------------------------------------------
      1          6           0        4.817701   -1.821613    0.793673
      2          6           0        4.423955   -0.515400    0.088490
      3          6           0        4.941017   -0.496015   -1.364084
      4          6           0        2.948263   -0.252226    0.146747
      5          6           0        2.251947    0.950099    0.105929
      6          6           0        0.873756    0.584653    0.173673
      7          7           0        0.731097   -0.753899    0.246431
      8          7           0        1.981304   -1.222003    0.215006
      9          6           0       -0.232025    1.559556    0.123239
     10          8           0        0.018134    2.762824   -0.053824
     11          7           0       -1.528101    1.156359    0.264787
     12          6           0       -2.080183   -0.172840    0.445833
     13          6           0       -2.275059   -1.029884   -0.846426
     14          6           0       -3.757801   -1.426794   -0.718180
     15          6           0       -4.659804   -0.233899   -1.098443
     16          6           0       -4.486489    0.679567    0.150771
     17          6           0       -3.522357   -0.167503    1.012490
     18          8           0       -3.939614   -1.506730    0.714955
     19          7           0        2.784866    2.236833    0.086812
     20          1           0        4.412218   -2.697297    0.269317
     21          1           0        4.459401   -1.842903    1.828039
     22          1           0        5.906409   -1.934937    0.805761
     23          1           0        4.901508    0.316254    0.625303
     24          1           0        4.494441   -1.312657   -1.943204
     25          1           0        4.684184    0.443435   -1.865427
     26          1           0        6.030707   -0.611728   -1.392241
     27          1           0        2.125172   -2.218142    0.277856
     28          1           0       -2.169311    1.929750    0.142894
     29          1           0       -1.440591   -0.716184    1.138900
     30          1           0       -2.060567   -0.451411   -1.749604
     31          1           0       -1.612825   -1.897252   -0.828547
     32          1           0       -4.033923   -2.382348   -1.165631
     33          1           0       -4.345131    0.247841   -2.028887
     34          1           0       -5.699126   -0.553522   -1.213215
     35          1           0       -4.114483    1.678450   -0.097721
     36          1           0       -5.431655    0.812585    0.683228
     37          1           0       -3.581840    0.008425    2.087192
     38          1           0        2.043201    2.913327   -0.083485
     39          1           0        3.562375    2.352318   -0.553110
 ---------------------------------------------------------------------

 SCF Done:  E(UB3LYP) =  -877.185078061     A.U. after   33 cycles
 SCF Done:  E(UB3LYP) =  -877.185078061     a.u. after    1 cycles

 The electronic state is 2-A.
 Alpha  occ. eigenvalues --  -19.04305 -18.99726 -14.29612 -14.24936 -14.24289
 Alpha  occ. eigenvalues --  -14.21765 -10.18829 -10.14489 -10.13883 -10.12536
 Alpha  occ. eigenvalues --  -10.11237 -10.11137 -10.10489 -10.10135 -10.09730
 Alpha  occ. eigenvalues --  -10.09170 -10.07888 -10.07350 -10.07265  -0.97286
 Alpha  occ. eigenvalues --   -0.96295  -0.94582  -0.83806  -0.81480  -0.74764
 Alpha  occ. eigenvalues --   -0.71426  -0.70543  -0.67095  -0.66611  -0.66081
 Alpha  occ. eigenvalues --   -0.60080  -0.57594  -0.54257  -0.53299  -0.50551
 Alpha  occ. eigenvalues --   -0.49844  -0.49463  -0.47042  -0.44910  -0.43252
 Alpha  occ. eigenvalues --   -0.42339  -0.41089  -0.39353  -0.38194  -0.37249
 Alpha  occ. eigenvalues --   -0.36806  -0.35569  -0.34321  -0.33897  -0.33637
 Alpha  occ. eigenvalues --   -0.33038  -0.32219  -0.31406  -0.30904  -0.30458
 Alpha  occ. eigenvalues --   -0.29750  -0.28639  -0.27540  -0.26917  -0.26409
 Alpha  occ. eigenvalues --   -0.26173  -0.25735  -0.24943  -0.23701  -0.22831
 Alpha  occ. eigenvalues --   -0.20873  -0.19096  -0.17490  -0.16606  -0.16193
 Alpha  occ. eigenvalues --   -0.11396   0.03680
 Alpha virt. eigenvalues --    0.04965   0.06037   0.06417   0.06789   0.07516
 Alpha virt. eigenvalues --    0.07717   0.08163   0.08482   0.09404   0.10012
 Alpha virt. eigenvalues --    0.10162   0.10461   0.10849   0.11211   0.11750

  Beta  occ. eigenvalues --  -19.04302 -18.99713 -14.29553 -14.24933 -14.24248
  Beta  occ. eigenvalues --  -14.21758 -10.18811 -10.14487 -10.13877 -10.12536
  Beta  occ. eigenvalues --  -10.11238 -10.11140 -10.10491 -10.10127 -10.09718
  Beta  occ. eigenvalues --  -10.09154 -10.07877 -10.07310 -10.07210  -0.97278
  Beta  occ. eigenvalues --   -0.96234  -0.94552  -0.83794  -0.81467  -0.74710
  Beta  occ. eigenvalues --   -0.71403  -0.70487  -0.67075  -0.66593  -0.66047
  Beta  occ. eigenvalues --   -0.59992  -0.57526  -0.54228  -0.53235  -0.50526
  Beta  occ. eigenvalues --   -0.49801  -0.49433  -0.47018  -0.44878  -0.43201
  Beta  occ. eigenvalues --   -0.42322  -0.41062  -0.39318  -0.38166  -0.37192
  Beta  occ. eigenvalues --   -0.36769  -0.35508  -0.34300  -0.33857  -0.33611
  Beta  occ. eigenvalues --   -0.33006  -0.32178  -0.31350  -0.30882  -0.30418
  Beta  occ. eigenvalues --   -0.29700  -0.28610  -0.27519  -0.26893  -0.26372
  Beta  occ. eigenvalues --   -0.26115  -0.25681  -0.24924  -0.23670  -0.22808
  Beta  occ. eigenvalues --   -0.20823  -0.19080  -0.17474  -0.16514  -0.16153
  Beta  occ. eigenvalues --   -0.11354
  Beta virt. eigenvalues --    0.05421   0.06114   0.06269   0.06959   0.07254
  Beta virt. eigenvalues --    0.07840   0.08027   0.08551   0.09079   0.09482
  Beta virt. eigenvalues --    0.10261   0.10406   0.10817   0.11099   0.11335

 Mulliken charges and spin densities:
               1          2
     1  C    1.231434  -1.876896
     2  C   -2.277364   2.299455
     3  C    0.685429  -1.254678
     4  C    1.375474  -1.054289
     5  C    0.141184  -0.726197
     6  C    0.953876  -0.575695
     7  N    0.061461  -0.369088
     8  N   -0.167849   0.495046
     9  C   -0.791800   0.665740
    10  O   -0.364476  -0.001990
    11  N   -0.117142   0.045705
    12  C   -0.069036  -0.462560
    13  C    0.132055  -0.607238
    14  C   -0.321774   0.753912
    15  C    0.441980  -1.058758
    16  C   -0.145779  -0.168386
    17  C   -0.490218   0.092397
    18  O   -0.096029  -0.020054
    19  N   -0.400785   0.023776
    20  H   -0.370976   0.510762
    21  H   -0.123968   0.277168
    22  H   -0.519593   0.694632
    23  H   -0.046785   0.247118
    24  H   -0.135334   0.304401
    25  H   -0.034620   0.158233
    26  H   -0.382350   0.532410
    27  H   -0.006589   0.351822
    28  H    0.304351   0.029233
    29  H    0.300341   0.007417
    30  H    0.069368   0.105910
    31  H   -0.010202   0.196572
    32  H   -0.171517   0.411035
    33  H   -0.019216   0.163258
    34  H   -0.084120   0.251854
    35  H    0.070565  -0.004864
    36  H   -0.139573   0.334137
    37  H    0.077615   0.140105
    38  H    0.297680   0.003361
    39  H    0.144281   0.085234
 Sum of Mulliken charges =  -1.00000   1.00000

 Dipole moment (field-independent basis, Debye):
    X=             -5.7481    Y=              3.7516    Z=              0.0485  Tot=              6.8642
 Quadrupole moment (field-independent basis, Debye-Ang):
   XX=           -237.3607   YY=           -165.7685   ZZ=           -143.4954
   XY=             10.9462   XZ=             -0.9123   YZ=             -0.5676

 Summary of Natural Population Analysis:

                                       Natural Population
                Natural  -----------------------------------------------
    Atom  No    Charge         Core      Valence    Rydberg      Total
 -----------------------------------------------------------------------
      C    1   -0.28441      0.99966     2.27859    0.00616     3.28441
      C    2   -0.12916      0.99959     2.11979    0.00978     3.12916
      C    3   -0.27820      0.99965     2.27290    0.00566     3.27820
      C    4    0.05897      0.99947     1.92739    0.01417     2.94103
      C    5    0.05656      0.99940     1.93352    0.01052     2.94344
      C    6   -0.00126      0.99948     1.98819    0.01359     3.00126
      N    7   -0.14575      0.99971     2.63310    0.01294     3.64575
      N    8   -0.14631      0.99965     2.63478    0.01188     3.64631
      C    9    0.33292      0.99961     1.64770    0.01977     2.66708
      O   10   -0.34418      0.99988     3.33887    0.00543     4.34418
      N   11   -0.31175      0.99965     2.80298    0.00912     3.81175
      C   12   -0.02497      0.99956     2.01219    0.01323     3.02497
      C   13   -0.20457      0.99960     2.19620    0.00877     3.20457
      C   14    0.05586      0.99958     1.92877    0.01579     2.94414
      C   15   -0.20286      0.99963     2.19499    0.00825     3.20286
      C   16   -0.20669      0.99963     2.19846    0.00861     3.20669
      C   17    0.06143      0.99956     1.92447    0.01455     2.93857
      O   18   -0.30167      0.99991     3.29399    0.00777     4.30167
      N   19   -0.40655      0.99971     2.89726    0.00958     3.90655
      H   20    0.09781      0.00000     0.40003    0.00216     0.40219
      H   21    0.10229      0.00000     0.39648    0.00123     0.39771
      H   22    0.10527      0.00000     0.39319    0.00154     0.39473
      H   23    0.10328      0.00000     0.39434    0.00237     0.39672
      H   24    0.10024      0.00000     0.39851    0.00126     0.39976
      H   25    0.09691      0.00000     0.40198    0.00112     0.40309
      H   26    0.10116      0.00000     0.39747    0.00138     0.39884
      H   27    0.20445      0.00000     0.29149    0.00406     0.29555
      H   28    0.19198      0.00000     0.30501    0.00301     0.30802
      H   29    0.11808      0.00000     0.38018    0.00174     0.38192
      H   30    0.10230      0.00000     0.39652    0.00117     0.39770
      H   31    0.11295      0.00000     0.38556    0.00149     0.38705
      H   32    0.09749      0.00000     0.40139    0.00113     0.40251
      H   33    0.10061      0.00000     0.39836    0.00103     0.39939
      H   34    0.10272      0.00000     0.39598    0.00130     0.39728
      H   35    0.09573      0.00000     0.40305    0.00122     0.40427
      H   36    0.10506      0.00000     0.39377    0.00117     0.39494
      H   37    0.09861      0.00000     0.40040    0.00100     0.40139
      H   38    0.20442      0.00000     0.29381    0.00178     0.29558
      H   39    0.18128      0.00000     0.31702    0.00170     0.31872
 =======================================================================
   * Total *    0.00000     18.99293    51.76867    0.23841    71.00000

 Normal termination of Gaussian 16 at Sun Dec 13 21:50:03 2020.
