 Gaussian 16, Revision A.03,

 -----------------------------------------------------------
 # opt freq B3LYP/6-31G(d) empiricaldispersion=gd3bj scf=xqc
 -----------------------------------------------------------

 -------------------------------
 CID_107180036_JID_6643_neutraal
 -------------------------------
 Symbolic Z-matrix:
 Charge =  0 Multiplicity = 1

 SCF Done:  E(RB3LYP) =  -673.582858448     A.U. after   14 cycles
 SCF Done:  E(RB3LYP) =  -673.585058627     A.U. after   11 cycles
 SCF Done:  E(RB3LYP) =  -673.585420359     A.U. after   11 cycles
 SCF Done:  E(RB3LYP) =  -673.585541187     A.U. after   10 cycles
 SCF Done:  E(RB3LYP) =  -673.585584331     A.U. after   10 cycles
 SCF Done:  E(RB3LYP) =  -673.585589661     A.U. after    9 cycles
 SCF Done:  E(RB3LYP) =  -673.585590979     A.U. after    7 cycles
 SCF Done:  E(RB3LYP) =  -673.585591278     A.U. after    7 cycles
 SCF Done:  E(RB3LYP) =  -673.585591299     A.U. after    7 cycles
 SCF Done:  E(RB3LYP) =  -673.585591249     A.U. after    6 cycles
 SCF Done:  E(RB3LYP) =  -673.585590893     A.U. after    8 cycles
 SCF Done:  E(RB3LYP) =  -673.585590444     A.U. after    9 cycles
 SCF Done:  E(RB3LYP) =  -673.585589975     A.U. after    8 cycles
 SCF Done:  E(RB3LYP) =  -673.585589861     A.U. after    7 cycles
 SCF Done:  E(RB3LYP) =  -673.585589694     A.U. after    7 cycles
 Optimization completed.
    -- Stationary point found.
 Normal termination of Gaussian 16 at Fri Dec 11 00:10:00 2020.

 --------------------------------------------------------------------
 #N Geom=AllCheck Guess=TCheck SCRF=Check GenChk RB3LYP/6-31G(d) Freq
 --------------------------------------------------------------------

 Structure from the checkpoint file:  "JID_6643.chk"
 -------------------------------
 CID_107180036_JID_6643_neutraal
 -------------------------------
 Charge =  0 Multiplicity = 1

 SCF Done:  E(RB3LYP) =  -673.585589694     A.U. after    1 cycles

  Exact polarizability: 182.295   1.650 136.340  -0.435  -5.039 130.354
 Approx polarizability: 231.843   1.267 210.790   1.865 -20.961 195.831

                      1                      2                      3
                      A                      A                      A
 Frequencies --     11.1400                38.5101                57.1305
 Red. masses --      2.9191                 3.8331                 3.3140
 Frc consts  --      0.0002                 0.0033                 0.0064
 IR Inten    --      0.0660                 0.2589                 0.5262

                      4                      5                      6
                      A                      A                      A
 Frequencies --     82.4885               102.4396               134.9988
 Red. masses --      3.7563                 2.4166                 2.1572
 Frc consts  --      0.0151                 0.0149                 0.0232
 IR Inten    --      1.9402                 0.3259                 0.1204

                      7                      8                      9
                      A                      A                      A
 Frequencies --    157.9356               198.3566               234.0762
 Red. masses --      2.6208                 1.7410                 1.3881
 Frc consts  --      0.0385                 0.0404                 0.0448
 IR Inten    --      0.9476                 0.5567                 0.1314

                     10                     11                     12
                      A                      A                      A
 Frequencies --    237.9415               248.7234               266.9916
 Red. masses --      1.4141                 1.8827                 1.3087
 Frc consts  --      0.0472                 0.0686                 0.0550
 IR Inten    --      2.3120                 0.0243                 1.1273

                     13                     14                     15
                      A                      A                      A
 Frequencies --    282.7128               302.0107               336.4807
 Red. masses --      3.1136                 2.6411                 2.1704
 Frc consts  --      0.1466                 0.1419                 0.1448
 IR Inten    --      1.5932                 2.0306                 0.7672

                     16                     17                     18
                      A                      A                      A
 Frequencies --    343.6134               350.3958               384.9444
 Red. masses --      3.1867                 2.1338                 2.7003
 Frc consts  --      0.2217                 0.1544                 0.2358
 IR Inten    --      1.6431                 1.2232                 0.4969

                     19                     20                     21
                      A                      A                      A
 Frequencies --    411.5197               434.7942               460.3909
 Red. masses --      2.4624                 2.3369                 3.2759
 Frc consts  --      0.2457                 0.2603                 0.4091
 IR Inten    --      2.2265                 2.9120                 1.2523

                     22                     23                     24
                      A                      A                      A
 Frequencies --    473.4630               517.5522               539.5827
 Red. masses --      2.9482                 2.4227                 1.4398
 Frc consts  --      0.3894                 0.3823                 0.2470
 IR Inten    --      1.1681                10.6511                58.2035

                     25                     26                     27
                      A                      A                      A
 Frequencies --    553.2644               652.1351               709.2324
 Red. masses --      1.9100                 2.8354                 3.5275
 Frc consts  --      0.3445                 0.7105                 1.0454
 IR Inten    --      2.7540                 2.0316                 4.3115

                     28                     29                     30
                      A                      A                      A
 Frequencies --    738.3326               780.8835               790.9862
 Red. masses --      2.7798                 2.2475                 3.4418
 Frc consts  --      0.8928                 0.8075                 1.2687
 IR Inten    --      5.4885                 1.5978                 4.7402

                     31                     32                     33
                      A                      A                      A
 Frequencies --    826.2140               841.2236               864.7367
 Red. masses --      1.8068                 1.8735                 2.5406
 Frc consts  --      0.7267                 0.7811                 1.1193
 IR Inten    --      4.5386                10.2287                 1.1573

                     34                     35                     36
                      A                      A                      A
 Frequencies --    867.2970               892.7531               910.2007
 Red. masses --      2.3230                 1.8251                 1.5677
 Frc consts  --      1.0295                 0.8570                 0.7652
 IR Inten    --      0.3801                 5.3987                 4.5679

                     37                     38                     39
                      A                      A                      A
 Frequencies --    929.8311               945.3949               959.0404
 Red. masses --      1.6514                 2.1318                 1.5401
 Frc consts  --      0.8412                 1.1226                 0.8346
 IR Inten    --      1.5705                 0.7339                 0.5134

                     40                     41                     42
                      A                      A                      A
 Frequencies --    994.0028              1002.6526              1033.2982
 Red. masses --      2.1196                 2.0253                 3.8733
 Frc consts  --      1.2339                 1.1996                 2.4366
 IR Inten    --      5.2447                 0.2624                 2.8093

                     43                     44                     45
                      A                      A                      A
 Frequencies --   1039.0433              1047.5382              1053.6620
 Red. masses --      1.2943                 2.3272                 1.5704
 Frc consts  --      0.8233                 1.5046                 1.0272
 IR Inten    --      0.2922                 3.1897                 2.4874

                     46                     47                     48
                      A                      A                      A
 Frequencies --   1070.7140              1079.5750              1100.6235
 Red. masses --      2.6786                 1.8686                 1.9747
 Frc consts  --      1.8093                 1.2831                 1.4094
 IR Inten    --      5.1151                 1.1580                 1.0419

                     49                     50                     51
                      A                      A                      A
 Frequencies --   1108.7652              1123.3395              1144.4969
 Red. masses --      2.1544                 1.6823                 2.7554
 Frc consts  --      1.5604                 1.2508                 2.1265
 IR Inten    --     16.6692                 0.3597                14.0361

                     52                     53                     54
                      A                      A                      A
 Frequencies --   1173.9600              1191.4823              1210.4539
 Red. masses --      1.6557                 1.4956                 2.5356
 Frc consts  --      1.3444                 1.2509                 2.1890
 IR Inten    --      2.9771                 7.8320                 1.8629

                     55                     56                     57
                      A                      A                      A
 Frequencies --   1234.1965              1244.4320              1263.3278
 Red. masses --      1.7976                 2.1412                 1.6735
 Frc consts  --      1.6133                 1.9536                 1.5736
 IR Inten    --      8.6900                 6.7753                 2.3979

                     58                     59                     60
                      A                      A                      A
 Frequencies --   1293.5889              1306.1355              1308.2628
 Red. masses --      1.6495                 1.4491                 1.3118
 Frc consts  --      1.6263                 1.4566                 1.3228
 IR Inten    --      6.2152                 1.6565                 1.3095

                     61                     62                     63
                      A                      A                      A
 Frequencies --   1319.9588              1344.7883              1367.8655
 Red. masses --      1.4032                 1.3178                 1.5111
 Frc consts  --      1.4405                 1.4041                 1.6658
 IR Inten    --      0.2302                 0.8067                 4.9965

                     64                     65                     66
                      A                      A                      A
 Frequencies --   1375.2368              1384.7199              1387.4832
 Red. masses --      1.5902                 1.4298                 1.5655
 Frc consts  --      1.7720                 1.6153                 1.7756
 IR Inten    --     32.7310                 3.2975                25.0367

                     67                     68                     69
                      A                      A                      A
 Frequencies --   1396.9504              1401.7732              1407.4135
 Red. masses --      1.3996                 1.5319                 1.7447
 Frc consts  --      1.6092                 1.7735                 2.0362
 IR Inten    --      1.0915                 8.5729                 3.7069

                     70                     71                     72
                      A                      A                      A
 Frequencies --   1408.6709              1431.9632              1447.7046
 Red. masses --      1.6345                 1.2448                 1.2988
 Frc consts  --      1.9109                 1.5039                 1.6038
 IR Inten    --      0.6050                 6.2940                11.4003

                     73                     74                     75
                      A                      A                      A
 Frequencies --   1453.5055              1469.2979              1507.2093
 Red. masses --      1.2455                 3.7176                 1.1076
 Frc consts  --      1.5504                 4.7286                 1.4825
 IR Inten    --      7.5181                12.9662                 3.2760

                     76                     77                     78
                      A                      A                      A
 Frequencies --   1507.7909              1512.0504              1516.0431
 Red. masses --      1.0952                 1.0636                 1.0827
 Frc consts  --      1.4670                 1.4328                 1.4662
 IR Inten    --      2.2239                 1.9122                 1.4880

                     79                     80                     81
                      A                      A                      A
 Frequencies --   1518.2135              1520.3281              1525.6334
 Red. masses --      1.1006                 1.1018                 1.1824
 Frc consts  --      1.4946                 1.5005                 1.6215
 IR Inten    --      2.8703                 1.7600                11.3615

                     82                     83                     84
                      A                      A                      A
 Frequencies --   1527.1199              1531.4986              1535.3561
 Red. masses --      1.0645                 1.1202                 2.0923
 Frc consts  --      1.4627                 1.5481                 2.9059
 IR Inten    --      4.1489                 9.3908                22.2096

                     85                     86                     87
                      A                      A                      A
 Frequencies --   1537.8984              1541.3724              1543.5407
 Red. masses --      1.0983                 1.1899                 1.0621
 Frc consts  --      1.5305                 1.6657                 1.4909
 IR Inten    --      2.5444                 5.4728                 7.1146

                     88                     89                     90
                      A                      A                      A
 Frequencies --   1594.9355              3016.6203              3020.6193
 Red. masses --      4.5813                 1.0631                 1.0670
 Frc consts  --      6.8664                 5.7000                 5.7359
 IR Inten    --     52.5286                19.7476                30.7181

                     91                     92                     93
                      A                      A                      A
 Frequencies --   3036.9111              3037.8675              3038.9979
 Red. masses --      1.0769                 1.0656                 1.0610
 Frc consts  --      5.8520                 5.7939                 5.7731
 IR Inten    --     13.0504                15.3173                26.3934

                     94                     95                     96
                      A                      A                      A
 Frequencies --   3043.2984              3051.1741              3052.7157
 Red. masses --      1.0401                 1.0628                 1.0410
 Frc consts  --      5.6758                 5.8294                 5.7159
 IR Inten    --     37.9021                30.4690                14.7401

                     97                     98                     99
                      A                      A                      A
 Frequencies --   3053.3747              3055.6481              3061.6458
 Red. masses --      1.0563                 1.0582                 1.0894
 Frc consts  --      5.8023                 5.8213                 6.0164
 IR Inten    --     34.6350                 8.4893                64.9145

                    100                    101                    102
                      A                      A                      A
 Frequencies --   3070.5373              3075.4665              3078.5006
 Red. masses --      1.0917                 1.1000                 1.1044
 Frc consts  --      6.0643                 6.1300                 6.1666
 IR Inten    --     67.7441                41.0586                48.5084

                    103                    104                    105
                      A                      A                      A
 Frequencies --   3099.0638              3099.2355              3105.4232
 Red. masses --      1.1015                 1.1007                 1.1015
 Frc consts  --      6.2330                 6.2289                 6.2586
 IR Inten    --      7.8252                36.4977                51.8304

                    106                    107                    108
                      A                      A                      A
 Frequencies --   3115.2694              3121.3553              3126.7119
 Red. masses --      1.1019                 1.0959                 1.0994
 Frc consts  --      6.3006                 6.2908                 6.3328
 IR Inten    --     40.2993                20.4217                47.9990

                    109                    110                    111
                      A                      A                      A
 Frequencies --   3142.0946              3144.9531              3652.1509
 Red. masses --      1.1010                 1.1005                 1.0815
 Frc consts  --      6.4045                 6.4129                 8.4990
 IR Inten    --     34.7863                17.8774                57.9137

 - Thermochemistry -
 -------------------
 Temperature   298.150 Kelvin.  Pressure   1.00000 Atm.
 Atom     1 has atomic number  6 and mass  12.00000

 Molecular mass:   221.18920 amu.
 Principal axes and moments of inertia in atomic units:
                           1         2         3
     Eigenvalues --  1929.527925927.314996164.05958
           X            0.99994  -0.01105   0.00048
           Y            0.01104   0.99954   0.02826
           Z           -0.00079  -0.02825   0.99960
 This molecule is an asymmetric top.
 Rotational symmetry number  1.
 Warning -- assumption of classical behavior for rotation
           may cause significant error
 Rotational temperatures (Kelvin)      0.04489     0.01461     0.01405
 Rotational constants (GHZ):           0.93533     0.30448     0.29278
 Zero-point vibrational energy     928357.3 (Joules/Mol)
                                  221.88273 (Kcal/Mol)
 Warning -- explicit consideration of  25 degrees of freedom as
           vibrations may cause significant error
 Vibrational temperatures:     16.03    55.41    82.20   118.68   147.39
          (Kelvin)            194.23   227.23   285.39   336.78   342.34
                              357.86   384.14   406.76   434.53   484.12
                              494.38   504.14   553.85   592.09   625.57
                              662.40   681.21   744.64   776.34   796.02
                              938.28  1020.43  1062.30  1123.52  1138.05
                             1188.74  1210.33  1244.16  1247.85  1284.47
                             1309.58  1337.82  1360.21  1379.85  1430.15
                             1442.59  1486.69  1494.95  1507.17  1515.98
                             1540.52  1553.27  1583.55  1595.27  1616.23
                             1646.68  1689.07  1714.28  1741.57  1775.73
                             1790.46  1817.65  1861.19  1879.24  1882.30
                             1899.13  1934.85  1968.05  1978.66  1992.30
                             1996.28  2009.90  2016.84  2024.95  2026.76
                             2060.28  2082.92  2091.27  2113.99  2168.54
                             2169.37  2175.50  2181.25  2184.37  2187.41
                             2195.05  2197.18  2203.48  2209.03  2212.69
                             2217.69  2220.81  2294.76  4340.24  4346.00
                             4369.44  4370.81  4372.44  4378.63  4389.96
                             4392.18  4393.13  4396.40  4405.03  4417.82
                             4424.91  4429.28  4458.86  4459.11  4468.01
                             4482.18  4490.93  4498.64  4520.77  4524.89
                             5254.63

 Zero-point correction=                           0.353593 (Hartree/Particle)
 Thermal correction to Energy=                    0.369960
 Thermal correction to Enthalpy=                  0.370905
 Thermal correction to Gibbs Free Energy=         0.308655
 Sum of electronic and zero-point Energies=           -673.231997
 Sum of electronic and thermal Energies=              -673.215629
 Sum of electronic and thermal Enthalpies=            -673.214685
 Sum of electronic and thermal Free Energies=         -673.276935

                     E (Thermal)             CV                S
                      KCal/Mol        Cal/Mol-Kelvin    Cal/Mol-Kelvin
 Total                  232.154             63.418            131.015
 Electronic               0.000              0.000              0.000
 Translational            0.889              2.981             42.084
 Rotational               0.889              2.981             32.622
 Vibrational            230.376             57.457             56.309
 Vibration     1          0.593              1.987              7.797
 Vibration     2          0.594              1.981              5.334
 Vibration     3          0.596              1.975              4.554
 Vibration     4          0.600              1.961              3.831
 Vibration     5          0.605              1.947              3.407
 Vibration     6          0.613              1.918              2.874
 Vibration     7          0.621              1.894              2.574
 Vibration     8          0.637              1.842              2.148
 Vibration     9          0.654              1.789              1.847
 Vibration    10          0.656              1.783              1.818
 Vibration    11          0.662              1.765              1.740
 Vibration    12          0.672              1.734              1.616
 Vibration    13          0.682              1.706              1.517
 Vibration    14          0.694              1.670              1.406
 Vibration    15          0.717              1.603              1.229
 Vibration    16          0.722              1.588              1.195
 Vibration    17          0.727              1.574              1.164
 Vibration    18          0.754              1.502              1.020
 Vibration    19          0.775              1.445              0.921
 Vibration    20          0.795              1.394              0.843
 Vibration    21          0.818              1.338              0.765
 Vibration    22          0.830              1.309              0.728
 Vibration    23          0.873              1.211              0.616
 Vibration    24          0.895              1.163              0.566
 Vibration    25          0.909              1.133              0.537

                           ! Non-Optimized Parameters !
 Normal termination of Gaussian 16 at Fri Dec 11 00:24:46 2020.

 ----------------------------------------------------------------------
 # B3LYP/6-311++G(d,p) empiricaldispersion=gd3bj scf=xqc pop=npa geom=c
 heck
 ----------------------------------------------------------------------

 ---------------------------------------
 CID_107180036_JID_6643_Energie_neutraal
 ---------------------------------------
 Structure from the checkpoint file:  "JID_6643.chk"
 Charge =  0 Multiplicity = 1

 SCF Done:  E(RB3LYP) =  -673.766313016     A.U. after   14 cycles
 Normal termination of Gaussian 16 at Fri Dec 11 00:32:20 2020.

 ----------------------------------------------------------------------
 # B3LYP/6-311++G(d,p) empiricaldispersion=gd3bj scf=xqc pop=npa geom=c
 heck
 ----------------------------------------------------------------------

 -------------------------------------
 CID_107180036_JID_6643_Energie_kation
 -------------------------------------
 Structure from the checkpoint file:  "JID_6643.chk"
 Charge =  1 Multiplicity = 2

 SCF Done:  E(UB3LYP) =  -673.448062703     A.U. after   26 cycles
 Normal termination of Gaussian 16 at Fri Dec 11 00:52:28 2020.
 Gaussian 16:  ES64L-G16RevA.03 25-Dec-2016

 ----------------------------------------------------------------------
 # B3LYP/6-311++G(d,p) empiricaldispersion=gd3bj scf=xqc pop=npa geom=c
 heck
 ----------------------------------------------------------------------

 ------------------------------------
 CID_107180036_JID_6643_Energie_anion
 ------------------------------------
 Structure from the checkpoint file:  "JID_6643.chk"
 Charge = -1 Multiplicity = 2

                         Standard orientation:
 ---------------------------------------------------------------------
 Center     Atomic      Atomic             Coordinates (Angstroms)
 Number     Number       Type             X           Y           Z
 ---------------------------------------------------------------------
      1          6           0       -3.335069    2.218743   -0.270845
      2          6           0       -4.130656    0.960575    0.081804
      3          6           0       -3.673689   -0.291861   -0.698916
      4          6           0       -2.307617   -0.759503   -0.313830
      5          7           0       -1.145105   -0.226841   -0.665954
      6          6           0       -0.213845   -0.991602   -0.008131
      7          7           0       -0.735767   -1.970493    0.725188
      8          7           0       -2.071393   -1.799516    0.522041
      9          6           0        1.263986   -0.755424   -0.100388
     10          6           0        1.678685   -0.491372   -1.561688
     11          6           0        3.194010   -0.318110   -1.700908
     12          6           0        3.717674    0.778591   -0.767795
     13          6           0        3.300707    0.502684    0.680769
     14          6           0        1.773476    0.356305    0.879996
     15          6           0        1.071321    1.704573    0.640135
     16          6           0        1.513105   -0.078615    2.330558
     17          1           0       -2.265351    2.072661   -0.097492
     18          1           0       -3.672952    3.073294    0.325479
     19          1           0       -3.462366    2.474548   -1.329544
     20          1           0       -4.053467    0.755581    1.157741
     21          1           0       -5.195280    1.122357   -0.129504
     22          1           0       -4.389897   -1.107304   -0.537829
     23          1           0       -3.673686   -0.071697   -1.772452
     24          1           0       -2.728205   -2.433196    0.953920
     25          1           0        1.742749   -1.688994    0.224601
     26          1           0        1.158036    0.399095   -1.930830
     27          1           0        1.332861   -1.325347   -2.184418
     28          1           0        3.452765   -0.093753   -2.743245
     29          1           0        3.690312   -1.267645   -1.451299
     30          1           0        3.328505    1.752869   -1.091580
     31          1           0        4.810979    0.844808   -0.832899
     32          1           0        3.670123    1.297562    1.342328
     33          1           0        3.784301   -0.427664    1.013704
     34          1           0        1.169411    2.054708   -0.390880
     35          1           0        0.001928    1.633681    0.856824
     36          1           0        1.502224    2.469942    1.297009
     37          1           0        0.443330   -0.196833    2.528615
     38          1           0        1.997284   -1.037988    2.548233
     39          1           0        1.909731    0.667350    3.030027
 ---------------------------------------------------------------------

 SCF Done:  E(UB3LYP) =  -673.755115441     A.U. after   33 cycles
 SCF Done:  E(UB3LYP) =  -673.755115441     a.u. after    1 cycles

 The electronic state is 2-A.
 Alpha  occ. eigenvalues --  -14.28380 -14.23107 -14.19605 -10.13965 -10.11752
 Alpha  occ. eigenvalues --  -10.09132 -10.08385 -10.08095 -10.07686 -10.07660
 Alpha  occ. eigenvalues --  -10.07453 -10.07138 -10.07106 -10.06135 -10.06017
 Alpha  occ. eigenvalues --  -10.05689  -0.96875  -0.79144  -0.76189  -0.73600
 Alpha  occ. eigenvalues --   -0.68811  -0.68441  -0.65623  -0.60450  -0.59247
 Alpha  occ. eigenvalues --   -0.58915  -0.53992  -0.52463  -0.49605  -0.49347
 Alpha  occ. eigenvalues --   -0.47859  -0.44144  -0.41958  -0.38368  -0.38198
 Alpha  occ. eigenvalues --   -0.36216  -0.35905  -0.35406  -0.34877  -0.33944
 Alpha  occ. eigenvalues --   -0.32415  -0.32151  -0.31003  -0.30134  -0.29237
 Alpha  occ. eigenvalues --   -0.28644  -0.28032  -0.26356  -0.26207  -0.25608
 Alpha  occ. eigenvalues --   -0.25063  -0.24694  -0.24489  -0.24178  -0.22582
 Alpha  occ. eigenvalues --   -0.22116  -0.21497  -0.20518  -0.18824  -0.17573
 Alpha  occ. eigenvalues --   -0.15245   0.04240
 Alpha virt. eigenvalues --    0.05529   0.07105   0.07263   0.07891   0.08108
 Alpha virt. eigenvalues --    0.08713   0.09324   0.09866   0.10167   0.10722
 Alpha virt. eigenvalues --    0.10844   0.10943   0.11315   0.11477   0.12484

  Beta  occ. eigenvalues --  -14.28316 -14.23095 -14.19594 -10.13963 -10.11755
  Beta  occ. eigenvalues --  -10.09132 -10.08384 -10.08057 -10.07678 -10.07650
  Beta  occ. eigenvalues --  -10.07445 -10.07106 -10.07102 -10.06127 -10.06009
  Beta  occ. eigenvalues --  -10.05674  -0.96833  -0.79094  -0.76173  -0.73556
  Beta  occ. eigenvalues --   -0.68790  -0.68400  -0.65599  -0.60396  -0.59222
  Beta  occ. eigenvalues --   -0.58896  -0.53960  -0.52389  -0.49528  -0.49323
  Beta  occ. eigenvalues --   -0.47821  -0.44107  -0.41904  -0.38338  -0.38161
  Beta  occ. eigenvalues --   -0.36192  -0.35887  -0.35365  -0.34843  -0.33900
  Beta  occ. eigenvalues --   -0.32392  -0.32135  -0.30970  -0.30100  -0.29221
  Beta  occ. eigenvalues --   -0.28631  -0.28019  -0.26344  -0.26195  -0.25570
  Beta  occ. eigenvalues --   -0.25043  -0.24663  -0.24445  -0.24141  -0.22560
  Beta  occ. eigenvalues --   -0.22092  -0.21478  -0.20501  -0.18770  -0.17559
  Beta  occ. eigenvalues --   -0.15195
  Beta virt. eigenvalues --    0.05845   0.06988   0.07316   0.07669   0.08392
  Beta virt. eigenvalues --    0.08673   0.09086   0.09524   0.09892   0.10440
  Beta virt. eigenvalues --    0.10824   0.11022   0.11332   0.11476   0.11768

 Mulliken charges and spin densities:
               1          2
     1  C    0.382997  -0.910527
     2  C   -0.496631   0.364240
     3  C   -1.115212   0.887461
     4  C    2.303229  -1.810337
     5  N    0.021777   0.011404
     6  C    0.260919  -1.023489
     7  N   -0.079621   0.194623
     8  N   -0.060886  -0.154430
     9  C   -0.127076  -0.043157
    10  C   -0.314138  -0.206775
    11  C   -0.275367  -0.248356
    12  C   -0.007857  -0.456325
    13  C   -0.588926   0.413536
    14  C    0.360690   0.380492
    15  C   -0.400959  -0.418733
    16  C   -0.217592  -0.435192
    17  H    0.331642  -0.211357
    18  H   -0.121253   0.241095
    19  H    0.004316   0.115681
    20  H   -0.102659   0.235637
    21  H   -0.619443   0.807638
    22  H   -0.628917   0.801420
    23  H   -0.040088   0.211100
    24  H   -0.446666   0.807515
    25  H    0.213796   0.043364
    26  H    0.193669  -0.008247
    27  H    0.107993   0.081120
    28  H   -0.007005   0.170236
    29  H    0.113078  -0.001973
    30  H    0.149607  -0.036312
    31  H   -0.292455   0.469189
    32  H    0.031636   0.120058
    33  H    0.023828   0.112286
    34  H    0.063475   0.079874
    35  H    0.131650   0.063032
    36  H    0.039917   0.109559
    37  H    0.119037   0.072059
    38  H    0.074664   0.049878
    39  H    0.014831   0.122716
 Sum of Mulliken charges =  -1.00000   1.00000

 Dipole moment (field-independent basis, Debye):
    X=              8.2459    Y=              2.3742    Z=             -1.0808  Tot=              8.6487
 Quadrupole moment (field-independent basis, Debye-Ang):
   XX=           -205.0840   YY=           -143.0233   ZZ=           -131.7599
   XY=            -11.6090   XZ=              3.9986   YZ=              4.2160

 Summary of Natural Population Analysis:

                                       Natural Population
                Natural  -----------------------------------------------
    Atom  No    Charge         Core      Valence    Rydberg      Total
 -----------------------------------------------------------------------
      C    1   -0.28851      0.99966     2.28304    0.00581     3.28851
      C    2   -0.18225      0.99964     2.17469    0.00792     3.18225
      C    3   -0.21215      0.99959     2.20201    0.01055     3.21215
      C    4    0.20151      0.99961     1.78170    0.01718     2.79849
      N    5   -0.27756      0.99967     2.76966    0.00823     3.77756
      C    6    0.17692      0.99961     1.80171    0.02177     2.82308
      N    7   -0.16636      0.99969     2.65498    0.01168     3.66636
      N    8   -0.17459      0.99964     2.66216    0.01279     3.67459
      C    9   -0.12609      0.99951     2.11440    0.01218     3.12609
      C   10   -0.18662      0.99962     2.17916    0.00785     3.18662
      C   11   -0.18892      0.99963     2.18073    0.00856     3.18892
      C   12   -0.19136      0.99963     2.18325    0.00849     3.19136
      C   13   -0.18838      0.99959     2.17798    0.01082     3.18838
      C   14   -0.03314      0.99956     2.02289    0.01068     3.03314
      C   15   -0.28938      0.99962     2.28355    0.00622     3.28938
      C   16   -0.28383      0.99962     2.27804    0.00616     3.28383
      H   17    0.10537      0.00000     0.39332    0.00131     0.39463
      H   18    0.09583      0.00000     0.40336    0.00081     0.40417
      H   19    0.09436      0.00000     0.40472    0.00091     0.40564
      H   20    0.09561      0.00000     0.40278    0.00161     0.40439
      H   21    0.09823      0.00000     0.39964    0.00213     0.40177
      H   22    0.11322      0.00000     0.38158    0.00520     0.38678
      H   23    0.10757      0.00000     0.39115    0.00127     0.39243
      H   24    0.20966      0.00000     0.28039    0.00996     0.29034
      H   25    0.10660      0.00000     0.39173    0.00167     0.39340
      H   26    0.10347      0.00000     0.39516    0.00136     0.39653
      H   27    0.10144      0.00000     0.39770    0.00086     0.39856
      H   28    0.09736      0.00000     0.40186    0.00078     0.40264
      H   29    0.09108      0.00000     0.40787    0.00105     0.40892
      H   30    0.09400      0.00000     0.40489    0.00111     0.40600
      H   31    0.09748      0.00000     0.40149    0.00104     0.40252
      H   32    0.09874      0.00000     0.40038    0.00088     0.40126
      H   33    0.09498      0.00000     0.40396    0.00106     0.40502
      H   34    0.10026      0.00000     0.39879    0.00095     0.39974
      H   35    0.10762      0.00000     0.39131    0.00107     0.39238
      H   36    0.09588      0.00000     0.40329    0.00083     0.40412
      H   37    0.10723      0.00000     0.39179    0.00098     0.39277
      H   38    0.09882      0.00000     0.40032    0.00086     0.40118
      H   39    0.09592      0.00000     0.40325    0.00082     0.40408
 =======================================================================
   * Total *    0.00000     15.99388    44.80070    0.20541    61.00000

 Normal termination of Gaussian 16 at Fri Dec 11 01:18:01 2020.
