 Gaussian 16, Revision A.03,

 -----------------------------------------------------------
 # opt freq B3LYP/6-31G(d) empiricaldispersion=gd3bj scf=xqc
 -----------------------------------------------------------

 -----------------------------
 CID_64052777_JID_703_neutraal
 -----------------------------
 Symbolic Z-matrix:
 Charge =  0 Multiplicity = 1

 SCF Done:  E(RB3LYP) =  -803.955294300     A.U. after   13 cycles
 SCF Done:  E(RB3LYP) =  -803.958796222     A.U. after   11 cycles
 SCF Done:  E(RB3LYP) =  -803.957998048     A.U. after   12 cycles
 SCF Done:  E(RB3LYP) =  -803.959756856     A.U. after   11 cycles
 SCF Done:  E(RB3LYP) =  -803.960122208     A.U. after   11 cycles
 SCF Done:  E(RB3LYP) =  -803.960319251     A.U. after   11 cycles
 SCF Done:  E(RB3LYP) =  -803.960396923     A.U. after   10 cycles
 SCF Done:  E(RB3LYP) =  -803.960414719     A.U. after   10 cycles
 SCF Done:  E(RB3LYP) =  -803.960422846     A.U. after    8 cycles
 SCF Done:  E(RB3LYP) =  -803.960425312     A.U. after    8 cycles
 SCF Done:  E(RB3LYP) =  -803.960426501     A.U. after    7 cycles
 SCF Done:  E(RB3LYP) =  -803.960426312     A.U. after    7 cycles
 Optimization completed.
    -- Stationary point found.
 Normal termination of Gaussian 16 at Tue Dec  8 12:29:19 2020.

 --------------------------------------------------------------------
 #N Geom=AllCheck Guess=TCheck SCRF=Check GenChk RB3LYP/6-31G(d) Freq
 --------------------------------------------------------------------

 Structure from the checkpoint file:  "JID_703.chk"
 -----------------------------
 CID_64052777_JID_703_neutraal
 -----------------------------
 Charge =  0 Multiplicity = 1

 SCF Done:  E(RB3LYP) =  -803.960426312     A.U. after    1 cycles

  Exact polarizability: 106.053  -3.809  97.236  -4.482  -6.995  90.055
 Approx polarizability: 144.413  -6.177 139.086  -7.576 -13.320 138.239

                      1                      2                      3
                      A                      A                      A
 Frequencies --     35.6988                92.8914               157.1258
 Red. masses --      3.8579                 5.1496                 2.9803
 Frc consts  --      0.0029                 0.0262                 0.0434
 IR Inten    --      2.0317                 0.1156                 0.8143

                      4                      5                      6
                      A                      A                      A
 Frequencies --    173.2027               198.9977               225.3334
 Red. masses --      3.7658                 2.6057                 1.1961
 Frc consts  --      0.0666                 0.0608                 0.0358
 IR Inten    --      1.0716                 7.0381                 0.7987

                      7                      8                      9
                      A                      A                      A
 Frequencies --    230.1809               311.3525               319.4876
 Red. masses --      2.2643                 1.7142                 1.9281
 Frc consts  --      0.0707                 0.0979                 0.1160
 IR Inten    --      2.1182                73.5061                32.7596

                     10                     11                     12
                      A                      A                      A
 Frequencies --    332.0959               370.2356               416.9902
 Red. masses --      2.6653                 2.0106                 2.5464
 Frc consts  --      0.1732                 0.1624                 0.2609
 IR Inten    --     30.8370                14.0344                 4.9698

                     13                     14                     15
                      A                      A                      A
 Frequencies --    446.9559               493.2693               556.7807
 Red. masses --      2.0634                 2.1493                 2.4911
 Frc consts  --      0.2429                 0.3081                 0.4550
 IR Inten    --      9.6432                 5.3068                27.4187

                     16                     17                     18
                      A                      A                      A
 Frequencies --    614.5267               659.4535               691.7661
 Red. masses --      3.0231                 4.6139                 3.9664
 Frc consts  --      0.6726                 1.1822                 1.1183
 IR Inten    --      1.8217                 2.2288                 1.2061

                     19                     20                     21
                      A                      A                      A
 Frequencies --    740.7329               840.8639               855.6451
 Red. masses --      2.5648                 2.2199                 1.7395
 Frc consts  --      0.8291                 0.9248                 0.7504
 IR Inten    --      2.8879                10.3527                 1.0201

                     22                     23                     24
                      A                      A                      A
 Frequencies --    883.5312               913.9233               944.3763
 Red. masses --      2.3786                 2.0533                 1.8482
 Frc consts  --      1.0940                 1.0105                 0.9712
 IR Inten    --      8.7557                 3.3713                 8.2375

                     25                     26                     27
                      A                      A                      A
 Frequencies --    984.7109              1029.2483              1041.7805
 Red. masses --      2.0959                 1.7308                 2.0468
 Frc consts  --      1.1974                 1.0803                 1.3088
 IR Inten    --      5.5336                 9.7046                35.5547

                     28                     29                     30
                      A                      A                      A
 Frequencies --   1044.6681              1088.4377              1103.8657
 Red. masses --      1.5960                 1.6031                 3.6934
 Frc consts  --      1.0262                 1.1190                 2.6516
 IR Inten    --     41.8232                 0.1996                34.2244

                     31                     32                     33
                      A                      A                      A
 Frequencies --   1114.5004              1157.9360              1184.3449
 Red. masses --      1.8958                 1.6768                 1.5542
 Frc consts  --      1.3874                 1.3247                 1.2844
 IR Inten    --      5.0980                24.3568                28.3295

                     34                     35                     36
                      A                      A                      A
 Frequencies --   1216.5817              1251.5931              1265.4619
 Red. masses --      1.3226                 1.2908                 1.5869
 Frc consts  --      1.1533                 1.1913                 1.4973
 IR Inten    --      4.2484                 6.0577                33.8943

                     37                     38                     39
                      A                      A                      A
 Frequencies --   1286.8617              1329.8194              1337.4624
 Red. masses --      1.3866                 1.4896                 1.2544
 Frc consts  --      1.3529                 1.5521                 1.3220
 IR Inten    --      6.8778                 3.5884                 3.9759

                     40                     41                     42
                      A                      A                      A
 Frequencies --   1362.3831              1375.0783              1410.0581
 Red. masses --      1.3377                 1.3067                 1.2707
 Frc consts  --      1.4629                 1.4557                 1.4885
 IR Inten    --     24.4827                13.9661                 6.3005

                     43                     44                     45
                      A                      A                      A
 Frequencies --   1414.9612              1425.1554              1429.8339
 Red. masses --      1.2126                 1.3173                 1.2493
 Frc consts  --      1.4305                 1.5763                 1.5049
 IR Inten    --     22.9707                17.0694                 1.2199

                     46                     47                     48
                      A                      A                      A
 Frequencies --   1433.6707              1450.0021              1488.6130
 Red. masses --      1.2736                 1.4778                 1.0881
 Frc consts  --      1.5424                 1.8307                 1.4207
 IR Inten    --     50.1148                38.6975                 1.0307

                     49                     50                     51
                      A                      A                      A
 Frequencies --   1490.3205              1499.2653              1506.7707
 Red. masses --      1.0976                 1.0967                 1.0940
 Frc consts  --      1.4364                 1.4525                 1.4634
 IR Inten    --      3.6207                22.5634                 2.7291

                     52                     53                     54
                      A                      A                      A
 Frequencies --   1519.4933              1530.2807              1538.0484
 Red. masses --      1.0485                 1.0917                 1.0562
 Frc consts  --      1.4263                 1.5062                 1.4721
 IR Inten    --      5.8620                 4.3022                 0.3546

                     55                     56                     57
                      A                      A                      A
 Frequencies --   2982.6913              3002.4713              3025.8416
 Red. masses --      1.0698                 1.0631                 1.0699
 Frc consts  --      5.6074                 5.6467                 5.7713
 IR Inten    --     40.9319               105.9251                38.7135

                     58                     59                     60
                      A                      A                      A
 Frequencies --   3030.2867              3038.6247              3058.2584
 Red. masses --      1.0767                 1.0996                 1.0391
 Frc consts  --      5.8253                 5.9820                 5.7259
 IR Inten    --     26.1916                50.6397                22.2885

                     61                     62                     63
                      A                      A                      A
 Frequencies --   3067.8156              3072.5385              3080.1815
 Red. masses --      1.0957                 1.0597                 1.0657
 Frc consts  --      6.0758                 5.8942                 5.9571
 IR Inten    --     32.5163                24.3930                37.7751

                     64                     65                     66
                      A                      A                      A
 Frequencies --   3113.0057              3122.9317              3127.1821
 Red. masses --      1.0931                 1.1031                 1.1017
 Frc consts  --      6.2411                 6.3385                 6.3475
 IR Inten    --     46.3523                16.1251                25.3919

                     67                     68                     69
                      A                      A                      A
 Frequencies --   3145.6195              3146.5434              3733.0201
 Red. masses --      1.1051                 1.1031                 1.0660
 Frc consts  --      6.4424                 6.4345                 8.7527
 IR Inten    --      2.7475                20.3869                10.2404

 - Thermochemistry -
 -------------------
 Temperature   298.150 Kelvin.  Pressure   1.00000 Atm.
 Atom     1 has atomic number  6 and mass  12.00000

 Molecular mass:   161.08744 amu.
 Principal axes and moments of inertia in atomic units:
                           1         2         3
     Eigenvalues --  1209.650051909.855312366.22635
           X            0.99915   0.04111   0.00106
           Y           -0.04104   0.99836  -0.04000
           Z           -0.00271   0.03993   0.99920
 This molecule is an asymmetric top.
 Rotational symmetry number  1.
 Warning -- assumption of classical behavior for rotation
           may cause significant error
 Rotational temperatures (Kelvin)      0.07160     0.04535     0.03660
 Rotational constants (GHZ):           1.49195     0.94496     0.76271
 Zero-point vibrational energy     583560.1 (Joules/Mol)
                                  139.47422 (Kcal/Mol)
 Warning -- explicit consideration of  16 degrees of freedom as
           vibrations may cause significant error
 Vibrational temperatures:     51.36   133.65   226.07   249.20   286.31
          (Kelvin)            324.20   331.18   447.97   459.67   477.81
                              532.69   599.96   643.07   709.70   801.08
                              884.17   948.81   995.30  1065.75  1209.82
                             1231.08  1271.20  1314.93  1358.75  1416.78
                             1480.86  1498.89  1503.04  1566.02  1588.22
                             1603.52  1666.01  1704.01  1750.39  1800.76
                             1820.72  1851.51  1913.31  1924.31  1960.17
                             1978.43  2028.76  2035.81  2050.48  2057.21
                             2062.73  2086.23  2141.78  2144.24  2157.11
                             2167.91  2186.21  2201.73  2212.91  4291.43
                             4319.89  4353.51  4359.91  4371.90  4400.15
                             4413.90  4420.70  4431.69  4478.92  4493.20
                             4499.32  4525.84  4527.17  5370.98

 Zero-point correction=                           0.222266 (Hartree/Particle)
 Thermal correction to Energy=                    0.233235
 Thermal correction to Enthalpy=                  0.234179
 Thermal correction to Gibbs Free Energy=         0.185597
 Sum of electronic and zero-point Energies=           -803.738160
 Sum of electronic and thermal Energies=              -803.727191
 Sum of electronic and thermal Enthalpies=            -803.726247
 Sum of electronic and thermal Free Energies=         -803.774829

                     E (Thermal)             CV                S
                      KCal/Mol        Cal/Mol-Kelvin    Cal/Mol-Kelvin
 Total                  146.357             41.799            102.249
 Electronic               0.000              0.000              0.000
 Translational            0.889              2.981             41.139
 Rotational               0.889              2.981             30.081
 Vibrational            144.580             35.838             31.029
 Vibration     1          0.594              1.982              5.485
 Vibration     2          0.602              1.954              3.598
 Vibration     3          0.621              1.895              2.584
 Vibration     4          0.627              1.875              2.400
 Vibration     5          0.637              1.841              2.142
 Vibration     6          0.650              1.802              1.916
 Vibration     7          0.652              1.795              1.878
 Vibration     8          0.700              1.652              1.355
 Vibration     9          0.705              1.636              1.313
 Vibration    10          0.714              1.611              1.250
 Vibration    11          0.742              1.533              1.079
 Vibration    12          0.780              1.433              0.902
 Vibration    13          0.806              1.368              0.805
 Vibration    14          0.849              1.265              0.675
 Vibration    15          0.912              1.125              0.530
 Vibration    16          0.974              1.001              0.425

 Optimization completed.
    -- Stationary point found.
 Normal termination of Gaussian 16 at Tue Dec  8 12:42:17 2020.

 ----------------------------------------------------------------------
 # B3LYP/6-311++G(d,p) empiricaldispersion=gd3bj scf=xqc pop=npa geom=c
 heck
 ----------------------------------------------------------------------

 -------------------------------------
 CID_64052777_JID_703_Energie_neutraal
 -------------------------------------
 Structure from the checkpoint file:  "JID_703.chk"
 Charge =  0 Multiplicity = 1

 SCF Done:  E(RB3LYP) =  -804.111197093     A.U. after   13 cycles
 Normal termination of Gaussian 16 at Tue Dec  8 12:50:06 2020.

 ----------------------------------------------------------------------
 # B3LYP/6-311++G(d,p) empiricaldispersion=gd3bj scf=xqc pop=npa geom=c
 heck
 ----------------------------------------------------------------------

 -----------------------------------
 CID_64052777_JID_703_Energie_kation
 -----------------------------------
 Structure from the checkpoint file:  "JID_703.chk"
 Charge =  1 Multiplicity = 2

 SCF Done:  E(UB3LYP) =  -803.842344237     A.U. after   18 cycles
 Normal termination of Gaussian 16 at Tue Dec  8 13:04:42 2020.
 Gaussian 16:  ES64L-G16RevA.03 25-Dec-2016

 ----------------------------------------------------------------------
 # B3LYP/6-311++G(d,p) empiricaldispersion=gd3bj scf=xqc pop=npa geom=c
 heck
 ----------------------------------------------------------------------

 ----------------------------------
 CID_64052777_JID_703_Energie_anion
 ----------------------------------
 Structure from the checkpoint file:  "JID_703.chk"
 Charge = -1 Multiplicity = 2

                         Standard orientation:
 ---------------------------------------------------------------------
 Center     Atomic      Atomic             Coordinates (Angstroms)
 Number     Number       Type             X           Y           Z
 ---------------------------------------------------------------------
      1          6           0        1.789848    2.005312    0.202611
      2          6           0        0.597601    1.251508   -0.400566
      3          6           0        1.050527    0.071442   -1.287910
      4         16           0        1.805026   -1.300152   -0.331075
      5          6           0        0.394959   -1.542921    0.818518
      6          6           0        0.022936   -0.227954    1.514510
      7          7           0       -0.363129    0.867705    0.636651
      8          6           0       -1.766897    1.077670    0.351478
      9          6           0       -2.455694    0.228869   -0.729024
     10          8           0       -2.525476   -1.160951   -0.429510
     11          1           0        2.442578    2.389067   -0.589942
     12          1           0        2.392520    1.351845    0.839025
     13          1           0        1.432182    2.846932    0.802882
     14          1           0        0.066326    1.948962   -1.062518
     15          1           0        0.203844   -0.329562   -1.853470
     16          1           0        1.811260    0.399912   -2.003083
     17          1           0        0.724397   -2.284657    1.553500
     18          1           0       -0.459911   -1.936084    0.263380
     19          1           0        0.877981    0.090119    2.126299
     20          1           0       -0.811843   -0.409147    2.203570
     21          1           0       -2.321565    0.950325    1.293704
     22          1           0       -1.903684    2.131128    0.061533
     23          1           0       -3.463366    0.642656   -0.903928
     24          1           0       -1.910313    0.297264   -1.674749
     25          1           0       -3.014803   -1.256223    0.402821
 ---------------------------------------------------------------------

 SCF Done:  E(UB3LYP) =  -804.097804876     A.U. after   29 cycles

 The electronic state is 2-A.
 Alpha  occ. eigenvalues --  -88.72968 -19.01041 -14.19081 -10.10115 -10.10042
 Alpha  occ. eigenvalues --  -10.09089 -10.08885 -10.08271 -10.08160 -10.05212
 Alpha  occ. eigenvalues --   -7.81604  -5.77976  -5.77654  -5.76977  -0.91181
 Alpha  occ. eigenvalues --   -0.81952  -0.69873  -0.67318  -0.63220  -0.58816
 Alpha  occ. eigenvalues --   -0.54219  -0.51979  -0.50356  -0.43505  -0.39734
 Alpha  occ. eigenvalues --   -0.37439  -0.36077  -0.35635  -0.33875  -0.33060
 Alpha  occ. eigenvalues --   -0.32255  -0.31132  -0.30886  -0.27775  -0.26903
 Alpha  occ. eigenvalues --   -0.26015  -0.25027  -0.24253  -0.22384  -0.22280
 Alpha  occ. eigenvalues --   -0.19700  -0.17619  -0.12373  -0.09126   0.04781
 Alpha virt. eigenvalues --    0.06885   0.07877   0.08786   0.09283   0.10124
 Alpha virt. eigenvalues --    0.10336   0.10986   0.11271   0.12683   0.13152
 Alpha virt. eigenvalues --    0.13358   0.13802   0.14456   0.15088   0.15369

  Beta  occ. eigenvalues --  -88.72966 -19.00990 -14.19079 -10.10097 -10.10012
  Beta  occ. eigenvalues --  -10.09078 -10.08860 -10.08230 -10.08149 -10.05190
  Beta  occ. eigenvalues --   -7.81603  -5.77975  -5.77652  -5.76973  -0.91068
  Beta  occ. eigenvalues --   -0.81927  -0.69848  -0.67287  -0.63153  -0.58763
  Beta  occ. eigenvalues --   -0.54160  -0.51915  -0.50289  -0.43440  -0.39668
  Beta  occ. eigenvalues --   -0.37390  -0.35995  -0.35591  -0.33828  -0.33015
  Beta  occ. eigenvalues --   -0.32201  -0.31096  -0.30844  -0.27734  -0.26876
  Beta  occ. eigenvalues --   -0.25979  -0.24989  -0.24206  -0.22349  -0.22216
  Beta  occ. eigenvalues --   -0.19677  -0.17558  -0.12344  -0.09079
  Beta virt. eigenvalues --    0.07251   0.08097   0.08587   0.09225   0.10083
  Beta virt. eigenvalues --    0.10594   0.10765   0.11180   0.11512   0.13090
  Beta virt. eigenvalues --    0.13671   0.13835   0.14124   0.14810   0.15246

 Mulliken charges and spin densities:
               1          2
     1  C    0.633081  -1.269259
     2  C   -0.949729   0.959241
     3  C    0.222634  -0.703637
     4  S   -0.010535  -0.014777
     5  C   -0.940893   0.210807
     6  C    0.965624  -1.025365
     7  N    0.018389   0.166242
     8  C    0.149560  -0.427796
     9  C    1.191097  -1.516352
    10  O   -0.304322   0.059692
    11  H   -0.114852   0.226222
    12  H    0.041900   0.093123
    13  H   -0.152051   0.320941
    14  H   -0.546178   0.733273
    15  H    0.170480  -0.007415
    16  H    0.089869   0.113011
    17  H   -0.088446   0.280339
    18  H    0.377472  -0.117312
    19  H    0.160241  -0.026429
    20  H   -0.315122   0.482937
    21  H   -0.550374   0.725431
    22  H   -0.196696   0.329718
    23  H   -0.659445   0.816995
    24  H   -0.021123   0.168962
    25  H   -0.170583   0.421408
 Sum of Mulliken charges =  -1.00000   1.00000

 Dipole moment (field-independent basis, Debye):
    X=              6.1143    Y=             -1.7415    Z=             -1.2180  Tot=              6.4731
 Quadrupole moment (field-independent basis, Debye-Ang):
   XX=           -130.6549   YY=           -112.4898   ZZ=           -101.5960
   XY=             -0.4310   XZ=              5.5594   YZ=              1.5686

 Summary of Natural Population Analysis:

                                       Natural Population
                Natural  -----------------------------------------------
    Atom  No    Charge         Core      Valence    Rydberg      Total
 -----------------------------------------------------------------------
      C    1   -0.29134      0.99964     2.28448    0.00721     3.29134
      C    2   -0.00826      0.99957     1.99416    0.01453     3.00826
      C    3   -0.25458      0.99956     2.24435    0.01067     3.25458
      S    4    0.07247      4.99964     2.91121    0.01668     7.92753
      C    5   -0.26038      0.99958     2.25080    0.01001     3.26038
      C    6   -0.08598      0.99959     2.07283    0.01357     3.08598
      N    7   -0.29294      0.99970     2.77418    0.01905     3.79294
      C    8   -0.09159      0.99959     2.07843    0.01356     3.09159
      C    9   -0.01750      0.99959     2.00506    0.01285     3.01750
      O   10   -0.37426      0.99990     3.36681    0.00755     4.37426
      H   11    0.09602      0.00000     0.40299    0.00099     0.40398
      H   12    0.10171      0.00000     0.39697    0.00133     0.39829
      H   13    0.10336      0.00000     0.39535    0.00129     0.39664
      H   14    0.10032      0.00000     0.39751    0.00217     0.39968
      H   15    0.10322      0.00000     0.39513    0.00165     0.39678
      H   16    0.10434      0.00000     0.39476    0.00090     0.39566
      H   17    0.10159      0.00000     0.39737    0.00104     0.39841
      H   18    0.11536      0.00000     0.38283    0.00180     0.38464
      H   19    0.08950      0.00000     0.40904    0.00146     0.41050
      H   20    0.10266      0.00000     0.39553    0.00180     0.39734
      H   21    0.09723      0.00000     0.39969    0.00308     0.40277
      H   22    0.09659      0.00000     0.40114    0.00228     0.40341
      H   23    0.07890      0.00000     0.41853    0.00257     0.42110
      H   24    0.08075      0.00000     0.41752    0.00172     0.41925
      H   25    0.23280      0.00000     0.25833    0.00887     0.26720
 =======================================================================
   * Total *    0.00000     13.99637    29.84500    0.15863    44.00000

 Normal termination of Gaussian 16 at Tue Dec  8 13:17:15 2020.
