 Gaussian 16, Revision A.03,

 -----------------------------------------------------------
 # opt freq B3LYP/6-31G(d) empiricaldispersion=gd3bj scf=xqc
 -----------------------------------------------------------

 -------------------------------
 CID_116161135_JID_7607_neutraal
 -------------------------------
 Symbolic Z-matrix:
 Charge =  0 Multiplicity = 1

 SCF Done:  E(RB3LYP) =  -787.076713065     A.U. after   14 cycles
 SCF Done:  E(RB3LYP) =  -787.080814486     A.U. after   13 cycles
 SCF Done:  E(RB3LYP) =  -787.075191482     A.U. after   14 cycles
 SCF Done:  E(RB3LYP) =  -787.080079247     A.U. after   12 cycles
 SCF Done:  E(RB3LYP) =  -787.082779647     A.U. after    9 cycles
 SCF Done:  E(RB3LYP) =  -787.083148406     A.U. after   11 cycles
 SCF Done:  E(RB3LYP) =  -787.083158459     A.U. after   12 cycles
 SCF Done:  E(RB3LYP) =  -787.083383626     A.U. after   11 cycles
 SCF Done:  E(RB3LYP) =  -787.083398152     A.U. after   10 cycles
 SCF Done:  E(RB3LYP) =  -787.083406258     A.U. after    9 cycles
 SCF Done:  E(RB3LYP) =  -787.083410142     A.U. after    9 cycles
 SCF Done:  E(RB3LYP) =  -787.083411566     A.U. after    9 cycles
 SCF Done:  E(RB3LYP) =  -787.083412028     A.U. after    7 cycles
 SCF Done:  E(RB3LYP) =  -787.083412207     A.U. after    7 cycles
 SCF Done:  E(RB3LYP) =  -787.083412249     A.U. after    7 cycles
 SCF Done:  E(RB3LYP) =  -787.083412275     A.U. after    6 cycles
 Optimization completed.
    -- Stationary point found.
 Normal termination of Gaussian 16 at Sun Dec 13 16:15:43 2020.

 --------------------------------------------------------------------
 #N Geom=AllCheck Guess=TCheck SCRF=Check GenChk RB3LYP/6-31G(d) Freq
 --------------------------------------------------------------------

 Structure from the checkpoint file:  "JID_7607.chk"
 -------------------------------
 CID_116161135_JID_7607_neutraal
 -------------------------------
 Charge =  0 Multiplicity = 1

 SCF Done:  E(RB3LYP) =  -787.083412275     A.U. after    1 cycles

  Exact polarizability: 151.953   1.919 154.209  -4.983   1.132 139.551
 Approx polarizability: 201.033   0.219 208.436  -4.984   2.465 219.507

                      1                      2                      3
                      A                      A                      A
 Frequencies --     18.8270                56.5405                57.7577
 Red. masses --      3.2007                 3.6873                 3.7226
 Frc consts  --      0.0007                 0.0069                 0.0073
 IR Inten    --      0.9195                 0.6480                 1.6015

                      4                      5                      6
                      A                      A                      A
 Frequencies --     75.1998                78.6443                89.9608
 Red. masses --      3.2269                 1.8982                 4.8443
 Frc consts  --      0.0108                 0.0069                 0.0231
 IR Inten    --      1.0227                 1.4961                 0.3802

                      7                      8                      9
                      A                      A                      A
 Frequencies --    102.5781               128.0679               140.8624
 Red. masses --      3.3025                 3.3361                 2.6287
 Frc consts  --      0.0205                 0.0322                 0.0307
 IR Inten    --      1.3501                 0.2226                 0.2154

                     10                     11                     12
                      A                      A                      A
 Frequencies --    178.8520               205.5974               210.5463
 Red. masses --      2.6998                 1.7028                 1.6544
 Frc consts  --      0.0509                 0.0424                 0.0432
 IR Inten    --      0.8802                 0.3972                 1.3844

                     13                     14                     15
                      A                      A                      A
 Frequencies --    234.7310               251.9816               267.0117
 Red. masses --      1.3628                 1.3695                 1.2855
 Frc consts  --      0.0442                 0.0512                 0.0540
 IR Inten    --      0.1775                 0.8972                 0.9363

                     16                     17                     18
                      A                      A                      A
 Frequencies --    280.5972               294.4298               306.7609
 Red. masses --      2.0642                 2.8733                 1.7938
 Frc consts  --      0.0958                 0.1468                 0.0995
 IR Inten    --      1.9179                 1.1166                 1.7407

                     19                     20                     21
                      A                      A                      A
 Frequencies --    320.4898               340.6177               360.3984
 Red. masses --      3.7678                 2.1925                 2.6778
 Frc consts  --      0.2280                 0.1499                 0.2049
 IR Inten    --      7.6499                 5.4608                 4.4215

                     22                     23                     24
                      A                      A                      A
 Frequencies --    405.2627               418.5315               443.1839
 Red. masses --      2.7762                 3.2216                 3.1063
 Frc consts  --      0.2686                 0.3325                 0.3595
 IR Inten    --      3.5119                 0.6015                 7.0944

                     25                     26                     27
                      A                      A                      A
 Frequencies --    468.4595               498.4820               513.5915
 Red. masses --      2.6266                 3.9983                 3.0868
 Frc consts  --      0.3396                 0.5854                 0.4797
 IR Inten    --      2.2273                14.9409                 0.6347

                     28                     29                     30
                      A                      A                      A
 Frequencies --    536.2234               556.8792               595.9215
 Red. masses --      2.1886                 2.7756                 3.0686
 Frc consts  --      0.3708                 0.5071                 0.6421
 IR Inten    --     22.9075                 0.3692                 8.8231

                     31                     32                     33
                      A                      A                      A
 Frequencies --    619.5091               625.7543               723.2487
 Red. masses --      1.6411                 2.0932                 4.0655
 Frc consts  --      0.3711                 0.4829                 1.2530
 IR Inten    --     49.2417                20.9807                26.5135

                     34                     35                     36
                      A                      A                      A
 Frequencies --    786.8443               806.4877               814.7208
 Red. masses --      2.7056                 1.2563                 1.9095
 Frc consts  --      0.9870                 0.4815                 0.7468
 IR Inten    --     18.0496                48.1282               117.8481

                     37                     38                     39
                      A                      A                      A
 Frequencies --    823.3332               844.8419               880.4598
 Red. masses --      2.0680                 1.9107                 2.3592
 Frc consts  --      0.8259                 0.8035                 1.0775
 IR Inten    --      4.9251                37.4785                16.1111

                     40                     41                     42
                      A                      A                      A
 Frequencies --    892.0687               921.1806               964.3313
 Red. masses --      2.0460                 2.0856                 1.9272
 Frc consts  --      0.9593                 1.0427                 1.0559
 IR Inten    --      4.8420                15.9831                 3.3773

                     43                     44                     45
                      A                      A                      A
 Frequencies --    967.6738               992.6524              1000.8085
 Red. masses --      2.5096                 1.4133                 2.0838
 Frc consts  --      1.3846                 0.8205                 1.2297
 IR Inten    --      0.3174                 1.8205                 3.7170

                     46                     47                     48
                      A                      A                      A
 Frequencies --   1036.2186              1045.2448              1052.0061
 Red. masses --      2.5232                 2.2255                 2.4918
 Frc consts  --      1.5963                 1.4326                 1.6248
 IR Inten    --     29.2436                11.9498                 2.7236

                     49                     50                     51
                      A                      A                      A
 Frequencies --   1078.5106              1098.0216              1116.4910
 Red. masses --      2.1258                 2.4627                 1.9531
 Frc consts  --      1.4569                 1.7494                 1.4345
 IR Inten    --     21.0933                26.6813                 1.4034

                     52                     53                     54
                      A                      A                      A
 Frequencies --   1132.3894              1139.4156              1150.6459
 Red. masses --      2.4286                 2.6997                 3.4232
 Frc consts  --      1.8349                 2.0650                 2.6703
 IR Inten    --     23.5505                20.0845                18.1387

                     55                     56                     57
                      A                      A                      A
 Frequencies --   1154.9089              1187.3794              1191.0733
 Red. masses --      2.8991                 2.2590                 1.3012
 Frc consts  --      2.2783                 1.8765                 1.0876
 IR Inten    --    141.4089                31.9737                 4.6760

                     58                     59                     60
                      A                      A                      A
 Frequencies --   1201.1153              1204.0820              1207.4014
 Red. masses --      2.3931                 2.2660                 2.2669
 Frc consts  --      2.0342                 1.9356                 1.9471
 IR Inten    --     15.3873                 2.3600                19.0489

                     61                     62                     63
                      A                      A                      A
 Frequencies --   1232.4675              1242.0363              1282.2593
 Red. masses --      1.3895                 1.6670                 1.5181
 Frc consts  --      1.2436                 1.5152                 1.4707
 IR Inten    --     25.1239                12.7970                79.5868

                     64                     65                     66
                      A                      A                      A
 Frequencies --   1323.9935              1327.1628              1331.5799
 Red. masses --      1.2798                 1.3608                 1.2632
 Frc consts  --      1.3218                 1.4121                 1.3196
 IR Inten    --      8.5536                 5.6092                 9.3827

                     67                     68                     69
                      A                      A                      A
 Frequencies --   1354.4118              1363.2113              1390.2887
 Red. masses --      1.2784                 1.5057                 1.3984
 Frc consts  --      1.3818                 1.6486                 1.5926
 IR Inten    --      0.9001                30.5103                 3.8512

                     70                     71                     72
                      A                      A                      A
 Frequencies --   1398.6020              1401.9334              1409.4221
 Red. masses --      1.2790                 1.2632                 1.3701
 Frc consts  --      1.4741                 1.4628                 1.6035
 IR Inten    --     17.7111                 7.1703                 7.9550

                     73                     74                     75
                      A                      A                      A
 Frequencies --   1412.5414              1422.7392              1428.3726
 Red. masses --      1.2408                 1.2362                 1.2609
 Frc consts  --      1.4586                 1.4744                 1.5157
 IR Inten    --      5.0213                 7.9024                18.6897

                     76                     77                     78
                      A                      A                      A
 Frequencies --   1430.6360              1438.7482              1447.6510
 Red. masses --      1.2389                 1.2873                 1.7377
 Frc consts  --      1.4940                 1.5700                 2.1456
 IR Inten    --      5.2424                13.0764                30.1050

                     79                     80                     81
                      A                      A                      A
 Frequencies --   1454.6532              1496.1937              1500.1902
 Red. masses --      1.2375                 1.1068                 1.4023
 Frc consts  --      1.5429                 1.4598                 1.8595
 IR Inten    --      1.5794                 2.1939                35.3242

                     82                     83                     84
                      A                      A                      A
 Frequencies --   1500.9288              1502.5512              1507.9809
 Red. masses --      1.2804                 1.1139                 1.1088
 Frc consts  --      1.6995                 1.4817                 1.4855
 IR Inten    --     22.6674                 4.4221                 4.2598

                     85                     86                     87
                      A                      A                      A
 Frequencies --   1514.6215              1517.8583              1521.4705
 Red. masses --      1.1407                 1.0508                 1.0591
 Frc consts  --      1.5418                 1.4264                 1.4446
 IR Inten    --      3.0348                 4.9082                 5.7631

                     88                     89                     90
                      A                      A                      A
 Frequencies --   1523.6714              1526.1746              1527.1682
 Red. masses --      1.0882                 1.0771                 1.0626
 Frc consts  --      1.4885                 1.4782                 1.4602
 IR Inten    --      4.1464                 2.1661                 7.2317

                     91                     92                     93
                      A                      A                      A
 Frequencies --   1533.1173              1536.6172              1543.4135
 Red. masses --      1.0591                 1.0656                 1.0566
 Frc consts  --      1.4666                 1.4824                 1.4829
 IR Inten    --     11.5176                 0.3833                 9.1042

                     94                     95                     96
                      A                      A                      A
 Frequencies --   1547.7666              1778.6460              2969.3092
 Red. masses --      1.0800                 8.1977                 1.0812
 Frc consts  --      1.5244                15.2799                 5.6163
 IR Inten    --      4.6356               287.3406                43.0837

                     97                     98                     99
                      A                      A                      A
 Frequencies --   2988.3230              3014.7160              3049.6756
 Red. masses --      1.0731                 1.0360                 1.0351
 Frc consts  --      5.6462                 5.5474                 5.6721
 IR Inten    --     58.7715                39.6448                23.8272

                    100                    101                    102
                      A                      A                      A
 Frequencies --   3054.4840              3056.8057              3059.6373
 Red. masses --      1.0775                 1.0686                 1.0599
 Frc consts  --      5.9228                 5.8830                 5.8457
 IR Inten    --     41.4286                15.5951                 7.9922

                    103                    104                    105
                      A                      A                      A
 Frequencies --   3065.5969              3066.5211              3068.4311
 Red. masses --      1.0463                 1.0753                 1.0708
 Frc consts  --      5.7934                 5.9575                 5.9401
 IR Inten    --     44.2105                 3.2894                79.4933

                    106                    107                    108
                      A                      A                      A
 Frequencies --   3076.9048              3100.5095              3102.9523
 Red. masses --      1.0655                 1.0893                 1.0843
 Frc consts  --      5.9434                 6.1697                 6.1511
 IR Inten    --     29.9693                23.2952                20.4642

                    109                    110                    111
                      A                      A                      A
 Frequencies --   3111.1374              3115.9871              3123.2487
 Red. masses --      1.0999                 1.1015                 1.1015
 Frc consts  --      6.2724                 6.3014                 6.3305
 IR Inten    --     38.7172                16.7545                41.4568

                    112                    113                    114
                      A                      A                      A
 Frequencies --   3128.2780              3133.1660              3133.9700
 Red. masses --      1.1019                 1.0998                 1.1001
 Frc consts  --      6.3531                 6.3613                 6.3660
 IR Inten    --     24.4928                 6.5117                78.2622

                    115                    116                    117
                      A                      A                      A
 Frequencies --   3138.9285              3150.0305              3153.1459
 Red. masses --      1.0974                 1.0977                 1.0988
 Frc consts  --      6.3704                 6.4177                 6.4367
 IR Inten    --     27.3729                 2.9936                31.8380

                    118                    119                    120
                      A                      A                      A
 Frequencies --   3157.8982              3449.6325              3579.4117
 Red. masses --      1.1019                 1.0734                 1.0756
 Frc consts  --      6.4741                 7.5262                 8.1196
 IR Inten    --     16.9930                 5.5773                14.9741

 - Thermochemistry -
 -------------------
 Temperature   298.150 Kelvin.  Pressure   1.00000 Atm.
 Atom     1 has atomic number  6 and mass  12.00000

 Molecular mass:   243.19468 amu.
 Principal axes and moments of inertia in atomic units:
                           1         2         3
     Eigenvalues --  3589.617174475.301876000.15820
           X            0.99959  -0.01554  -0.02387
           Y            0.01608   0.99962   0.02240
           Z            0.02352  -0.02277   0.99946
 This molecule is an asymmetric top.
 Rotational symmetry number  1.
 Warning -- assumption of classical behavior for rotation
           may cause significant error
 Rotational temperatures (Kelvin)      0.02413     0.01935     0.01444
 Rotational constants (GHZ):           0.50277     0.40327     0.30078
 Zero-point vibrational energy     997778.8 (Joules/Mol)
                                  238.47485 (Kcal/Mol)
 Warning -- explicit consideration of  31 degrees of freedom as
           vibrations may cause significant error
 Vibrational temperatures:     27.09    81.35    83.10   108.20   113.15
          (Kelvin)            129.43   147.59   184.26   202.67   257.33
                              295.81   302.93   337.73   362.55   384.17
                              403.72   423.62   441.36   461.11   490.07
                              518.53   583.08   602.17   637.64   674.01
                              717.20   738.94   771.51   801.23   857.40
                              891.34   900.32  1040.59  1132.09  1160.36
                             1172.20  1184.59  1215.54  1266.79  1283.49
                             1325.37  1387.46  1392.27  1428.21  1439.94
                             1490.89  1503.87  1513.60  1551.74  1579.81
                             1606.38  1629.26  1639.36  1655.52  1661.66
                             1708.37  1713.69  1728.14  1732.41  1737.18
                             1773.25  1787.01  1844.89  1904.93  1909.49
                             1915.85  1948.70  1961.36  2000.32  2012.28
                             2017.07  2027.84  2032.33  2047.00  2055.11
                             2058.37  2070.04  2082.85  2092.92  2152.69
                             2158.44  2159.50  2161.84  2169.65  2179.20
                             2183.86  2189.06  2192.22  2195.82  2197.25
                             2205.81  2210.85  2220.63  2226.89  2559.07
                             4272.17  4299.53  4337.50  4387.80  4394.72
                             4398.06  4402.14  4410.71  4412.04  4414.79
                             4426.98  4460.94  4464.46  4476.23  4483.21
                             4493.66  4500.89  4507.93  4509.08  4516.22
                             4532.19  4536.67  4543.51  4963.25  5149.98

 Zero-point correction=                           0.380034 (Hartree/Particle)
 Thermal correction to Energy=                    0.399103
 Thermal correction to Enthalpy=                  0.400047
 Thermal correction to Gibbs Free Energy=         0.332520
 Sum of electronic and zero-point Energies=           -786.703378
 Sum of electronic and thermal Energies=              -786.684309
 Sum of electronic and thermal Enthalpies=            -786.683365
 Sum of electronic and thermal Free Energies=         -786.750892

                     E (Thermal)             CV                S
                      KCal/Mol        Cal/Mol-Kelvin    Cal/Mol-Kelvin
 Total                  250.441             71.773            142.123
 Electronic               0.000              0.000              0.000
 Translational            0.889              2.981             42.367
 Rotational               0.889              2.981             32.933
 Vibrational            248.664             65.811             66.823
 Vibration     1          0.593              1.986              6.754
 Vibration     2          0.596              1.975              4.574
 Vibration     3          0.596              1.974              4.532
 Vibration     4          0.599              1.966              4.012
 Vibration     5          0.600              1.964              3.924
 Vibration     6          0.602              1.956              3.661
 Vibration     7          0.605              1.947              3.405
 Vibration     8          0.611              1.925              2.975
 Vibration     9          0.615              1.912              2.792
 Vibration    10          0.629              1.868              2.340
 Vibration    11          0.640              1.832              2.082
 Vibration    12          0.643              1.825              2.039
 Vibration    13          0.655              1.788              1.842
 Vibration    14          0.664              1.759              1.717
 Vibration    15          0.672              1.734              1.615
 Vibration    16          0.680              1.710              1.530
 Vibration    17          0.689              1.684              1.448
 Vibration    18          0.697              1.661              1.380
 Vibration    19          0.706              1.634              1.308
 Vibration    20          0.720              1.594              1.209
 Vibration    21          0.735              1.554              1.120
 Vibration    22          0.770              1.459              0.944
 Vibration    23          0.781              1.430              0.897
 Vibration    24          0.803              1.376              0.817
 Vibration    25          0.826              1.320              0.742
 Vibration    26          0.854              1.253              0.662
 Vibration    27          0.869              1.220              0.625
 Vibration    28          0.891              1.170              0.573
 Vibration    29          0.912              1.125              0.530
 Vibration    30          0.954              1.040              0.457
 Vibration    31          0.979              0.991              0.417

 Optimization completed.
    -- Stationary point found.
 Normal termination of Gaussian 16 at Sun Dec 13 16:38:14 2020.

 ----------------------------------------------------------------------
 # B3LYP/6-311++G(d,p) empiricaldispersion=gd3bj scf=xqc pop=npa geom=c
 heck
 ----------------------------------------------------------------------

 ---------------------------------------
 CID_116161135_JID_7607_Energie_neutraal
 ---------------------------------------
 Structure from the checkpoint file:  "JID_7607.chk"
 Charge =  0 Multiplicity = 1

 SCF Done:  E(RB3LYP) =  -787.314240101     A.U. after   15 cycles
 Normal termination of Gaussian 16 at Sun Dec 13 16:49:03 2020.

 ----------------------------------------------------------------------
 # B3LYP/6-311++G(d,p) empiricaldispersion=gd3bj scf=xqc pop=npa geom=c
 heck
 ----------------------------------------------------------------------

 -------------------------------------
 CID_116161135_JID_7607_Energie_kation
 -------------------------------------
 Structure from the checkpoint file:  "JID_7607.chk"
 Charge =  1 Multiplicity = 2

 SCF Done:  E(UB3LYP) =  -787.048933876     A.U. after   21 cycles
 Normal termination of Gaussian 16 at Sun Dec 13 17:11:01 2020.
 Gaussian 16:  ES64L-G16RevA.03 25-Dec-2016

 ----------------------------------------------------------------------
 # B3LYP/6-311++G(d,p) empiricaldispersion=gd3bj scf=xqc pop=npa geom=c
 heck
 ----------------------------------------------------------------------

 ------------------------------------
 CID_116161135_JID_7607_Energie_anion
 ------------------------------------
 Structure from the checkpoint file:  "JID_7607.chk"
 Charge = -1 Multiplicity = 2

                         Standard orientation:
 ---------------------------------------------------------------------
 Center     Atomic      Atomic             Coordinates (Angstroms)
 Number     Number       Type             X           Y           Z
 ---------------------------------------------------------------------
      1          6           0        2.762717   -2.923377   -1.006199
      2          6           0        1.316538   -2.529218   -0.696778
      3          7           0        1.117145   -2.104112    0.683867
      4          6           0        1.232786   -0.840187    1.191536
      5          8           0        1.186321   -0.628325    2.399189
      6          6           0        1.391583    0.299282    0.181700
      7          6           0        2.013379    1.544883    0.839666
      8          7           0        2.200635    2.637410   -0.120146
      9          6           0        0.957961    2.932269   -0.840001
     10          6           0        0.300761    1.686472   -1.463553
     11          7           0        0.132990    0.564740   -0.535108
     12          6           0       -1.134363    0.481445    0.211443
     13          6           0       -1.544948    1.717601    1.026424
     14          6           0       -2.278358    0.060523   -0.747940
     15          6           0       -1.958708   -1.198417   -1.553511
     16          8           0       -3.525405   -0.041848   -0.052003
     17          6           0       -3.637473   -1.094081    0.887417
     18          1           0        3.439827   -2.076966   -0.847655
     19          1           0        2.859095   -3.250643   -2.047801
     20          1           0        3.094131   -3.743601   -0.359524
     21          1           0        0.976160   -1.720514   -1.345403
     22          1           0        0.647255   -3.376695   -0.883592
     23          1           0        1.079536   -2.818813    1.401767
     24          1           0        2.110099   -0.022787   -0.591214
     25          1           0        2.984005    1.288682    1.277755
     26          1           0        1.378869    1.893681    1.657961
     27          1           0        2.911036    2.356598   -0.797733
     28          1           0        0.270626    3.405282   -0.131234
     29          1           0        1.174297    3.668901   -1.623455
     30          1           0        0.938538    1.339864   -2.293390
     31          1           0       -0.670511    1.942740   -1.898182
     32          1           0       -1.003120   -0.344070    0.915448
     33          1           0       -1.719624    2.583855    0.378922
     34          1           0       -2.479797    1.518361    1.556098
     35          1           0       -0.779589    1.977510    1.761243
     36          1           0       -2.468943    0.881363   -1.449437
     37          1           0       -1.613229   -2.014517   -0.910379
     38          1           0       -2.853003   -1.528987   -2.092089
     39          1           0       -1.167375   -0.992819   -2.277210
     40          1           0       -3.508281   -2.083416    0.427212
     41          1           0       -2.923937   -1.000589    1.718668
     42          1           0       -4.650038   -1.030474    1.294229
 ---------------------------------------------------------------------

 SCF Done:  E(UB3LYP) =  -787.306011414     A.U. after   31 cycles

 The electronic state is 2-A.
 Alpha  occ. eigenvalues --  -19.03578 -18.99551 -14.24078 -14.21663 -14.20644
 Alpha  occ. eigenvalues --  -10.17845 -10.13057 -10.12471 -10.11339 -10.11160
 Alpha  occ. eigenvalues --  -10.10842 -10.10310 -10.10023 -10.09516 -10.06844
 Alpha  occ. eigenvalues --  -10.06413 -10.06402  -0.94703  -0.94615  -0.85125
 Alpha  occ. eigenvalues --   -0.82764  -0.80024  -0.69670  -0.67726  -0.65686
 Alpha  occ. eigenvalues --   -0.64614  -0.60556  -0.59088  -0.56921  -0.54276
 Alpha  occ. eigenvalues --   -0.53501  -0.51042  -0.48546  -0.45951  -0.42791
 Alpha  occ. eigenvalues --   -0.40913  -0.39866  -0.39029  -0.38326  -0.37556
 Alpha  occ. eigenvalues --   -0.37044  -0.36011  -0.34896  -0.33953  -0.33883
 Alpha  occ. eigenvalues --   -0.33239  -0.32540  -0.32154  -0.31235  -0.30584
 Alpha  occ. eigenvalues --   -0.30451  -0.30083  -0.28869  -0.28167  -0.27452
 Alpha  occ. eigenvalues --   -0.26868  -0.26367  -0.26150  -0.25526  -0.25225
 Alpha  occ. eigenvalues --   -0.24058  -0.21276  -0.17752  -0.17002  -0.16183
 Alpha  occ. eigenvalues --   -0.15687  -0.10620   0.03942
 Alpha virt. eigenvalues --    0.06022   0.06487   0.07552   0.07825   0.08269
 Alpha virt. eigenvalues --    0.09057   0.09247   0.09560   0.09782   0.10683
 Alpha virt. eigenvalues --    0.10866   0.11138   0.11862   0.12001   0.12269

  Beta  occ. eigenvalues --  -19.03577 -18.99544 -14.24064 -14.21662 -14.20626
  Beta  occ. eigenvalues --  -10.17838 -10.13053 -10.12456 -10.11322 -10.11156
  Beta  occ. eigenvalues --  -10.10813 -10.10287 -10.10016 -10.09512 -10.06842
  Beta  occ. eigenvalues --  -10.06393 -10.06351  -0.94694  -0.94602  -0.85106
  Beta  occ. eigenvalues --   -0.82734  -0.79995  -0.69655  -0.67698  -0.65627
  Beta  occ. eigenvalues --   -0.64597  -0.60527  -0.59059  -0.56888  -0.54185
  Beta  occ. eigenvalues --   -0.53474  -0.50992  -0.48512  -0.45916  -0.42771
  Beta  occ. eigenvalues --   -0.40888  -0.39808  -0.38998  -0.38304  -0.37534
  Beta  occ. eigenvalues --   -0.37022  -0.35990  -0.34855  -0.33920  -0.33852
  Beta  occ. eigenvalues --   -0.33217  -0.32506  -0.32139  -0.31207  -0.30558
  Beta  occ. eigenvalues --   -0.30440  -0.30058  -0.28834  -0.28119  -0.27410
  Beta  occ. eigenvalues --   -0.26846  -0.26344  -0.26113  -0.25484  -0.25209
  Beta  occ. eigenvalues --   -0.24036  -0.21262  -0.17739  -0.16988  -0.16157
  Beta  occ. eigenvalues --   -0.15661  -0.10585
  Beta virt. eigenvalues --    0.06214   0.06777   0.07040   0.07901   0.08323
  Beta virt. eigenvalues --    0.08647   0.09304   0.09488   0.09816   0.10107
  Beta virt. eigenvalues --    0.10934   0.11184   0.11448   0.12090   0.12305

 Mulliken charges and spin densities:
               1          2
     1  C    1.546010  -2.110641
     2  C   -0.619217   0.635626
     3  N   -0.222810   0.044729
     4  C   -0.688550   0.296311
     5  O   -0.237080   0.001740
     6  C    0.064126  -0.078090
     7  C   -0.039540  -0.670003
     8  N   -0.034303   0.028378
     9  C   -0.002806  -0.597419
    10  C    0.435893  -0.319532
    11  N    0.404329   0.121371
    12  C   -0.670782  -0.175885
    13  C   -0.294729  -0.101434
    14  C   -0.848329   0.369793
    15  C    0.081220  -0.407878
    16  O   -0.026450   0.006702
    17  C    0.064091  -0.317124
    18  H   -0.472856   0.610688
    19  H   -0.389993   0.537291
    20  H   -0.228375   0.375801
    21  H    0.745223  -0.598149
    22  H   -1.002496   1.203100
    23  H    0.077491   0.237039
    24  H    0.405455  -0.182724
    25  H    0.065407   0.125972
    26  H    0.248641  -0.034826
    27  H    0.016248   0.214707
    28  H    0.176309  -0.021035
    29  H   -0.116976   0.298447
    30  H   -0.562893   0.756842
    31  H    0.159390  -0.046822
    32  H    0.487839  -0.250477
    33  H    0.155687   0.004044
    34  H    0.163625  -0.021602
    35  H    0.094767   0.030243
    36  H    0.096494   0.075360
    37  H    0.268736  -0.118722
    38  H   -0.175865   0.360798
    39  H   -0.116185   0.263242
    40  H   -0.080385   0.221984
    41  H    0.023051   0.123326
    42  H    0.050584   0.108830
 Sum of Mulliken charges =  -1.00000   1.00000

 Dipole moment (field-independent basis, Debye):
    X=             -4.7430    Y=              5.2810    Z=              2.8668  Tot=              7.6552
 Quadrupole moment (field-independent basis, Debye-Ang):
   XX=           -166.8451   YY=           -172.2099   ZZ=           -155.3031
   XY=              1.4996   XZ=              4.2331   YZ=             -6.2594

 Summary of Natural Population Analysis:

                                       Natural Population
                Natural  -----------------------------------------------
    Atom  No    Charge         Core      Valence    Rydberg      Total
 -----------------------------------------------------------------------
      C    1   -0.28788      0.99966     2.28342    0.00480     3.28788
      C    2   -0.09636      0.99962     2.08546    0.01127     3.09636
      N    3   -0.31203      0.99966     2.80160    0.01077     3.81203
      C    4    0.34249      0.99963     1.63414    0.02374     2.65751
      O    5   -0.32590      0.99988     3.32079    0.00523     4.32590
      C    6   -0.05268      0.99953     2.03912    0.01404     3.05268
      C    7   -0.09331      0.99960     2.08162    0.01208     3.09331
      N    8   -0.33532      0.99976     2.82346    0.01210     3.83532
      C    9   -0.09786      0.99962     2.08733    0.01091     3.09786
      C   10   -0.09488      0.99960     2.08326    0.01202     3.09488
      N   11   -0.28990      0.99971     2.77372    0.01647     3.78990
      C   12   -0.01622      0.99955     2.00471    0.01196     3.01622
      C   13   -0.29698      0.99964     2.29165    0.00569     3.29698
      C   14    0.06950      0.99953     1.91564    0.01532     2.93050
      C   15   -0.30128      0.99964     2.29571    0.00594     3.30128
      O   16   -0.30472      0.99989     3.29556    0.00927     4.30472
      C   17   -0.10378      0.99960     2.09485    0.00933     3.10378
      H   18    0.09760      0.00000     0.40081    0.00159     0.40240
      H   19    0.10413      0.00000     0.39411    0.00177     0.39587
      H   20    0.09850      0.00000     0.39988    0.00163     0.40150
      H   21    0.10630      0.00000     0.39058    0.00311     0.39370
      H   22    0.09890      0.00000     0.39838    0.00273     0.40110
      H   23    0.19409      0.00000     0.30372    0.00219     0.30591
      H   24    0.10186      0.00000     0.39530    0.00284     0.39814
      H   25    0.09926      0.00000     0.39993    0.00081     0.40074
      H   26    0.09700      0.00000     0.40182    0.00118     0.40300
      H   27    0.17065      0.00000     0.32683    0.00253     0.32935
      H   28    0.08916      0.00000     0.40968    0.00117     0.41084
      H   29    0.09456      0.00000     0.40459    0.00085     0.40544
      H   30    0.09537      0.00000     0.40251    0.00212     0.40463
      H   31    0.09637      0.00000     0.40248    0.00115     0.40363
      H   32    0.10229      0.00000     0.39519    0.00253     0.39771
      H   33    0.09430      0.00000     0.40480    0.00090     0.40570
      H   34    0.10549      0.00000     0.39361    0.00089     0.39451
      H   35    0.10167      0.00000     0.39747    0.00087     0.39833
      H   36    0.08685      0.00000     0.41148    0.00168     0.41315
      H   37    0.09997      0.00000     0.39798    0.00204     0.40003
      H   38    0.10110      0.00000     0.39802    0.00088     0.39890
      H   39    0.11037      0.00000     0.38826    0.00137     0.38963
      H   40    0.08361      0.00000     0.41530    0.00109     0.41639
      H   41    0.07957      0.00000     0.41952    0.00091     0.42043
      H   42    0.08815      0.00000     0.41107    0.00078     0.41185
 =======================================================================
   * Total *    0.00000     16.99411    49.77535    0.23054    67.00000

 Normal termination of Gaussian 16 at Sun Dec 13 17:40:47 2020.
