 Gaussian 16, Revision A.03,

 -----------------------------------------------------------
 # opt freq B3LYP/6-31G(d) empiricaldispersion=gd3bj scf=xqc
 -----------------------------------------------------------

 ------------------------------
 CID_148427721_JID_769_neutraal
 ------------------------------
 Symbolic Z-matrix:
 Charge =  0 Multiplicity = 1

 SCF Done:  E(RB3LYP) =  -752.043383542     A.U. after   13 cycles
 SCF Done:  E(RB3LYP) =  -752.045237924     A.U. after   11 cycles
 SCF Done:  E(RB3LYP) =  -752.045279146     A.U. after   10 cycles
 SCF Done:  E(RB3LYP) =  -752.045388874     A.U. after   10 cycles
 SCF Done:  E(RB3LYP) =  -752.045418071     A.U. after    9 cycles
 SCF Done:  E(RB3LYP) =  -752.045424541     A.U. after    8 cycles
 SCF Done:  E(RB3LYP) =  -752.045425289     A.U. after    8 cycles
 SCF Done:  E(RB3LYP) =  -752.045425626     A.U. after    7 cycles
 SCF Done:  E(RB3LYP) =  -752.045425646     A.U. after    6 cycles
 SCF Done:  E(RB3LYP) =  -752.045425700     A.U. after    6 cycles
 Optimization completed.
    -- Stationary point found.

 1\1\GINC-NODE120\FOpt\RB3LYP\6-31G(d)\C9H18S1\VSC10255\08-Dec-2020\0\\
 # opt freq B3LYP/6-31G(d) empiricaldispersion=gd3bj scf=xqc\\CID_14842
 7721_JID_769_neutraal\\0,1\C,1.0190113466,-0.0209685877,0.004140274\C,
 0.5192737647,0.5170653207,-1.338729546\C,-0.4311801363,1.720258302,-1.
 2097501218\C,-0.9972040602,2.1519883047,-2.5791335648\C,0.0775565946,3
 .0886083132,-3.1442527085\C,0.540113468,3.9264896382,-1.9267139345\C,0
 .2753845298,3.0028163199,-0.6923023634\C,-0.3200376315,5.2003635338,-1
 .8131580734\C,2.0042108832,4.393949058,-2.0392839259\S,3.3050270371,3.

 Normal termination of Gaussian 16 at Tue Dec  8 12:40:48 2020.

 --------------------------------------------------------------------
 #N Geom=AllCheck Guess=TCheck SCRF=Check GenChk RB3LYP/6-31G(d) Freq
 --------------------------------------------------------------------

 Structure from the checkpoint file:  "JID_769.chk"
 ------------------------------
 CID_148427721_JID_769_neutraal
 ------------------------------
 Charge =  0 Multiplicity = 1

 SCF Done:  E(RB3LYP) =  -752.045425700     A.U. after    1 cycles

  Exact polarizability: 113.788  -4.663 112.248  -0.101   0.931  94.527
 Approx polarizability: 150.303  -6.094 157.773   2.109   3.267 144.813

                      1                      2                      3
                      A                      A                      A
 Frequencies --     43.8929               106.6624               118.2945
 Red. masses --      3.9714                 2.5076                 1.7494
 Frc consts  --      0.0045                 0.0168                 0.0144
 IR Inten    --      0.1907                 1.3050                 1.4124

                      4                      5                      6
                      A                      A                      A
 Frequencies --    151.2634               201.6255               218.5945
 Red. masses --      2.2968                 3.1267                 1.5335
 Frc consts  --      0.0310                 0.0749                 0.0432
 IR Inten    --      2.8261                 0.6720                10.7493

                      7                      8                      9
                      A                      A                      A
 Frequencies --    239.6684               259.5769               278.2252
 Red. masses --      1.2613                 1.8303                 1.0523
 Frc consts  --      0.0427                 0.0727                 0.0480
 IR Inten    --     13.6794                 0.3463                 0.2103

                     10                     11                     12
                      A                      A                      A
 Frequencies --    301.0949               326.6610               371.2450
 Red. masses --      2.0697                 2.5348                 2.3011
 Frc consts  --      0.1106                 0.1594                 0.1869
 IR Inten    --      1.3229                 0.0817                 0.1660

                     13                     14                     15
                      A                      A                      A
 Frequencies --    404.5088               430.4746               458.8481
 Red. masses --      2.0957                 2.1982                 2.1789
 Frc consts  --      0.2020                 0.2400                 0.2703
 IR Inten    --      0.3487                 0.3694                 0.0821

                     16                     17                     18
                      A                      A                      A
 Frequencies --    562.8310               649.9140               721.9843
 Red. masses --      3.5734                 2.3589                 2.7357
 Frc consts  --      0.6669                 0.5870                 0.8402
 IR Inten    --      0.9853                 4.1600                 9.0226

                     19                     20                     21
                      A                      A                      A
 Frequencies --    757.3838               783.5215               793.4590
 Red. masses --      1.9105                 2.2210                 1.7491
 Frc consts  --      0.6457                 0.8033                 0.6488
 IR Inten    --      0.7388                 1.2982                 0.8324

                     22                     23                     24
                      A                      A                      A
 Frequencies --    822.4693               867.1536               894.8920
 Red. masses --      1.5708                 1.8716                 1.8972
 Frc consts  --      0.6260                 0.8292                 0.8952
 IR Inten    --      1.1778                 1.2650                 2.5326

                     25                     26                     27
                      A                      A                      A
 Frequencies --    924.3125               950.0434               962.0862
 Red. masses --      1.8259                 2.4568                 1.6804
 Frc consts  --      0.9191                 1.3065                 0.9164
 IR Inten    --      1.5632                 1.1562                 4.8462

                     28                     29                     30
                      A                      A                      A
 Frequencies --    982.1833               997.7802              1032.1879
 Red. masses --      1.5698                 1.6318                 1.5252
 Frc consts  --      0.8922                 0.9571                 0.9574
 IR Inten    --      0.4681                 7.2403                 2.7333

                     31                     32                     33
                      A                      A                      A
 Frequencies --   1040.8348              1062.6072              1077.3643
 Red. masses --      1.9909                 1.4898                 1.8561
 Frc consts  --      1.2708                 0.9911                 1.2693
 IR Inten    --      0.1369                 0.4738                 0.2161

                     34                     35                     36
                      A                      A                      A
 Frequencies --   1110.9208              1154.1392              1169.9895
 Red. masses --      1.4398                 2.0086                 1.3801
 Frc consts  --      1.0469                 1.5764                 1.1131
 IR Inten    --      2.1715                 2.4332                 0.2531

                     37                     38                     39
                      A                      A                      A
 Frequencies --   1178.4200              1243.8205              1255.5741
 Red. masses --      1.6919                 1.9042                 1.5760
 Frc consts  --      1.3842                 1.7357                 1.4638
 IR Inten    --      5.4025                 0.9496                 4.0397

                     40                     41                     42
                      A                      A                      A
 Frequencies --   1271.2944              1282.1797              1318.2700
 Red. masses --      1.3860                 1.4331                 1.3776
 Frc consts  --      1.3198                 1.3881                 1.4105
 IR Inten    --      6.0931                 0.8412                 2.8212

                     43                     44                     45
                      A                      A                      A
 Frequencies --   1321.0161              1330.2620              1342.6512
 Red. masses --      1.3169                 1.3212                 1.3993
 Frc consts  --      1.3540                 1.3775                 1.4862
 IR Inten    --      0.1174                 6.5913                 1.5638

                     46                     47                     48
                      A                      A                      A
 Frequencies --   1370.6697              1378.2626              1380.6623
 Red. masses --      1.3511                 1.4161                 1.5020
 Frc consts  --      1.4956                 1.5849                 1.6870
 IR Inten    --      4.9059                 1.5225                 2.5866

                     49                     50                     51
                      A                      A                      A
 Frequencies --   1417.9803              1437.4380              1441.8557
 Red. masses --      1.4430                 1.2213                 1.2473
 Frc consts  --      1.7095                 1.4868                 1.5278
 IR Inten    --      0.9429                 3.9220                 4.3232

                     52                     53                     54
                      A                      A                      A
 Frequencies --   1493.8648              1515.4895              1519.9484
 Red. masses --      1.0870                 1.0697                 1.0667
 Frc consts  --      1.4293                 1.4475                 1.4519
 IR Inten    --      2.5289                 1.3979                 3.4024

                     55                     56                     57
                      A                      A                      A
 Frequencies --   1524.2357              1529.7766              1532.3959
 Red. masses --      1.0647                 1.0476                 1.0628
 Frc consts  --      1.4574                 1.4444                 1.4704
 IR Inten    --      5.6602                 6.8361                 1.3223

                     58                     59                     60
                      A                      A                      A
 Frequencies --   1533.2850              1536.7167              1539.8340
 Red. masses --      1.0659                 1.0716                 1.0970
 Frc consts  --      1.4765                 1.4910                 1.5325
 IR Inten    --      4.0092                 3.7506                 1.5195

                     61                     62                     63
                      A                      A                      A
 Frequencies --   2683.8839              3032.7767              3035.6556
 Red. masses --      1.0383                 1.0744                 1.0670
 Frc consts  --      4.4067                 5.8225                 5.7931
 IR Inten    --     18.8587                 9.5634                22.0315

                     64                     65                     66
                      A                      A                      A
 Frequencies --   3039.1849              3041.8803              3048.5035
 Red. masses --      1.0370                 1.0372                 1.0676
 Frc consts  --      5.6432                 5.6543                 5.8455
 IR Inten    --     21.9518                29.9480                45.0600

                     67                     68                     69
                      A                      A                      A
 Frequencies --   3061.0202              3064.6002              3069.5967
 Red. masses --      1.0623                 1.0619                 1.0617
 Frc consts  --      5.8643                 5.8758                 5.8943
 IR Inten    --     36.3558                16.7529                28.7462

                     70                     71                     72
                      A                      A                      A
 Frequencies --   3076.3437              3090.4750              3095.2337
 Red. masses --      1.0970                 1.0990                 1.1030
 Frc consts  --      6.1166                 6.1846                 6.2260
 IR Inten    --     18.3255                24.4914                29.0854

                     73                     74                     75
                      A                      A                      A
 Frequencies --   3103.9680              3107.6261              3109.1708
 Red. masses --      1.1028                 1.1024                 1.1034
 Frc consts  --      6.2603                 6.2729                 6.2845
 IR Inten    --     33.1527                55.1255                26.2998

                     76                     77                     78
                      A                      A                      A
 Frequencies --   3112.6227              3114.2694              3115.3159
 Red. masses --      1.1014                 1.1016                 1.1058
 Frc consts  --      6.2869                 6.2949                 6.3234
 IR Inten    --     42.2315                47.6955                27.8790

 - Thermochemistry -
 -------------------
 Temperature   298.150 Kelvin.  Pressure   1.00000 Atm.
 Atom     1 has atomic number  6 and mass  12.00000

 Molecular mass:   158.11292 amu.
 Principal axes and moments of inertia in atomic units:
                           1         2         3
     Eigenvalues --  1471.537001876.159712691.27651
           X            0.99077  -0.13546  -0.00394
           Y            0.13537   0.99062  -0.01872
           Z            0.00644   0.01802   0.99982
 This molecule is an asymmetric top.
 Rotational symmetry number  1.
 Warning -- assumption of classical behavior for rotation
           may cause significant error
 Rotational temperatures (Kelvin)      0.05886     0.04617     0.03218
 Rotational constants (GHZ):           1.22643     0.96193     0.67059
 Zero-point vibrational energy     669470.5 (Joules/Mol)
                                  160.00728 (Kcal/Mol)
 Warning -- explicit consideration of  16 degrees of freedom as
           vibrations may cause significant error
 Vibrational temperatures:     63.15   153.46   170.20   217.63   290.09
          (Kelvin)            314.51   344.83   373.47   400.30   433.21
                              469.99   534.14   582.00   619.36   660.18
                              809.79   935.08  1038.77  1089.71  1127.31
                             1141.61  1183.35  1247.64  1287.55  1329.88
                             1366.90  1384.23  1413.14  1435.58  1485.09
                             1497.53  1528.85  1550.09  1598.37  1660.55
                             1683.35  1695.48  1789.58  1806.49  1829.11
                             1844.77  1896.70  1900.65  1913.95  1931.78
                             1972.09  1983.01  1986.47  2040.16  2068.15
                             2074.51  2149.34  2180.45  2186.87  2193.04
                             2201.01  2204.78  2206.06  2210.99  2215.48
                             3861.51  4363.49  4367.63  4372.71  4376.59
                             4386.12  4404.13  4409.28  4416.46  4426.17
                             4446.50  4453.35  4465.92  4471.18  4473.40
                             4478.37  4480.74  4482.24

 Zero-point correction=                           0.254988 (Hartree/Particle)
 Thermal correction to Energy=                    0.266686
 Thermal correction to Enthalpy=                  0.267630
 Thermal correction to Gibbs Free Energy=         0.217782
 Sum of electronic and zero-point Energies=           -751.790438
 Sum of electronic and thermal Energies=              -751.778740
 Sum of electronic and thermal Enthalpies=            -751.777796
 Sum of electronic and thermal Free Energies=         -751.827643

                     E (Thermal)             CV                S
                      KCal/Mol        Cal/Mol-Kelvin    Cal/Mol-Kelvin
 Total                  167.348             45.003            104.913
 Electronic               0.000              0.000              0.000
 Translational            0.889              2.981             41.084
 Rotational               0.889              2.981             30.386
 Vibrational            165.570             39.041             33.443
 Vibration     1          0.595              1.980              5.075
 Vibration     2          0.606              1.944              3.329
 Vibration     3          0.608              1.934              3.128
 Vibration     4          0.619              1.901              2.656
 Vibration     5          0.639              1.838              2.118
 Vibration     6          0.646              1.813              1.971
 Vibration     7          0.657              1.780              1.805
 Vibration     8          0.668              1.747              1.665
 Vibration     9          0.679              1.714              1.545
 Vibration    10          0.693              1.672              1.411
 Vibration    11          0.710              1.622              1.277
 Vibration    12          0.743              1.531              1.075
 Vibration    13          0.770              1.460              0.946
 Vibration    14          0.792              1.404              0.857
 Vibration    15          0.817              1.341              0.769
 Vibration    16          0.919              1.112              0.518

 Optimization completed.
    -- Stationary point found.

 1\1\GINC-NODE120\Freq\RB3LYP\6-31G(d)\C9H18S1\VSC10255\08-Dec-2020\0\\
 #N Geom=AllCheck Guess=TCheck SCRF=Check GenChk RB3LYP/6-31G(d) Freq\\
 CID_148427721_JID_769_neutraal\\0,1\C,1.0190113466,-0.0209685877,0.004
 140274\C,0.5192737647,0.5170653207,-1.338729546\C,-0.4311801363,1.7202
 58302,-1.2097501218\C,-0.9972040602,2.1519883047,-2.5791335648\C,0.077
 5565946,3.0886083132,-3.1442527085\C,0.540113468,3.9264896382,-1.92671
 39345\C,0.2753845298,3.0028163199,-0.6923023634\C,-0.3200376315,5.2003
 635338,-1.8131580734\C,2.0042108832,4.393949058,-2.0392839259\S,3.3050

 Normal termination of Gaussian 16 at Tue Dec  8 12:49:34 2020.

 ----------------------------------------------------------------------
 # B3LYP/6-311++G(d,p) empiricaldispersion=gd3bj scf=xqc pop=npa geom=c
 heck
 ----------------------------------------------------------------------

 --------------------------------------
 CID_148427721_JID_769_Energie_neutraal
 --------------------------------------
 Structure from the checkpoint file:  "JID_769.chk"
 Charge =  0 Multiplicity = 1

 SCF Done:  E(RB3LYP) =  -752.172698247     A.U. after   13 cycles
 Normal termination of Gaussian 16 at Tue Dec  8 13:04:04 2020.

 ----------------------------------------------------------------------
 # B3LYP/6-311++G(d,p) empiricaldispersion=gd3bj scf=xqc pop=npa geom=c
 heck
 ----------------------------------------------------------------------

 ------------------------------------
 CID_148427721_JID_769_Energie_kation
 ------------------------------------
 Structure from the checkpoint file:  "JID_769.chk"
 Charge =  1 Multiplicity = 2

 SCF Done:  E(UB3LYP) =  -751.846416494     A.U. after   21 cycles
 Normal termination of Gaussian 16 at Tue Dec  8 13:12:50 2020.
 Gaussian 16:  ES64L-G16RevA.03 25-Dec-2016

 -----------------------------------
 CID_148427721_JID_769_Energie_anion
 -----------------------------------
 Structure from the checkpoint file:  "JID_769.chk"
 Charge = -1 Multiplicity = 2

                         Standard orientation:
 ---------------------------------------------------------------------
 Center     Atomic      Atomic             Coordinates (Angstroms)
 Number     Number       Type             X           Y           Z
 ---------------------------------------------------------------------
      1          6           0       -3.036589    0.975874   -0.641783
      2          6           0       -2.226570    0.231359    0.422211
      3          6           0       -1.430035   -0.964301   -0.128790
      4          6           0       -0.724476   -1.749719    0.996950
      5          6           0        0.593831   -0.994148    1.204092
      6          6           0        1.060702   -0.630413   -0.227038
      7          6           0       -0.260798   -0.541334   -1.059341
      8          6           0        1.949921   -1.757499   -0.787821
      9          6           0        1.903363    0.658904   -0.275575
     10         16           0        1.141696    2.207361    0.371166
     11          1           0       -3.748497    0.304066   -1.137135
     12          1           0       -2.393584    1.402398   -1.420827
     13          1           0       -3.606149    1.800843   -0.199697
     14          1           0       -2.911549   -0.137481    1.197678
     15          1           0       -1.543759    0.931349    0.919913
     16          1           0       -2.133048   -1.611306   -0.669492
     17          1           0       -1.329733   -1.814715    1.908087
     18          1           0       -0.523287   -2.777533    0.668557
     19          1           0        1.347604   -1.578948    1.743597
     20          1           0        0.412742   -0.080414    1.779484
     21          1           0       -0.197102   -1.208183   -1.926042
     22          1           0       -0.418605    0.462894   -1.465431
     23          1           0        2.220569   -1.566034   -1.833251
     24          1           0        2.876524   -1.858371   -0.209969
     25          1           0        1.426281   -2.719242   -0.752056
     26          1           0        2.796983    0.535533    0.346139
     27          1           0        2.251029    0.848842   -1.296053
     28          1           0        0.230351    2.376191   -0.609587
 ---------------------------------------------------------------------

 SCF Done:  E(UB3LYP) =  -752.156717659     A.U. after   28 cycles

 The electronic state is 2-A.
 Alpha  occ. eigenvalues --  -88.73433 -10.09276 -10.07859 -10.06181 -10.05621
 Alpha  occ. eigenvalues --  -10.05516 -10.05338 -10.05187 -10.05181 -10.05143
 Alpha  occ. eigenvalues --   -7.82130  -5.78494  -5.78156  -5.77526  -0.74812
 Alpha  occ. eigenvalues --   -0.68990  -0.65500  -0.62420  -0.59577  -0.55352
 Alpha  occ. eigenvalues --   -0.53620  -0.50614  -0.44537  -0.42469  -0.37373
 Alpha  occ. eigenvalues --   -0.36991  -0.34680  -0.34216  -0.32104  -0.31042
 Alpha  occ. eigenvalues --   -0.30640  -0.29177  -0.27226  -0.26465  -0.26139
 Alpha  occ. eigenvalues --   -0.25123  -0.23333  -0.22630  -0.21701  -0.21305
 Alpha  occ. eigenvalues --   -0.20542  -0.20131  -0.19914  -0.13519   0.04751
 Alpha virt. eigenvalues --    0.06979   0.07555   0.08127   0.09229   0.09639
 Alpha virt. eigenvalues --    0.09731   0.10585   0.10918   0.11651   0.11967
 Alpha virt. eigenvalues --    0.12621   0.12691   0.13492   0.13853   0.14618

  Beta  occ. eigenvalues --  -88.73418 -10.09247 -10.07859 -10.06171 -10.05612
  Beta  occ. eigenvalues --  -10.05502 -10.05305 -10.05164 -10.05154 -10.05102
  Beta  occ. eigenvalues --   -7.82114  -5.78456  -5.78148  -5.77515  -0.74788
  Beta  occ. eigenvalues --   -0.68954  -0.65454  -0.62369  -0.59528  -0.55277
  Beta  occ. eigenvalues --   -0.53537  -0.50550  -0.44493  -0.42396  -0.37312
  Beta  occ. eigenvalues --   -0.36950  -0.34647  -0.34159  -0.32069  -0.31002
  Beta  occ. eigenvalues --   -0.30589  -0.29137  -0.27162  -0.26420  -0.26093
  Beta  occ. eigenvalues --   -0.25087  -0.23287  -0.22592  -0.21663  -0.21267
  Beta  occ. eigenvalues --   -0.20503  -0.20100  -0.19875  -0.13482
  Beta virt. eigenvalues --    0.07021   0.07778   0.08241   0.08802   0.09829
  Beta virt. eigenvalues --    0.10136   0.10310   0.10910   0.11367   0.12070
  Beta virt. eigenvalues --    0.12384   0.13043   0.13152   0.13853   0.14088

 Mulliken charges and spin densities:
               1          2
     1  C    1.003787  -1.604977
     2  C   -0.925178   0.573561
     3  C   -0.065496   0.577602
     4  C    0.712298  -1.333981
     5  C   -0.298112  -0.094877
     6  C   -1.428762   2.569019
     7  C    1.043823  -1.896510
     8  C    2.133025  -2.755926
     9  C   -0.878142   0.005961
    10  S    0.309709  -0.321611
    11  H   -0.168061   0.298807
    12  H   -0.248001   0.382285
    13  H   -0.168362   0.296108
    14  H   -0.158486   0.283614
    15  H    0.208581  -0.034656
    16  H   -0.132057   0.335378
    17  H   -0.010238   0.166008
    18  H   -0.091352   0.238838
    19  H   -0.257953   0.430226
    20  H   -0.070882   0.184050
    21  H   -0.290911   0.475921
    22  H    0.009766   0.100545
    23  H   -0.193793   0.347110
    24  H   -0.371542   0.507746
    25  H   -0.209520   0.349538
    26  H   -0.123940   0.333228
    27  H   -0.171782   0.390395
    28  H   -0.158418   0.196600
 Sum of Mulliken charges =  -1.00000   1.00000

 Dipole moment (field-independent basis, Debye):
    X=             -0.8741    Y=              1.5688    Z=              2.4122  Tot=              3.0073
 Quadrupole moment (field-independent basis, Debye-Ang):
   XX=           -127.9427   YY=           -118.1666   ZZ=           -111.3298
   XY=              4.4841   XZ=             -2.2040   YZ=              0.1976

 Summary of Natural Population Analysis:

                                       Natural Population
                Natural  -----------------------------------------------
    Atom  No    Charge         Core      Valence    Rydberg      Total
 -----------------------------------------------------------------------
      C    1   -0.28447      0.99967     2.27984    0.00496     3.28447
      C    2   -0.19287      0.99961     2.18414    0.00911     3.19287
      C    3   -0.10959      0.99959     2.09876    0.01124     3.10959
      C    4   -0.18748      0.99962     2.17904    0.00882     3.18748
      C    5   -0.19364      0.99959     2.18472    0.00933     3.19364
      C    6   -0.05315      0.99956     2.03828    0.01532     3.05315
      C    7   -0.18937      0.99958     2.17873    0.01107     3.18937
      C    8   -0.28133      0.99961     2.27398    0.00773     3.28133
      C    9   -0.23521      0.99950     2.22440    0.01131     3.23521
      S   10   -0.02875      4.99966     3.01437    0.01473     8.02875
      H   11    0.09545      0.00000     0.40331    0.00125     0.40455
      H   12    0.09745      0.00000     0.40123    0.00133     0.40255
      H   13    0.09635      0.00000     0.40283    0.00082     0.40365
      H   14    0.09244      0.00000     0.40641    0.00115     0.40756
      H   15    0.09949      0.00000     0.39885    0.00166     0.40051
      H   16    0.09578      0.00000     0.40261    0.00161     0.40422
      H   17    0.09752      0.00000     0.40146    0.00102     0.40248
      H   18    0.09657      0.00000     0.40213    0.00129     0.40343
      H   19    0.10078      0.00000     0.39811    0.00111     0.39922
      H   20    0.10362      0.00000     0.39476    0.00162     0.39638
      H   21    0.10347      0.00000     0.39476    0.00177     0.39653
      H   22    0.10091      0.00000     0.39709    0.00200     0.39909
      H   23    0.10097      0.00000     0.39753    0.00150     0.39903
      H   24    0.09924      0.00000     0.39919    0.00157     0.40076
      H   25    0.10199      0.00000     0.39644    0.00157     0.39801
      H   26    0.10614      0.00000     0.39262    0.00125     0.39386
      H   27    0.10578      0.00000     0.39265    0.00157     0.39422
      H   28    0.06192      0.00000     0.43502    0.00306     0.43808
 =======================================================================
   * Total *   -0.00000     13.99599    29.87325    0.13076    44.00000

 Normal termination of Gaussian 16 at Tue Dec  8 13:23:56 2020.
