 Gaussian 16, Revision A.03,

 -----------------------------------------------------------
 # opt freq B3LYP/6-31G(d) empiricaldispersion=gd3bj scf=xqc
 -----------------------------------------------------------

 ------------------------------
 CID_82406956_JID_2283_neutraal
 ------------------------------
 Symbolic Z-matrix:
 Charge =  0 Multiplicity = 1

 SCF Done:  E(RB3LYP) =  -875.127934772     A.U. after   15 cycles
 SCF Done:  E(RB3LYP) =  -875.134652167     A.U. after   13 cycles
 SCF Done:  E(RB3LYP) =  -875.135538808     A.U. after   12 cycles
 SCF Done:  E(RB3LYP) =  -875.135706072     A.U. after   12 cycles
 SCF Done:  E(RB3LYP) =  -875.135728073     A.U. after   11 cycles
 SCF Done:  E(RB3LYP) =  -875.135756157     A.U. after   10 cycles
 SCF Done:  E(RB3LYP) =  -875.135770435     A.U. after   10 cycles
 SCF Done:  E(RB3LYP) =  -875.135779868     A.U. after    9 cycles
 SCF Done:  E(RB3LYP) =  -875.135790383     A.U. after   10 cycles
 SCF Done:  E(RB3LYP) =  -875.135797124     A.U. after   10 cycles
 SCF Done:  E(RB3LYP) =  -875.135798566     A.U. after    8 cycles
 SCF Done:  E(RB3LYP) =  -875.135798947     A.U. after    8 cycles
 SCF Done:  E(RB3LYP) =  -875.135799000     A.U. after    8 cycles
 Optimization completed.
    -- Stationary point found.
 Normal termination of Gaussian 16 at Wed Dec  9 16:57:42 2020.

 --------------------------------------------------------------------
 #N Geom=AllCheck Guess=TCheck SCRF=Check GenChk RB3LYP/6-31G(d) Freq
 --------------------------------------------------------------------

 Structure from the checkpoint file:  "JID_2283.chk"
 ------------------------------
 CID_82406956_JID_2283_neutraal
 ------------------------------
 Charge =  0 Multiplicity = 1

 SCF Done:  E(RB3LYP) =  -875.135799000     A.U. after    1 cycles

  Exact polarizability: 133.509  -8.824 119.309   4.479   8.163  89.642
 Approx polarizability: 192.317 -10.054 194.624  12.147  27.777 143.757

                      1                      2                      3
                      A                      A                      A
 Frequencies --     25.6891                54.0864               119.8920
 Red. masses --      5.3868                 3.7432                 1.0773
 Frc consts  --      0.0021                 0.0065                 0.0091
 IR Inten    --      0.2411                 1.2661                 0.1203

                      4                      5                      6
                      A                      A                      A
 Frequencies --    128.1216               141.0020               166.2084
 Red. masses --      3.0075                 3.8936                 3.5162
 Frc consts  --      0.0291                 0.0456                 0.0572
 IR Inten    --      1.8673                 2.9886                 0.5309

                      7                      8                      9
                      A                      A                      A
 Frequencies --    219.9853               251.5576               282.0436
 Red. masses --      2.7750                 3.4250                 1.6071
 Frc consts  --      0.0791                 0.1277                 0.0753
 IR Inten    --      9.0139                 2.0704                45.4815

                     10                     11                     12
                      A                      A                      A
 Frequencies --    288.7270               305.3500               353.7633
 Red. masses --      1.9715                 2.3461                 2.6003
 Frc consts  --      0.0968                 0.1289                 0.1917
 IR Inten    --      8.8962                13.6255                 7.6380

                     13                     14                     15
                      A                      A                      A
 Frequencies --    397.6485               416.3876               487.4652
 Red. masses --      3.1960                 4.2124                 3.8952
 Frc consts  --      0.2978                 0.4303                 0.5453
 IR Inten    --      7.6168                 2.2579                11.3664

                     16                     17                     18
                      A                      A                      A
 Frequencies --    536.5125               585.3680               630.8709
 Red. masses --      2.4663                 7.0083                 4.7684
 Frc consts  --      0.4183                 1.4149                 1.1182
 IR Inten    --      7.0489                 1.4722                 0.9842

                     19                     20                     21
                      A                      A                      A
 Frequencies --    692.1255               705.6042               783.5716
 Red. masses --      5.5618                 7.4215                 1.7275
 Frc consts  --      1.5698                 2.1770                 0.6249
 IR Inten    --      4.2992                 7.4451                 1.4830

                     22                     23                     24
                      A                      A                      A
 Frequencies --    799.2853               823.1266               840.5635
 Red. masses --      2.7019                 2.4364                 1.8357
 Frc consts  --      1.0170                 0.9726                 0.7642
 IR Inten    --     10.9245                 9.0283                 3.8795

                     25                     26                     27
                      A                      A                      A
 Frequencies --    891.9697               914.8269               920.3506
 Red. masses --      1.9374                 1.7664                 2.7560
 Frc consts  --      0.9082                 0.8710                 1.3754
 IR Inten    --     37.4270                80.9926                 4.2097

                     28                     29                     30
                      A                      A                      A
 Frequencies --    973.8985               990.5046              1012.5497
 Red. masses --      1.2819                 2.1458                 2.1119
 Frc consts  --      0.7164                 1.2404                 1.2757
 IR Inten    --      0.9718                 3.4812                15.1942

                     31                     32                     33
                      A                      A                      A
 Frequencies --   1034.3843              1061.9604              1064.3084
 Red. masses --      1.8661                 1.4030                 2.3343
 Frc consts  --      1.1764                 0.9323                 1.5579
 IR Inten    --     35.7193                 3.5519                33.8754

                     34                     35                     36
                      A                      A                      A
 Frequencies --   1077.1126              1089.2737              1101.5630
 Red. masses --      1.5599                 1.4278                 2.5474
 Frc consts  --      1.0663                 0.9981                 1.8212
 IR Inten    --      3.0069                 2.8066                23.8223

                     37                     38                     39
                      A                      A                      A
 Frequencies --   1132.4162              1190.8834              1209.3190
 Red. masses --      2.0246                 1.2850                 1.3253
 Frc consts  --      1.5297                 1.0737                 1.1420
 IR Inten    --     11.7074                 2.0783                 0.4582

                     40                     41                     42
                      A                      A                      A
 Frequencies --   1248.8197              1314.5761              1344.4887
 Red. masses --      1.5513                 2.5946                 3.9126
 Frc consts  --      1.4254                 2.6418                 4.1671
 IR Inten    --      1.7088                18.1378                81.1447

                     43                     44                     45
                      A                      A                      A
 Frequencies --   1347.9890              1372.9663              1402.7464
 Red. masses --      2.1510                 1.3943                 1.5209
 Frc consts  --      2.3028                 1.5485                 1.7632
 IR Inten    --     19.0466                 0.1102                 8.2315

                     46                     47                     48
                      A                      A                      A
 Frequencies --   1434.3397              1445.2646              1489.1868
 Red. masses --      1.3598                 1.4227                 1.7178
 Frc consts  --      1.6482                 1.7508                 2.2445
 IR Inten    --     14.5225                 7.7381                14.2623

                     49                     50                     51
                      A                      A                      A
 Frequencies --   1495.5427              1501.6338              1506.6402
 Red. masses --      1.1231                 1.1034                 1.0451
 Frc consts  --      1.4800                 1.4660                 1.3978
 IR Inten    --     14.1011                 1.7591                 7.4047

                     52                     53                     54
                      A                      A                      A
 Frequencies --   1524.5920              1534.6363              1543.1645
 Red. masses --      2.2558                 1.2930                 1.1041
 Frc consts  --      3.0893                 1.7941                 1.5490
 IR Inten    --     13.6368                 7.2889                 5.7722

                     55                     56                     57
                      A                      A                      A
 Frequencies --   1578.0314              1697.5775              3015.4998
 Red. masses --      4.9135                 1.0868                 1.0679
 Frc consts  --      7.2089                 1.8453                 5.7212
 IR Inten    --    112.4179                31.1703                37.9134

                     58                     59                     60
                      A                      A                      A
 Frequencies --   3057.5591              3063.1935              3079.3734
 Red. masses --      1.0629                 1.0376                 1.0922
 Frc consts  --      5.8543                 5.7362                 6.1019
 IR Inten    --     12.1606                12.7680                58.9250

                     61                     62                     63
                      A                      A                      A
 Frequencies --   3106.4609              3119.4418              3149.9129
 Red. masses --      1.1044                 1.1010                 1.0539
 Frc consts  --      6.2793                 6.3122                 6.1612
 IR Inten    --     22.4232                10.7968                 8.6087

                     64                     65                     66
                      A                      A                      A
 Frequencies --   3153.9974              3170.0882              3233.1164
 Red. masses --      1.0575                 1.1016                 1.1190
 Frc consts  --      6.1981                 6.5225                 6.8916
 IR Inten    --      8.2006                 7.0415                 0.7559

                     67                     68                     69
                      A                      A                      A
 Frequencies --   3245.7822              3468.1756              3550.0692
 Red. masses --      1.1155                 1.0501                 1.0919
 Frc consts  --      6.9237                 7.4417                 8.1080
 IR Inten    --      8.0705                 1.8718                 0.9497

 - Thermochemistry -
 -------------------
 Temperature   298.150 Kelvin.  Pressure   1.00000 Atm.
 Atom     1 has atomic number  6 and mass  12.00000

 Molecular mass:   183.08302 amu.
 Principal axes and moments of inertia in atomic units:
                           1         2         3
     Eigenvalues --  1469.624402956.247873732.33219
           X            0.99954  -0.02951  -0.00748
           Y            0.02938   0.99943  -0.01638
           Z            0.00796   0.01615   0.99984
 This molecule is an asymmetric top.
 Rotational symmetry number  1.
 Warning -- assumption of classical behavior for rotation
           may cause significant error
 Rotational temperatures (Kelvin)      0.05894     0.02930     0.02321
 Rotational constants (GHZ):           1.22803     0.61048     0.48354
 Zero-point vibrational energy     549655.0 (Joules/Mol)
                                  131.37070 (Kcal/Mol)
 Warning -- explicit consideration of  17 degrees of freedom as
           vibrations may cause significant error
 Vibrational temperatures:     36.96    77.82   172.50   184.34   202.87
          (Kelvin)            239.14   316.51   361.94   405.80   415.41
                              439.33   508.99   572.13   599.09   701.35
                              771.92   842.21   907.68   995.81  1015.21
                             1127.38  1149.99  1184.30  1209.38  1283.35
                             1316.23  1324.18  1401.22  1425.12  1456.83
                             1488.25  1527.92  1531.30  1549.72  1567.22
                             1584.90  1629.29  1713.42  1739.94  1796.77
                             1891.38  1934.42  1939.46  1975.39  2018.24
                             2063.69  2079.41  2142.61  2151.75  2160.52
                             2167.72  2193.55  2208.00  2220.27  2270.44
                             2442.44  4338.63  4399.15  4407.25  4430.53
                             4469.50  4488.18  4532.02  4537.90  4561.05
                             4651.73  4669.96  4989.93  5107.76

 Zero-point correction=                           0.209353 (Hartree/Particle)
 Thermal correction to Energy=                    0.221696
 Thermal correction to Enthalpy=                  0.222640
 Thermal correction to Gibbs Free Energy=         0.169907
 Sum of electronic and zero-point Energies=           -874.926446
 Sum of electronic and thermal Energies=              -874.914103
 Sum of electronic and thermal Enthalpies=            -874.913159
 Sum of electronic and thermal Free Energies=         -874.965892

                     E (Thermal)             CV                S
                      KCal/Mol        Cal/Mol-Kelvin    Cal/Mol-Kelvin
 Total                  139.116             46.052            110.986
 Electronic               0.000              0.000              0.000
 Translational            0.889              2.981             41.521
 Rotational               0.889              2.981             31.162
 Vibrational            137.339             40.090             38.304
 Vibration     1          0.593              1.985              6.137
 Vibration     2          0.596              1.976              4.662
 Vibration     3          0.609              1.933              3.102
 Vibration     4          0.611              1.925              2.974
 Vibration     5          0.615              1.912              2.790
 Vibration     6          0.624              1.884              2.478
 Vibration     7          0.647              1.811              1.959
 Vibration     8          0.664              1.760              1.720
 Vibration     9          0.681              1.707              1.521
 Vibration    10          0.685              1.695              1.481
 Vibration    11          0.696              1.664              1.387
 Vibration    12          0.730              1.568              1.149
 Vibration    13          0.764              1.475              0.971
 Vibration    14          0.780              1.435              0.904
 Vibration    15          0.843              1.278              0.690
 Vibration    16          0.892              1.169              0.573
 Vibration    17          0.942              1.063              0.476

                           ! Non-Optimized Parameters !
 Normal termination of Gaussian 16 at Wed Dec  9 17:03:48 2020.

 ----------------------------------------------------------------------
 # B3LYP/6-311++G(d,p) empiricaldispersion=gd3bj scf=xqc pop=npa geom=c
 heck
 ----------------------------------------------------------------------

 --------------------------------------
 CID_82406956_JID_2283_Energie_neutraal
 --------------------------------------
 Structure from the checkpoint file:  "JID_2283.chk"
 Charge =  0 Multiplicity = 1

 SCF Done:  E(RB3LYP) =  -875.297791783     A.U. after   16 cycles
 Normal termination of Gaussian 16 at Wed Dec  9 17:07:15 2020.

 ----------------------------------------------------------------------
 # B3LYP/6-311++G(d,p) empiricaldispersion=gd3bj scf=xqc pop=npa geom=c
 heck
 ----------------------------------------------------------------------

 ------------------------------------
 CID_82406956_JID_2283_Energie_kation
 ------------------------------------
 Structure from the checkpoint file:  "JID_2283.chk"
 Charge =  1 Multiplicity = 2

 SCF Done:  E(UB3LYP) =  -874.983565368     A.U. after   25 cycles
 Normal termination of Gaussian 16 at Wed Dec  9 17:14:41 2020.
 Gaussian 16:  ES64L-G16RevA.03 25-Dec-2016

 ----------------------------------------------------------------------
 # B3LYP/6-311++G(d,p) empiricaldispersion=gd3bj scf=xqc pop=npa geom=c
 heck
 ----------------------------------------------------------------------

 -----------------------------------
 CID_82406956_JID_2283_Energie_anion
 -----------------------------------
 Structure from the checkpoint file:  "JID_2283.chk"
 Charge = -1 Multiplicity = 2

                         Standard orientation:
 ---------------------------------------------------------------------
 Center     Atomic      Atomic             Coordinates (Angstroms)
 Number     Number       Type             X           Y           Z
 ---------------------------------------------------------------------
      1          6           0       -3.266483    1.697993    0.382950
      2          6           0       -2.279691    0.605868    0.109880
      3          7           0       -2.642518   -0.493721   -0.511950
      4         16           0       -1.282587   -1.480868   -0.647726
      5          6           0       -0.274277   -0.304299    0.186515
      6          7           0       -0.969291    0.754156    0.516431
      7          6           0        1.158830   -0.489394    0.489176
      8          6           0        1.557467   -1.827964    1.113901
      9          6           0        1.933104   -1.536304   -0.302739
     10          6           0        1.900264    0.757128    0.956531
     11          6           0        2.023991    1.856147   -0.102822
     12          7           0        2.759447    1.373919   -1.282085
     13          1           0       -3.337462    1.884830    1.460041
     14          1           0       -2.940050    2.631057   -0.089364
     15          1           0       -4.249527    1.422140   -0.002000
     16          1           0        2.328802   -1.791929    1.877936
     17          1           0        0.765235   -2.545691    1.303414
     18          1           0        1.413191   -2.066542   -1.096858
     19          1           0        2.962900   -1.283362   -0.531593
     20          1           0        1.388326    1.165325    1.834951
     21          1           0        2.907882    0.454948    1.264074
     22          1           0        1.021430    2.248547   -0.330473
     23          1           0        2.599869    2.681759    0.331736
     24          1           0        2.945435    2.158110   -1.905247
     25          1           0        2.162673    0.739182   -1.810127
 ---------------------------------------------------------------------

 SCF Done:  E(UB3LYP) =  -875.285721354     A.U. after   33 cycles
 SCF Done:  E(UB3LYP) =  -875.285721354     a.u. after    1 cycles

 The electronic state is 2-A.
 Alpha  occ. eigenvalues --  -88.75051 -14.18138 -14.17434 -14.17098 -10.10032
 Alpha  occ. eigenvalues --  -10.09067 -10.08241 -10.06856 -10.06571 -10.06423
 Alpha  occ. eigenvalues --  -10.05664 -10.05254  -7.83572  -5.79957  -5.79490
 Alpha  occ. eigenvalues --   -5.79108  -0.86255  -0.77375  -0.75523  -0.72957
 Alpha  occ. eigenvalues --   -0.65746  -0.62459  -0.57900  -0.52627  -0.49957
 Alpha  occ. eigenvalues --   -0.48659  -0.43703  -0.40957  -0.38032  -0.37542
 Alpha  occ. eigenvalues --   -0.35309  -0.33917  -0.32498  -0.31856  -0.29724
 Alpha  occ. eigenvalues --   -0.28087  -0.27706  -0.26957  -0.25872  -0.25265
 Alpha  occ. eigenvalues --   -0.24367  -0.23093  -0.19568  -0.19373  -0.17196
 Alpha  occ. eigenvalues --   -0.15626  -0.14264  -0.12642  -0.12080   0.05456
 Alpha virt. eigenvalues --    0.07292   0.08278   0.08557   0.09057   0.10558
 Alpha virt. eigenvalues --    0.10967   0.11319   0.11717   0.12113   0.12605
 Alpha virt. eigenvalues --    0.13377   0.13809   0.13981   0.14589   0.15935

  Beta  occ. eigenvalues --  -88.75013 -14.17866 -14.17401 -14.17074 -10.09970
  Beta  occ. eigenvalues --  -10.08646 -10.08288 -10.06838 -10.06494 -10.06372
  Beta  occ. eigenvalues --  -10.05663 -10.05244  -7.83538  -5.79944  -5.79480
  Beta  occ. eigenvalues --   -5.78973  -0.85927  -0.77252  -0.75396  -0.72621
  Beta  occ. eigenvalues --   -0.65508  -0.62408  -0.57677  -0.52400  -0.49802
  Beta  occ. eigenvalues --   -0.48455  -0.43494  -0.40804  -0.37907  -0.37447
  Beta  occ. eigenvalues --   -0.35230  -0.33843  -0.32096  -0.31734  -0.29606
  Beta  occ. eigenvalues --   -0.27670  -0.27561  -0.26890  -0.25806  -0.25036
  Beta  occ. eigenvalues --   -0.24131  -0.22963  -0.19188  -0.18895  -0.16889
  Beta  occ. eigenvalues --   -0.14922  -0.14132  -0.12433  -0.11129
  Beta virt. eigenvalues --    0.07847   0.08329   0.08893   0.09403   0.10368
  Beta virt. eigenvalues --    0.10655   0.11189   0.11494   0.11781   0.12159
  Beta virt. eigenvalues --    0.12721   0.13454   0.13856   0.14247   0.14678

 Mulliken charges and spin densities:
               1          2
     1  C   -0.037150  -0.533748
     2  C   -0.444939   0.033255
     3  N   -0.104802   0.112978
     4  S    0.246314  -0.054321
     5  C   -0.551042  -0.853339
     6  N    0.040946   0.037194
     7  C    1.211846   0.824589
     8  C   -0.459211  -0.009197
     9  C   -0.344466  -0.073769
    10  C   -0.903218   0.765823
    11  C    0.863095  -1.413812
    12  N   -0.460258   0.033962
    13  H    0.055417   0.089077
    14  H   -0.004970   0.153930
    15  H    0.114466   0.020774
    16  H    0.131559  -0.008220
    17  H   -0.002754   0.136826
    18  H    0.089303   0.049813
    19  H    0.059066   0.111746
    20  H   -0.012346   0.197214
    21  H    0.029700   0.086974
    22  H    0.220128  -0.075186
    23  H   -0.578912   0.739179
    24  H   -0.334254   0.578505
    25  H    0.176480   0.049752
 Sum of Mulliken charges =  -1.00000   1.00000

 Dipole moment (field-independent basis, Debye):
    X=             -2.0125    Y=             -3.7456    Z=              1.9740  Tot=              4.6879
 Quadrupole moment (field-independent basis, Debye-Ang):
   XX=           -134.3589   YY=           -114.9109   ZZ=           -100.6313
   XY=            -16.6368   XZ=              4.6799   YZ=              2.1739

 Summary of Natural Population Analysis:

                                       Natural Population
                Natural  -----------------------------------------------
    Atom  No    Charge         Core      Valence    Rydberg      Total
 -----------------------------------------------------------------------
      C    1   -0.29828      0.99962     2.29373    0.00492     3.29828
      C    2    0.19438      0.99965     1.78806    0.01792     2.80562
      N    3   -0.29946      0.99969     2.78801    0.01176     3.79946
      S    4    0.24643      4.99944     2.72855    0.02558     7.75357
      C    5    0.12236      0.99952     1.86076    0.01736     2.87764
      N    6   -0.27658      0.99963     2.76594    0.01101     3.77658
      C    7   -0.07386      0.99950     2.06052    0.01384     3.07386
      C    8   -0.17529      0.99960     2.16886    0.00683     3.17529
      C    9   -0.18855      0.99959     2.18082    0.00813     3.18855
      C   10   -0.18425      0.99959     2.17306    0.01159     3.18425
      C   11   -0.09024      0.99963     2.07896    0.01166     3.09024
      N   12   -0.42681      0.99977     2.91614    0.01090     3.92681
      H   13    0.10221      0.00000     0.39647    0.00132     0.39779
      H   14    0.10399      0.00000     0.39440    0.00161     0.39601
      H   15    0.10320      0.00000     0.39532    0.00148     0.39680
      H   16    0.09739      0.00000     0.40153    0.00108     0.40261
      H   17    0.10296      0.00000     0.39566    0.00138     0.39704
      H   18    0.10220      0.00000     0.39658    0.00123     0.39780
      H   19    0.11028      0.00000     0.38847    0.00125     0.38972
      H   20    0.10673      0.00000     0.39199    0.00128     0.39327
      H   21    0.09553      0.00000     0.40309    0.00137     0.40447
      H   22    0.08918      0.00000     0.40870    0.00212     0.41082
      H   23    0.08810      0.00000     0.41002    0.00188     0.41190
      H   24    0.17595      0.00000     0.32091    0.00314     0.32405
      H   25    0.17244      0.00000     0.32546    0.00210     0.32756
 =======================================================================
   * Total *   -0.00000     15.99523    32.83202    0.17275    49.00000

 Normal termination of Gaussian 16 at Wed Dec  9 17:23:55 2020.
