 Gaussian 16, Revision A.03,

 -----------------------------------------------------------
 # opt freq B3LYP/6-31G(d) empiricaldispersion=gd3bj scf=xqc
 -----------------------------------------------------------

 -------------------------------
 CID_131223085_JID_1138_neutraal
 -------------------------------
 Symbolic Z-matrix:
 Charge =  0 Multiplicity = 1

 SCF Done:  E(RB3LYP) =  -552.403415521     A.U. after   14 cycles
 SCF Done:  E(RB3LYP) =  -552.408749235     A.U. after   12 cycles
 SCF Done:  E(RB3LYP) =  -552.408958798     A.U. after   12 cycles
 SCF Done:  E(RB3LYP) =  -552.410543300     A.U. after   11 cycles
 SCF Done:  E(RB3LYP) =  -552.411283208     A.U. after   12 cycles
 SCF Done:  E(RB3LYP) =  -552.411873186     A.U. after   12 cycles
 SCF Done:  E(RB3LYP) =  -552.412379619     A.U. after   11 cycles
 SCF Done:  E(RB3LYP) =  -552.412518741     A.U. after   11 cycles
 SCF Done:  E(RB3LYP) =  -552.412544404     A.U. after   10 cycles
 SCF Done:  E(RB3LYP) =  -552.412569552     A.U. after    8 cycles
 SCF Done:  E(RB3LYP) =  -552.412591372     A.U. after    8 cycles
 SCF Done:  E(RB3LYP) =  -552.412591827     A.U. after    7 cycles
 SCF Done:  E(RB3LYP) =  -552.412592006     A.U. after    7 cycles
 SCF Done:  E(RB3LYP) =  -552.412592055     A.U. after    6 cycles
 SCF Done:  E(RB3LYP) =  -552.412592085     A.U. after    6 cycles
 Optimization completed.
    -- Stationary point found.
 Normal termination of Gaussian 16 at Tue Dec  8 19:18:11 2020.

 --------------------------------------------------------------------
 #N Geom=AllCheck Guess=TCheck SCRF=Check GenChk RB3LYP/6-31G(d) Freq
 --------------------------------------------------------------------

 Structure from the checkpoint file:  "JID_1138.chk"
 -------------------------------
 CID_131223085_JID_1138_neutraal
 -------------------------------
 Charge =  0 Multiplicity = 1

 SCF Done:  E(RB3LYP) =  -552.412592085     A.U. after    1 cycles

  Exact polarizability:  98.049   2.868  90.479   6.785  -0.327  76.372
 Approx polarizability: 117.041  -1.541 138.742  12.593   0.174 113.831

                      1                      2                      3
                      A                      A                      A
 Frequencies --     33.5137                44.7997                62.4612
 Red. masses --      4.0185                 4.1772                 3.1554
 Frc consts  --      0.0027                 0.0049                 0.0073
 IR Inten    --      4.5852                 2.5643                 3.7764

                      4                      5                      6
                      A                      A                      A
 Frequencies --     95.3131               126.2653               134.7037
 Red. masses --      4.8176                 4.5615                 2.7155
 Frc consts  --      0.0258                 0.0428                 0.0290
 IR Inten    --      0.2185                 1.7068                 2.3071

                      7                      8                      9
                      A                      A                      A
 Frequencies --    215.9517               234.7309               260.1321
 Red. masses --      1.3443                 1.4165                 1.7678
 Frc consts  --      0.0369                 0.0460                 0.0705
 IR Inten    --      1.2678                15.5957                10.4582

                     10                     11                     12
                      A                      A                      A
 Frequencies --    287.8520               302.3706               329.8908
 Red. masses --      3.4608                 1.9236                 2.7151
 Frc consts  --      0.1690                 0.1036                 0.1741
 IR Inten    --      3.3403                 0.9963                 2.2818

                     13                     14                     15
                      A                      A                      A
 Frequencies --    394.6309               412.4840               457.0320
 Red. masses --      3.8298                 2.3700                 3.2821
 Frc consts  --      0.3514                 0.2376                 0.4039
 IR Inten    --      3.1941                 2.2038                 7.4447

                     16                     17                     18
                      A                      A                      A
 Frequencies --    538.9441               578.0152               626.3253
 Red. masses --      3.4857                 2.2936                 1.2863
 Frc consts  --      0.5965                 0.4515                 0.2973
 IR Inten    --     31.4811                 7.2024                84.3860

                     19                     20                     21
                      A                      A                      A
 Frequencies --    652.9761               668.5285               733.2408
 Red. masses --      1.7710                 1.2891                 2.2709
 Frc consts  --      0.4449                 0.3394                 0.7194
 IR Inten    --     34.8632               144.7355                30.6233

                     22                     23                     24
                      A                      A                      A
 Frequencies --    782.9763               796.2685               808.8286
 Red. masses --      1.5969                 4.2896                 2.4730
 Frc consts  --      0.5768                 1.6025                 0.9532
 IR Inten    --     14.6742                54.2365                15.2137

                     25                     26                     27
                      A                      A                      A
 Frequencies --    848.9357               870.4378               934.4086
 Red. masses --      1.7951                 1.4639                 2.1259
 Frc consts  --      0.7622                 0.6535                 1.0936
 IR Inten    --     37.6769                43.5050                 2.1357

                     28                     29                     30
                      A                      A                      A
 Frequencies --    955.1909               997.6833              1051.8676
 Red. masses --      1.8801                 1.8443                 2.0566
 Frc consts  --      1.0107                 1.0816                 1.3407
 IR Inten    --     69.4812                12.8133                 4.5103

                     31                     32                     33
                      A                      A                      A
 Frequencies --   1074.1990              1097.0266              1118.9958
 Red. masses --      2.3853                 2.1408                 1.8811
 Frc consts  --      1.6216                 1.5180                 1.3878
 IR Inten    --     43.8580                13.9202                 1.4209

                     34                     35                     36
                      A                      A                      A
 Frequencies --   1133.0700              1170.5806              1196.6905
 Red. masses --      2.6198                 2.1237                 2.3003
 Frc consts  --      1.9817                 1.7145                 1.9409
 IR Inten    --     34.8332                58.5734                26.9403

                     37                     38                     39
                      A                      A                      A
 Frequencies --   1221.2278              1273.2045              1286.2705
 Red. masses --      1.6672                 1.3646                 1.2853
 Frc consts  --      1.4650                 1.3033                 1.2529
 IR Inten    --      3.8428                43.2391                29.7570

                     40                     41                     42
                      A                      A                      A
 Frequencies --   1331.4820              1356.1903              1370.9942
 Red. masses --      1.2649                 1.2729                 1.3289
 Frc consts  --      1.3213                 1.3794                 1.4717
 IR Inten    --     43.9909                34.1933                42.6880

                     43                     44                     45
                      A                      A                      A
 Frequencies --   1399.8321              1417.1265              1428.7029
 Red. masses --      1.3517                 1.3980                 1.3306
 Frc consts  --      1.5606                 1.6541                 1.6002
 IR Inten    --     33.8184                 3.2338                 4.1638

                     46                     47                     48
                      A                      A                      A
 Frequencies --   1439.2881              1453.8461              1472.4232
 Red. masses --      1.2712                 1.9159                 1.4286
 Frc consts  --      1.5515                 2.3860                 1.8249
 IR Inten    --     22.7137               149.7879                49.8773

                     49                     50                     51
                      A                      A                      A
 Frequencies --   1479.7338              1481.0053              1521.9942
 Red. masses --      1.4094                 1.2169                 1.0576
 Frc consts  --      1.8183                 1.5726                 1.4435
 IR Inten    --     36.8129                 2.8170                 2.6955

                     52                     53                     54
                      A                      A                      A
 Frequencies --   1524.3086              1528.5993              1539.9537
 Red. masses --      1.1015                 1.1237                 1.1062
 Frc consts  --      1.5079                 1.5471                 1.5457
 IR Inten    --     27.6276                24.6647                20.4533

                     55                     56                     57
                      A                      A                      A
 Frequencies --   1554.4098              1698.9504              1791.2915
 Red. masses --      1.0827                 1.0880                 5.6952
 Frc consts  --      1.5413                 1.8503                10.7670
 IR Inten    --      4.8802                33.3973               407.7833

                     58                     59                     60
                      A                      A                      A
 Frequencies --   3038.5773              3055.1926              3074.6071
 Red. masses --      1.0670                 1.0360                 1.0614
 Frc consts  --      5.8044                 5.6973                 5.9117
 IR Inten    --     29.5359                22.0136                19.8034

                     61                     62                     63
                      A                      A                      A
 Frequencies --   3078.8678              3090.8121              3106.1415
 Red. masses --      1.0646                 1.0844                 1.1043
 Frc consts  --      5.9461                 6.1033                 6.2774
 IR Inten    --     24.4880                21.1661                25.3761

                     64                     65                     66
                      A                      A                      A
 Frequencies --   3109.5622              3117.4782              3125.1839
 Red. masses --      1.0980                 1.1032                 1.1017
 Frc consts  --      6.2555                 6.3172                 6.3394
 IR Inten    --     23.7708                25.2647                43.2386

                     67                     68                     69
                      A                      A                      A
 Frequencies --   3141.9711              3494.6593              3578.6041
 Red. masses --      1.1031                 1.0509                 1.0925
 Frc consts  --      6.4160                 7.5616                 8.2431
 IR Inten    --     29.7245                 0.7373                 0.7456

                     70                     71                     72
                      A                      A                      A
 Frequencies --   3588.3501              3594.9420              3599.2599
 Red. masses --      1.0645                 1.0753                 1.0759
 Frc consts  --      8.0761                 8.1878                 8.2119
 IR Inten    --     83.8902                23.2860                19.2198

 - Thermochemistry -
 -------------------
 Temperature   298.150 Kelvin.  Pressure   1.00000 Atm.
 Atom     1 has atomic number  6 and mass  12.00000

 Molecular mass:   161.11643 amu.
 Principal axes and moments of inertia in atomic units:
                           1         2         3
     Eigenvalues --  1102.952822690.054393252.40224
           X            0.99892   0.04649  -0.00101
           Y           -0.04650   0.99887  -0.00985
           Z            0.00055   0.00988   0.99995
 This molecule is an asymmetric top.
 Rotational symmetry number  1.
 Warning -- assumption of classical behavior for rotation
           may cause significant error
 Rotational temperatures (Kelvin)      0.07853     0.03220     0.02663
 Rotational constants (GHZ):           1.63628     0.67089     0.55489
 Zero-point vibrational energy     606461.0 (Joules/Mol)
                                  144.94766 (Kcal/Mol)
 Warning -- explicit consideration of  17 degrees of freedom as
           vibrations may cause significant error
 Vibrational temperatures:     48.22    64.46    89.87   137.13   181.67
          (Kelvin)            193.81   310.71   337.73   374.27   414.15
                              435.04   474.64   567.79   593.47   657.57
                              775.42   831.63   901.14   939.49   961.86
                             1054.97  1126.53  1145.65  1163.72  1221.43
                             1252.37  1344.41  1374.31  1435.44  1513.40
                             1545.53  1578.38  1609.99  1630.24  1684.20
                             1721.77  1757.07  1831.86  1850.66  1915.71
                             1951.26  1972.55  2014.05  2038.93  2055.58
                             2070.81  2091.76  2118.49  2129.01  2130.84
                             2189.81  2193.14  2199.31  2215.65  2236.45
                             2444.41  2577.27  4371.84  4395.74  4423.67
                             4429.80  4446.99  4469.04  4473.97  4485.36
                             4496.44  4520.60  5028.04  5148.81  5162.84
                             5172.32  5178.53

 Zero-point correction=                           0.230989 (Hartree/Particle)
 Thermal correction to Energy=                    0.243742
 Thermal correction to Enthalpy=                  0.244686
 Thermal correction to Gibbs Free Energy=         0.190976
 Sum of electronic and zero-point Energies=           -552.181603
 Sum of electronic and thermal Energies=              -552.168851
 Sum of electronic and thermal Enthalpies=            -552.167906
 Sum of electronic and thermal Free Energies=         -552.221616

                     E (Thermal)             CV                S
                      KCal/Mol        Cal/Mol-Kelvin    Cal/Mol-Kelvin
 Total                  152.950             46.306            113.042
 Electronic               0.000              0.000              0.000
 Translational            0.889              2.981             41.140
 Rotational               0.889              2.981             30.646
 Vibrational            151.173             40.345             41.256
 Vibration     1          0.594              1.983              5.610
 Vibration     2          0.595              1.979              5.035
 Vibration     3          0.597              1.972              4.378
 Vibration     4          0.603              1.953              3.548
 Vibration     5          0.611              1.927              3.002
 Vibration     6          0.613              1.919              2.878
 Vibration     7          0.645              1.817              1.993
 Vibration     8          0.655              1.788              1.842
 Vibration     9          0.668              1.746              1.661
 Vibration    10          0.685              1.696              1.487
 Vibration    11          0.694              1.669              1.404
 Vibration    12          0.713              1.616              1.261
 Vibration    13          0.762              1.482              0.983
 Vibration    14          0.776              1.443              0.918
 Vibration    15          0.815              1.345              0.775
 Vibration    16          0.894              1.164              0.568
 Vibration    17          0.935              1.079              0.489

 Optimization completed.
    -- Stationary point found.
 Normal termination of Gaussian 16 at Tue Dec  8 19:23:53 2020.

 ----------------------------------------------------------------------
 # B3LYP/6-311++G(d,p) empiricaldispersion=gd3bj scf=xqc pop=npa geom=c
 heck
 ----------------------------------------------------------------------

 ---------------------------------------
 CID_131223085_JID_1138_Energie_neutraal
 ---------------------------------------
 Structure from the checkpoint file:  "JID_1138.chk"
 Charge =  0 Multiplicity = 1

 SCF Done:  E(RB3LYP) =  -552.601723152     A.U. after   13 cycles
 Normal termination of Gaussian 16 at Tue Dec  8 19:26:14 2020.

 ----------------------------------------------------------------------
 # B3LYP/6-311++G(d,p) empiricaldispersion=gd3bj scf=xqc pop=npa geom=c
 heck
 ----------------------------------------------------------------------

 -------------------------------------
 CID_131223085_JID_1138_Energie_kation
 -------------------------------------
 Structure from the checkpoint file:  "JID_1138.chk"
 Charge =  1 Multiplicity = 2

 SCF Done:  E(UB3LYP) =  -552.279426408     A.U. after   33 cycles
 SCF Done:  E(UB3LYP) =  -552.281690911     a.u. after   12 cycles
 Normal termination of Gaussian 16 at Tue Dec  8 20:35:31 2020.
 Gaussian 16:  ES64L-G16RevA.03 25-Dec-2016

 ----------------------------------------------------------------------
 # B3LYP/6-311++G(d,p) empiricaldispersion=gd3bj scf=xqc pop=npa geom=c
 heck
 ----------------------------------------------------------------------

 ------------------------------------
 CID_131223085_JID_1138_Energie_anion
 ------------------------------------
 Structure from the checkpoint file:  "JID_1138.chk"
 Charge = -1 Multiplicity = 2

                         Standard orientation:
 ---------------------------------------------------------------------
 Center     Atomic      Atomic             Coordinates (Angstroms)
 Number     Number       Type             X           Y           Z
 ---------------------------------------------------------------------
      1          6           0       -3.172365   -1.077619    0.648251
      2          6           0       -2.276720   -1.032071   -0.591339
      3          7           0       -1.753425    0.299103   -0.912894
      4          6           0       -1.122685    1.166418   -0.037526
      5          8           0       -1.225537    2.384588   -0.162601
      6          7           0       -0.361703    0.618278    0.989609
      7          6           0        0.493232   -0.567539    0.886871
      8          6           0        1.332121   -0.667713   -0.402940
      9          6           0        2.241267    0.550933   -0.619934
     10          7           0        3.322004    0.511930    0.383115
     11          8           0        2.118633   -1.844594   -0.346396
     12          1           0       -2.620339   -0.755675    1.536180
     13          1           0       -3.538003   -2.096802    0.817532
     14          1           0       -4.037487   -0.416497    0.527314
     15          1           0       -1.448559   -1.739701   -0.488977
     16          1           0       -2.836529   -1.354764   -1.474733
     17          1           0       -2.328949    0.841055   -1.545194
     18          1           0        0.047812    1.385499    1.507422
     19          1           0        1.170202   -0.542743    1.747290
     20          1           0       -0.090121   -1.486296    0.994889
     21          1           0        0.657530   -0.760151   -1.260212
     22          1           0        2.701432    0.452047   -1.607741
     23          1           0        1.656379    1.481254   -0.615271
     24          1           0        4.143704    1.004171    0.043665
     25          1           0        3.038215    0.985373    1.238012
     26          1           0        2.922702   -1.556349    0.132694
 ---------------------------------------------------------------------

 SCF Done:  E(UB3LYP) =  -552.592602379     A.U. after   28 cycles

 The electronic state is 2-A.
 Alpha  occ. eigenvalues --  -19.01162 -18.97994 -14.23120 -14.22760 -14.19690
 Alpha  occ. eigenvalues --  -10.19218 -10.11587 -10.11334 -10.10295 -10.09158
 Alpha  occ. eigenvalues --  -10.06836  -0.94590  -0.92075  -0.82910  -0.80541
 Alpha  occ. eigenvalues --   -0.78064  -0.65938  -0.64464  -0.58319  -0.54884
 Alpha  occ. eigenvalues --   -0.51146  -0.48032  -0.41855  -0.40231  -0.39642
 Alpha  occ. eigenvalues --   -0.39138  -0.37427  -0.36173  -0.35310  -0.34203
 Alpha  occ. eigenvalues --   -0.32361  -0.31711  -0.31057  -0.29099  -0.28413
 Alpha  occ. eigenvalues --   -0.27615  -0.25910  -0.25576  -0.22457  -0.19310
 Alpha  occ. eigenvalues --   -0.17297  -0.16094  -0.15353  -0.14306   0.04202
 Alpha virt. eigenvalues --    0.05750   0.07584   0.08353   0.09056   0.09770
 Alpha virt. eigenvalues --    0.10287   0.11485   0.11925   0.12319   0.12886
 Alpha virt. eigenvalues --    0.13003   0.13309   0.14001   0.14825   0.15721

  Beta  occ. eigenvalues --  -19.01153 -18.97988 -14.23107 -14.22739 -14.19602
  Beta  occ. eigenvalues --  -10.19220 -10.11586 -10.11307 -10.10268 -10.09139
  Beta  occ. eigenvalues --  -10.06809  -0.94577  -0.92056  -0.82884  -0.80499
  Beta  occ. eigenvalues --   -0.77930  -0.65892  -0.64405  -0.58231  -0.54815
  Beta  occ. eigenvalues --   -0.51090  -0.47975  -0.41801  -0.40185  -0.39581
  Beta  occ. eigenvalues --   -0.39093  -0.37366  -0.36116  -0.35269  -0.34160
  Beta  occ. eigenvalues --   -0.32303  -0.31679  -0.31009  -0.29069  -0.28364
  Beta  occ. eigenvalues --   -0.27577  -0.25869  -0.25545  -0.22433  -0.19289
  Beta  occ. eigenvalues --   -0.17284  -0.16036  -0.15320  -0.14279
  Beta virt. eigenvalues --    0.06632   0.07459   0.08118   0.08970   0.09578
  Beta virt. eigenvalues --    0.10248   0.10645   0.11882   0.12248   0.12687
  Beta virt. eigenvalues --    0.13074   0.13137   0.13484   0.14200   0.15161

 Mulliken charges and spin densities:
               1          2
     1  C    0.538775  -1.007932
     2  C   -0.049306  -0.162327
     3  N   -0.189684  -0.039478
     4  C    0.030474  -0.036286
     5  O   -0.362788   0.009471
     6  N   -0.422028   0.230076
     7  C    0.947244  -1.278591
     8  C   -0.741154   0.570548
     9  C    0.513268  -1.093235
    10  N   -0.303729  -0.106880
    11  O   -0.247344   0.035104
    12  H   -0.034123   0.194319
    13  H   -0.240915   0.377366
    14  H   -0.000064   0.138402
    15  H    0.092185   0.072734
    16  H   -0.666705   0.842254
    17  H    0.175414   0.132796
    18  H    0.096697   0.238958
    19  H   -0.168538   0.384663
    20  H    0.158629  -0.000768
    21  H    0.320484  -0.116453
    22  H   -0.161505   0.348555
    23  H    0.168661   0.023416
    24  H   -0.401260   0.666318
    25  H   -0.319720   0.565095
    26  H    0.267030   0.011878
 Sum of Mulliken charges =  -1.00000   1.00000

 Dipole moment (field-independent basis, Debye):
    X=             -2.5514    Y=             -1.7010    Z=             -0.9066  Tot=              3.1977
 Quadrupole moment (field-independent basis, Debye-Ang):
   XX=           -141.0983   YY=           -111.8386   ZZ=            -96.7300
   XY=             -8.6276   XZ=             -8.8406   YZ=             -4.6574

 Summary of Natural Population Analysis:

                                       Natural Population
                Natural  -----------------------------------------------
    Atom  No    Charge         Core      Valence    Rydberg      Total
 -----------------------------------------------------------------------
      C    1   -0.29514      0.99966     2.29045    0.00503     3.29514
      C    2   -0.09132      0.99963     2.08066    0.01103     3.09132
      N    3   -0.33512      0.99968     2.82491    0.01052     3.83512
      C    4    0.40583      0.99969     1.57105    0.02343     2.59417
      O    5   -0.34055      0.99988     3.33534    0.00533     4.34055
      N    6   -0.33815      0.99968     2.82736    0.01112     3.83815
      C    7   -0.10369      0.99959     2.09023    0.01387     3.10369
      C    8    0.04982      0.99956     1.93676    0.01386     2.95018
      C    9   -0.10533      0.99961     2.09390    0.01182     3.10533
      N   10   -0.44059      0.99977     2.92895    0.01187     3.94059
      O   11   -0.37953      0.99990     3.37325    0.00638     4.37953
      H   12    0.10432      0.00000     0.39450    0.00118     0.39568
      H   13    0.10039      0.00000     0.39847    0.00114     0.39961
      H   14    0.09850      0.00000     0.40042    0.00108     0.40150
      H   15    0.09309      0.00000     0.40540    0.00151     0.40691
      H   16    0.09920      0.00000     0.39868    0.00212     0.40080
      H   17    0.19428      0.00000     0.30358    0.00215     0.30572
      H   18    0.19647      0.00000     0.30100    0.00253     0.30353
      H   19    0.10369      0.00000     0.39489    0.00143     0.39631
      H   20    0.09580      0.00000     0.40269    0.00151     0.40420
      H   21    0.09020      0.00000     0.40779    0.00201     0.40980
      H   22    0.09450      0.00000     0.40449    0.00102     0.40550
      H   23    0.09413      0.00000     0.40438    0.00149     0.40587
      H   24    0.18638      0.00000     0.30790    0.00572     0.31362
      H   25    0.18332      0.00000     0.30789    0.00879     0.31668
      H   26    0.23951      0.00000     0.25704    0.00345     0.26049
 =======================================================================
   * Total *    0.00000     10.99665    32.84198    0.16137    44.00000

 Normal termination of Gaussian 16 at Tue Dec  8 20:44:37 2020.
