 Gaussian 16, Revision A.03,

 -----------------------------------------------------------
 # opt freq B3LYP/6-31G(d) empiricaldispersion=gd3bj scf=xqc
 -----------------------------------------------------------

 ------------------------------
 CID_123496305_JID_828_neutraal
 ------------------------------
 Symbolic Z-matrix:
 Charge =  0 Multiplicity = 1

 SCF Done:  E(RB3LYP) =  -393.141384197     A.U. after   12 cycles
 SCF Done:  E(RB3LYP) =  -393.144816400     A.U. after   10 cycles
 SCF Done:  E(RB3LYP) =  -393.144999339     A.U. after    9 cycles
 SCF Done:  E(RB3LYP) =  -393.145013013     A.U. after    9 cycles
 SCF Done:  E(RB3LYP) =  -393.145016161     A.U. after    8 cycles
 SCF Done:  E(RB3LYP) =  -393.145016346     A.U. after    6 cycles
 SCF Done:  E(RB3LYP) =  -393.145016294     A.U. after    6 cycles
 Optimization completed.
    -- Stationary point found.
 Normal termination of Gaussian 16 at Tue Dec  8 12:32:38 2020.

 --------------------------------------------------------------------
 #N Geom=AllCheck Guess=TCheck SCRF=Check GenChk RB3LYP/6-31G(d) Freq
 --------------------------------------------------------------------

 Structure from the checkpoint file:  "JID_828.chk"
 ------------------------------
 CID_123496305_JID_828_neutraal
 ------------------------------
 Charge =  0 Multiplicity = 1

 SCF Done:  E(RB3LYP) =  -393.145016294     A.U. after    1 cycles

  Exact polarizability: 118.609   0.327  97.218   0.836   0.368  94.512
 Approx polarizability: 140.337  -0.263 138.831  -0.181  -0.308 138.269

                      1                      2                      3
                      A                      A                      A
 Frequencies --     43.7902                55.6799                74.1939
 Red. masses --      2.8277                 2.6708                 2.5497
 Frc consts  --      0.0032                 0.0049                 0.0083
 IR Inten    --      0.0016                 0.0062                 0.0071

                      4                      5                      6
                      A                      A                      A
 Frequencies --    123.6726               166.4253               230.3943
 Red. masses --      2.8352                 2.1811                 1.1491
 Frc consts  --      0.0255                 0.0356                 0.0359
 IR Inten    --      0.0071                 0.0346                 0.0365

                      7                      8                      9
                      A                      A                      A
 Frequencies --    245.3477               256.3762               273.7962
 Red. masses --      1.2740                 1.1282                 1.7275
 Frc consts  --      0.0452                 0.0437                 0.0763
 IR Inten    --      0.0110                 0.0255                 0.0351

                     10                     11                     12
                      A                      A                      A
 Frequencies --    297.9512               336.8363               364.9446
 Red. masses --      2.3724                 2.1925                 2.0784
 Frc consts  --      0.1241                 0.1466                 0.1631
 IR Inten    --      0.1092                 0.0449                 0.0567

                     13                     14                     15
                      A                      A                      A
 Frequencies --    396.7332               424.6604               436.2349
 Red. masses --      2.0295                 1.9335                 1.6113
 Frc consts  --      0.1882                 0.2054                 0.1807
 IR Inten    --      0.0399                 0.2465                 0.0786

                     16                     17                     18
                      A                      A                      A
 Frequencies --    533.1538               657.6990               767.4216
 Red. masses --      2.7138                 2.7046                 2.0206
 Frc consts  --      0.4545                 0.6893                 0.7011
 IR Inten    --      0.3165                 1.0731                 3.4481

                     19                     20                     21
                      A                      A                      A
 Frequencies --    802.0200               830.8356               847.1505
 Red. masses --      2.2769                 1.3445                 1.9359
 Frc consts  --      0.8629                 0.5468                 0.8186
 IR Inten    --      1.1480                 0.1515                 1.6633

                     22                     23                     24
                      A                      A                      A
 Frequencies --    903.5347               911.4229               915.7511
 Red. masses --      1.7783                 2.1116                 2.0237
 Frc consts  --      0.8553                 1.0335                 0.9999
 IR Inten    --      0.3128                 0.0762                 0.8033

                     25                     26                     27
                      A                      A                      A
 Frequencies --    940.8369               952.9152               961.7161
 Red. masses --      1.2209                 1.6653                 1.8369
 Frc consts  --      0.6367                 0.8910                 1.0010
 IR Inten    --      1.4694                 0.5282                 1.1962

                     28                     29                     30
                      A                      A                      A
 Frequencies --    978.7529               993.0997              1022.4720
 Red. masses --      1.4642                 1.3133                 1.8437
 Frc consts  --      0.8264                 0.7631                 1.1356
 IR Inten    --      0.4271                 1.3271                 1.6386

                     31                     32                     33
                      A                      A                      A
 Frequencies --   1049.1340              1065.7570              1102.4073
 Red. masses --      1.4815                 1.7368                 1.7143
 Frc consts  --      0.9608                 1.1623                 1.2275
 IR Inten    --      0.1274                 0.6397                 0.6809

                     34                     35                     36
                      A                      A                      A
 Frequencies --   1136.8675              1150.8990              1168.1721
 Red. masses --      2.3350                 1.2697                 1.8204
 Frc consts  --      1.7781                 0.9909                 1.4636
 IR Inten    --      1.0796                 0.5000                 0.7731

                     37                     38                     39
                      A                      A                      A
 Frequencies --   1192.0797              1208.0177              1238.0497
 Red. masses --      2.1130                 1.7613                 1.6097
 Frc consts  --      1.7691                 1.5144                 1.4536
 IR Inten    --      0.6228                 4.9424                 0.1526

                     40                     41                     42
                      A                      A                      A
 Frequencies --   1242.3018              1269.9625              1287.4314
 Red. masses --      1.5204                 1.3625                 1.4391
 Frc consts  --      1.3825                 1.2947                 1.4054
 IR Inten    --      0.1248                 1.4930                 0.1635

                     43                     44                     45
                      A                      A                      A
 Frequencies --   1289.7821              1307.7204              1311.2405
 Red. masses --      1.4415                 1.3967                 1.3621
 Frc consts  --      1.4129                 1.4072                 1.3799
 IR Inten    --      0.2912                 0.7438                 2.4106

                     46                     47                     48
                      A                      A                      A
 Frequencies --   1352.0799              1370.2718              1382.7053
 Red. masses --      1.2944                 1.3276                 1.4444
 Frc consts  --      1.3942                 1.4687                 1.6270
 IR Inten    --      6.3987                 7.7556                 6.3614

                     49                     50                     51
                      A                      A                      A
 Frequencies --   1392.8646              1411.9520              1422.8443
 Red. masses --      1.3233                 1.5212                 1.5063
 Frc consts  --      1.5127                 1.7868                 1.7967
 IR Inten    --      2.2313                 0.1393                 2.0737

                     52                     53                     54
                      A                      A                      A
 Frequencies --   1430.6899              1439.3660              1449.5282
 Red. masses --      1.2958                 1.2662                 1.2387
 Frc consts  --      1.5627                 1.5456                 1.5335
 IR Inten    --      6.1118                 3.5905                 5.7043

                     55                     56                     57
                      A                      A                      A
 Frequencies --   1503.4357              1508.8721              1515.7756
 Red. masses --      1.0853                 1.0781                 1.0631
 Frc consts  --      1.4454                 1.4462                 1.4392
 IR Inten    --      2.3929                 1.2450                 0.7304

                     58                     59                     60
                      A                      A                      A
 Frequencies --   1523.8754              1526.2765              1526.7567
 Red. masses --      1.0725                 1.0624                 1.0601
 Frc consts  --      1.4674                 1.4581                 1.4559
 IR Inten    --      1.2521                 3.2018                 3.3084

                     61                     62                     63
                      A                      A                      A
 Frequencies --   1528.7532              1531.9915              1535.8587
 Red. masses --      1.0515                 1.0931                 1.0581
 Frc consts  --      1.4478                 1.5116                 1.4706
 IR Inten    --      1.3348                 6.0052                 2.2128

                     64                     65                     66
                      A                      A                      A
 Frequencies --   1543.8467              3013.5197              3021.4602
 Red. masses --      1.0524                 1.0663                 1.0775
 Frc consts  --      1.4778                 5.7052                 5.7958
 IR Inten    --      5.4018                 9.4940                20.7185

                     67                     68                     69
                      A                      A                      A
 Frequencies --   3025.6869              3035.3625              3036.3206
 Red. masses --      1.0599                 1.0362                 1.0359
 Frc consts  --      5.7171                 5.6248                 5.6268
 IR Inten    --     30.7967                32.1621                32.3771

                     70                     71                     72
                      A                      A                      A
 Frequencies --   3041.8287              3045.9899              3050.6243
 Red. masses --      1.0390                 1.0938                 1.0690
 Frc consts  --      5.6643                 5.9791                 5.8613
 IR Inten    --     27.7024                11.0585                24.4255

                     73                     74                     75
                      A                      A                      A
 Frequencies --   3051.3448              3059.1739              3064.9867
 Red. masses --      1.0631                 1.0884                 1.0792
 Frc consts  --      5.8319                 6.0013                 5.9734
 IR Inten    --     42.7540                40.2801                49.5333

                     76                     77                     78
                      A                      A                      A
 Frequencies --   3069.0239              3098.1734              3100.3130
 Red. masses --      1.0959                 1.1012                 1.1071
 Frc consts  --      6.0817                 6.2277                 6.2696
 IR Inten    --     36.2793                 6.4727                 6.4282

                     79                     80                     81
                      A                      A                      A
 Frequencies --   3101.3536              3104.5543              3105.2191
 Red. masses --      1.1042                 1.1010                 1.1031
 Frc consts  --      6.2575                 6.2524                 6.2669
 IR Inten    --     32.6785                53.6856                57.7684

                     82                     83                     84
                      A                      A                      A
 Frequencies --   3108.3799              3109.1976              3117.1501
 Red. masses --      1.1035                 1.1026                 1.1007
 Frc consts  --      6.2821                 6.2800                 6.3015
 IR Inten    --     18.4697               138.9175                41.7182

 - Thermochemistry -
 -------------------
 Temperature   298.150 Kelvin.  Pressure   1.00000 Atm.
 Atom     1 has atomic number  6 and mass  12.00000

 Molecular mass:   140.15650 amu.
 Principal axes and moments of inertia in atomic units:
                           1         2         3
     Eigenvalues --   724.423833120.384433217.50524
           X            1.00000  -0.00133   0.00232
           Y            0.00133   1.00000   0.00179
           Z           -0.00232  -0.00179   1.00000
 This molecule is an asymmetric top.
 Rotational symmetry number  1.
 Warning -- assumption of classical behavior for rotation
           may cause significant error
 Rotational temperatures (Kelvin)      0.11956     0.02776     0.02692
 Rotational constants (GHZ):           2.49128     0.57837     0.56091
 Zero-point vibrational energy     741822.6 (Joules/Mol)
                                  177.29985 (Kcal/Mol)
 Warning -- explicit consideration of  16 degrees of freedom as
           vibrations may cause significant error
 Vibrational temperatures:     63.00    80.11   106.75   177.94   239.45
          (Kelvin)            331.49   353.00   368.87   393.93   428.69
                              484.63   525.07   570.81   610.99   627.64
                              767.09   946.28  1104.15  1153.93  1195.39
                             1218.86  1299.98  1311.33  1317.56  1353.65
                             1371.03  1383.70  1408.21  1428.85  1471.11
                             1509.47  1533.39  1586.12  1635.70  1655.89
                             1680.74  1715.14  1738.07  1781.28  1787.40
                             1827.19  1852.33  1855.71  1881.52  1886.58
                             1945.34  1971.52  1989.40  2004.02  2031.48
                             2047.16  2058.44  2070.93  2085.55  2163.11
                             2170.93  2180.86  2192.52  2195.97  2196.66
                             2199.53  2204.19  2209.76  2221.25  4335.78
                             4347.21  4353.29  4367.21  4368.59  4376.51
                             4382.50  4389.17  4390.20  4401.47  4409.83
                             4415.64  4457.58  4460.66  4462.16  4466.76
                             4467.72  4472.27  4473.44  4484.88

 Zero-point correction=                           0.282545 (Hartree/Particle)
 Thermal correction to Energy=                    0.294506
 Thermal correction to Enthalpy=                  0.295450
 Thermal correction to Gibbs Free Energy=         0.244440
 Sum of electronic and zero-point Energies=           -392.862471
 Sum of electronic and thermal Energies=              -392.850510
 Sum of electronic and thermal Enthalpies=            -392.849566
 Sum of electronic and thermal Free Energies=         -392.900576

                     E (Thermal)             CV                S
                      KCal/Mol        Cal/Mol-Kelvin    Cal/Mol-Kelvin
 Total                  184.805             45.148            107.359
 Electronic               0.000              0.000              0.000
 Translational            0.889              2.981             40.724
 Rotational               0.889              2.981             30.365
 Vibrational            183.028             39.187             36.270
 Vibration     1          0.595              1.980              5.080
 Vibration     2          0.596              1.975              4.605
 Vibration     3          0.599              1.966              4.039
 Vibration     4          0.610              1.929              3.042
 Vibration     5          0.624              1.884              2.475
 Vibration     6          0.652              1.795              1.876
 Vibration     7          0.660              1.770              1.764
 Vibration     8          0.666              1.752              1.686
 Vibration     9          0.676              1.722              1.572
 Vibration    10          0.691              1.678              1.428
 Vibration    11          0.718              1.602              1.227
 Vibration    12          0.738              1.544              1.101
 Vibration    13          0.763              1.477              0.975
 Vibration    14          0.787              1.417              0.876
 Vibration    15          0.797              1.391              0.839
 Vibration    16          0.888              1.177              0.580

 Optimization completed.
    -- Stationary point found.
 Normal termination of Gaussian 16 at Tue Dec  8 12:49:34 2020.

 ----------------------------------------------------------------------
 # B3LYP/6-311++G(d,p) empiricaldispersion=gd3bj scf=xqc pop=npa geom=c
 heck
 ----------------------------------------------------------------------

 --------------------------------------
 CID_123496305_JID_828_Energie_neutraal
 --------------------------------------
 Structure from the checkpoint file:  "JID_828.chk"
 Charge =  0 Multiplicity = 1

 SCF Done:  E(RB3LYP) =  -393.252798117     A.U. after   12 cycles
 Normal termination of Gaussian 16 at Tue Dec  8 13:04:45 2020.

 ----------------------------------------------------------------------
 # B3LYP/6-311++G(d,p) empiricaldispersion=gd3bj scf=xqc pop=npa geom=c
 heck
 ----------------------------------------------------------------------

 ------------------------------------
 CID_123496305_JID_828_Energie_kation
 ------------------------------------
 Structure from the checkpoint file:  "JID_828.chk"
 Charge =  1 Multiplicity = 2

 SCF Done:  E(UB3LYP) =  -392.898898661     A.U. after   29 cycles
 Normal termination of Gaussian 16 at Tue Dec  8 13:17:15 2020.
 Gaussian 16:  ES64L-G16RevA.03 25-Dec-2016

 ----------------------------------------------------------------------
 # B3LYP/6-311++G(d,p) empiricaldispersion=gd3bj scf=xqc pop=npa geom=c
 heck
 ----------------------------------------------------------------------

 -----------------------------------
 CID_123496305_JID_828_Energie_anion
 -----------------------------------
 Structure from the checkpoint file:  "JID_828.chk"
 Charge = -1 Multiplicity = 2

                         Standard orientation:
 ---------------------------------------------------------------------
 Center     Atomic      Atomic             Coordinates (Angstroms)
 Number     Number       Type             X           Y           Z
 ---------------------------------------------------------------------
      1          6           0        3.398181   -1.129008    0.759587
      2          6           0        2.859244   -0.179670   -0.306096
      3          6           0        2.187740    1.100716    0.269935
      4          6           0        0.798307    0.434922    0.072097
      5          6           0        1.472594   -0.594851   -0.877297
      6          6           0       -0.344430    1.281707   -0.472863
      7          6           0       -1.575913    0.467254   -0.897161
      8          6           0       -2.218102   -0.402225    0.198995
      9          6           0       -2.655349    0.424359    1.414549
     10          6           0       -3.403878   -1.186277   -0.376610
     11          1           0        4.276419   -0.703822    1.260331
     12          1           0        2.643025   -1.331807    1.529379
     13          1           0        3.691028   -2.090581    0.320853
     14          1           0        3.634009    0.003014   -1.059571
     15          1           0        2.468554    1.394823    1.287585
     16          1           0        2.315618    1.966390   -0.390119
     17          1           0        0.487137   -0.058728    0.999971
     18          1           0        1.356717   -0.305925   -1.928487
     19          1           0        1.185824   -1.647413   -0.773389
     20          1           0       -0.627249    2.036944    0.273068
     21          1           0        0.019877    1.841348   -1.346312
     22          1           0       -2.339561    1.154524   -1.290002
     23          1           0       -1.294074   -0.185562   -1.735313
     24          1           0       -1.469730   -1.133375    0.537249
     25          1           0       -3.371463    1.201845    1.117538
     26          1           0       -3.143762   -0.208737    2.164414
     27          1           0       -1.808053    0.919984    1.900077
     28          1           0       -3.097689   -1.801221   -1.231152
     29          1           0       -3.846228   -1.849820    0.375648
     30          1           0       -4.190755   -0.503446   -0.722587
 ---------------------------------------------------------------------

 SCF Done:  E(UB3LYP) =  -393.234712578     A.U. after   28 cycles

 The electronic state is 2-A.
 Alpha  occ. eigenvalues --  -10.06883 -10.06724 -10.06425 -10.05923 -10.05891
 Alpha  occ. eigenvalues --  -10.05715 -10.05548 -10.05462 -10.05387 -10.05373
 Alpha  occ. eigenvalues --   -0.74777  -0.70802  -0.64852  -0.60419  -0.58173
 Alpha  occ. eigenvalues --   -0.55460  -0.53911  -0.49010  -0.44953  -0.42287
 Alpha  occ. eigenvalues --   -0.37452  -0.37274  -0.36128  -0.33697  -0.32244
 Alpha  occ. eigenvalues --   -0.31700  -0.30355  -0.28561  -0.28323  -0.27644
 Alpha  occ. eigenvalues --   -0.26975  -0.26183  -0.25572  -0.23383  -0.22430
 Alpha  occ. eigenvalues --   -0.21707  -0.21002  -0.20124  -0.19153  -0.18314
 Alpha  occ. eigenvalues --    0.04693
 Alpha virt. eigenvalues --    0.06618   0.07411   0.07759   0.08921   0.09020
 Alpha virt. eigenvalues --    0.09227   0.10224   0.10477   0.11176   0.11560
 Alpha virt. eigenvalues --    0.11890   0.11955   0.12486   0.14031   0.14112

  Beta  occ. eigenvalues --  -10.06875 -10.06713 -10.06419 -10.05910 -10.05878
  Beta  occ. eigenvalues --  -10.05700 -10.05529 -10.05433 -10.05355 -10.05343
  Beta  occ. eigenvalues --   -0.74755  -0.70776  -0.64820  -0.60374  -0.58114
  Beta  occ. eigenvalues --   -0.55416  -0.53861  -0.48958  -0.44898  -0.42228
  Beta  occ. eigenvalues --   -0.37419  -0.37226  -0.36091  -0.33662  -0.32206
  Beta  occ. eigenvalues --   -0.31667  -0.30315  -0.28530  -0.28292  -0.27619
  Beta  occ. eigenvalues --   -0.26942  -0.26150  -0.25537  -0.23348  -0.22390
  Beta  occ. eigenvalues --   -0.21677  -0.20970  -0.20091  -0.19124  -0.18289
  Beta virt. eigenvalues --    0.06790   0.07477   0.08034   0.08302   0.09479
  Beta virt. eigenvalues --    0.09559   0.09712   0.10723   0.10892   0.11687
  Beta virt. eigenvalues --    0.11977   0.12272   0.12443   0.12819   0.14315

 Mulliken charges and spin densities:
               1          2
     1  C    1.626888  -2.335974
     2  C   -1.621312   2.163396
     3  C    0.486780  -1.145710
     4  C   -0.680989   1.082358
     5  C    0.833772  -1.620607
     6  C    0.545382  -1.077275
     7  C    0.731684  -0.971522
     8  C   -1.450139   1.825499
     9  C    0.903061  -1.633380
    10  C    0.404467  -0.984428
    11  H   -0.244541   0.378999
    12  H   -0.326754   0.475693
    13  H   -0.160475   0.292296
    14  H   -0.509588   0.718935
    15  H   -0.218578   0.362435
    16  H   -0.126555   0.250218
    17  H    0.096480   0.090349
    18  H   -0.199793   0.332561
    19  H   -0.197553   0.360435
    20  H    0.162498  -0.019232
    21  H   -0.065848   0.217340
    22  H   -0.117567   0.273369
    23  H    0.212754  -0.092398
    24  H    0.011989   0.147020
    25  H   -0.117224   0.257456
    26  H   -0.266130   0.405647
    27  H   -0.131606   0.272421
    28  H   -0.241300   0.373491
    29  H   -0.270347   0.407944
    30  H   -0.069454   0.192665
 Sum of Mulliken charges =  -1.00000   1.00000

 Dipole moment (field-independent basis, Debye):
    X=             -1.0722    Y=              2.1645    Z=             -1.1566  Tot=              2.6781
 Quadrupole moment (field-independent basis, Debye-Ang):
   XX=           -145.8845   YY=           -104.8736   ZZ=           -106.0539
   XY=             -0.5349   XZ=              2.2199   YZ=              0.1723

 Summary of Natural Population Analysis:

                                       Natural Population
                Natural  -----------------------------------------------
    Atom  No    Charge         Core      Valence    Rydberg      Total
 -----------------------------------------------------------------------
      C    1   -0.28172      0.99965     2.27687    0.00520     3.28172
      C    2   -0.11109      0.99962     2.09970    0.01176     3.11109
      C    3   -0.18297      0.99962     2.17456    0.00879     3.18297
      C    4   -0.11235      0.99960     2.10296    0.00979     3.11235
      C    5   -0.18661      0.99961     2.17810    0.00890     3.18661
      C    6   -0.18557      0.99960     2.17804    0.00792     3.18557
      C    7   -0.18458      0.99961     2.17698    0.00800     3.18458
      C    8   -0.11894      0.99961     2.10870    0.01063     3.11894
      C    9   -0.28640      0.99965     2.28027    0.00648     3.28640
      C   10   -0.27961      0.99965     2.27495    0.00500     3.27961
      H   11    0.09789      0.00000     0.40063    0.00148     0.40211
      H   12    0.09621      0.00000     0.40216    0.00163     0.40379
      H   13    0.09841      0.00000     0.40013    0.00146     0.40159
      H   14    0.09254      0.00000     0.40608    0.00138     0.40746
      H   15    0.09594      0.00000     0.40303    0.00102     0.40406
      H   16    0.09579      0.00000     0.40280    0.00141     0.40421
      H   17    0.09684      0.00000     0.40102    0.00215     0.40316
      H   18    0.09695      0.00000     0.40162    0.00143     0.40305
      H   19    0.09781      0.00000     0.40095    0.00124     0.40219
      H   20    0.09639      0.00000     0.40225    0.00136     0.40361
      H   21    0.09488      0.00000     0.40376    0.00136     0.40512
      H   22    0.09393      0.00000     0.40497    0.00110     0.40607
      H   23    0.09727      0.00000     0.40132    0.00141     0.40273
      H   24    0.09348      0.00000     0.40418    0.00234     0.40652
      H   25    0.09465      0.00000     0.40431    0.00104     0.40535
      H   26    0.09977      0.00000     0.39914    0.00109     0.40023
      H   27    0.09974      0.00000     0.39917    0.00109     0.40026
      H   28    0.09880      0.00000     0.39996    0.00124     0.40120
      H   29    0.09853      0.00000     0.40030    0.00117     0.40147
      H   30    0.09402      0.00000     0.40476    0.00122     0.40598
 =======================================================================
   * Total *    0.00000      9.99622    29.89367    0.11010    40.00000

 Normal termination of Gaussian 16 at Tue Dec  8 13:29:13 2020.
