 Gaussian 16, Revision A.03,

 -----------------------------------------------------------
 # opt freq B3LYP/6-31G(d) empiricaldispersion=gd3bj scf=xqc
 -----------------------------------------------------------

 -------------------------------
 CID_107913481_JID_4856_neutraal
 -------------------------------
 Symbolic Z-matrix:
 Charge =  0 Multiplicity = 1

 SCF Done:  E(RB3LYP) =  -610.909047894     A.U. after   14 cycles
 SCF Done:  E(RB3LYP) =  -610.912896434     A.U. after   12 cycles
 SCF Done:  E(RB3LYP) =  -610.910130453     A.U. after   14 cycles
 SCF Done:  E(RB3LYP) =  -610.915137193     A.U. after   12 cycles
 SCF Done:  E(RB3LYP) =  -610.915875387     A.U. after   12 cycles
 SCF Done:  E(RB3LYP) =  -610.916808065     A.U. after   12 cycles
 SCF Done:  E(RB3LYP) =  -610.917040771     A.U. after   11 cycles
 SCF Done:  E(RB3LYP) =  -610.917196203     A.U. after   11 cycles
 SCF Done:  E(RB3LYP) =  -610.917348042     A.U. after   11 cycles
 SCF Done:  E(RB3LYP) =  -610.917608987     A.U. after   11 cycles
 SCF Done:  E(RB3LYP) =  -610.917837289     A.U. after   11 cycles
 SCF Done:  E(RB3LYP) =  -610.917865902     A.U. after   11 cycles
 SCF Done:  E(RB3LYP) =  -610.917874296     A.U. after    9 cycles
 SCF Done:  E(RB3LYP) =  -610.917874613     A.U. after    9 cycles
 SCF Done:  E(RB3LYP) =  -610.917874990     A.U. after    8 cycles
 SCF Done:  E(RB3LYP) =  -610.917874933     A.U. after    7 cycles
 Optimization completed.
    -- Stationary point found.
 Normal termination of Gaussian 16 at Thu Dec 10 11:03:09 2020.

 --------------------------------------------------------------------
 #N Geom=AllCheck Guess=TCheck SCRF=Check GenChk RB3LYP/6-31G(d) Freq
 --------------------------------------------------------------------

 Structure from the checkpoint file:  "JID_4856.chk"
 -------------------------------
 CID_107913481_JID_4856_neutraal
 -------------------------------
 Charge =  0 Multiplicity = 1

 SCF Done:  E(RB3LYP) =  -610.917874933     A.U. after    1 cycles

  Exact polarizability: 148.248  11.614 113.864  -4.938   3.289 110.262
 Approx polarizability: 191.905  22.756 167.657  -8.588   9.470 181.032

                      1                      2                      3
                      A                      A                      A
 Frequencies --     37.5735                46.5423                69.5502
 Red. masses --      4.3000                 2.8816                 3.3115
 Frc consts  --      0.0036                 0.0037                 0.0094
 IR Inten    --      0.3793                 4.2884                 1.2858

                      4                      5                      6
                      A                      A                      A
 Frequencies --     86.2538               131.1831               141.6638
 Red. masses --      3.6172                 2.7894                 2.3684
 Frc consts  --      0.0159                 0.0283                 0.0280
 IR Inten    --      0.9349                 1.9074                 1.2667

                      7                      8                      9
                      A                      A                      A
 Frequencies --    154.0640               176.9599               211.7912
 Red. masses --      2.8658                 2.6287                 3.7549
 Frc consts  --      0.0401                 0.0485                 0.0992
 IR Inten    --      0.1839                 1.9461                 2.0734

                     10                     11                     12
                      A                      A                      A
 Frequencies --    255.6142               311.4089               352.6479
 Red. masses --      1.6968                 1.5594                 2.4136
 Frc consts  --      0.0653                 0.0891                 0.1768
 IR Inten    --     23.3522                21.5603                15.4418

                     13                     14                     15
                      A                      A                      A
 Frequencies --    374.1462               414.9050               452.7162
 Red. masses --      2.9498                 1.7963                 3.3858
 Frc consts  --      0.2433                 0.1822                 0.4088
 IR Inten    --      2.1762                 0.0442                 9.9569

                     16                     17                     18
                      A                      A                      A
 Frequencies --    527.6118               609.9417               622.7229
 Red. masses --      2.6831                 3.7255                 3.1168
 Frc consts  --      0.4401                 0.8166                 0.7121
 IR Inten    --      9.0417                 8.7107                20.5880

                     19                     20                     21
                      A                      A                      A
 Frequencies --    641.7880               649.1429               687.8966
 Red. masses --      4.0475                 3.1885                 3.5832
 Frc consts  --      0.9823                 0.7916                 0.9990
 IR Inten    --      1.5705                 0.4606                 6.9758

                     22                     23                     24
                      A                      A                      A
 Frequencies --    722.0627               752.2897               788.9596
 Red. masses --      3.1221                 1.5951                 1.3474
 Frc consts  --      0.9591                 0.5319                 0.4942
 IR Inten    --     10.4632                 9.8389                20.0571

                     25                     26                     27
                      A                      A                      A
 Frequencies --    833.5548               868.1913               870.6968
 Red. masses --      1.6237                 1.5504                 1.3349
 Frc consts  --      0.6647                 0.6885                 0.5962
 IR Inten    --      4.1158                20.6088                41.7097

                     28                     29                     30
                      A                      A                      A
 Frequencies --    881.1202               899.4022               924.2318
 Red. masses --      1.3437                 3.3114                 2.4393
 Frc consts  --      0.6146                 1.5782                 1.2276
 IR Inten    --     70.7842                 3.0725                 4.4340

                     31                     32                     33
                      A                      A                      A
 Frequencies --    931.4522               953.8502               964.6649
 Red. masses --      2.5352                 2.3388                 1.5980
 Frc consts  --      1.2960                 1.2537                 0.8762
 IR Inten    --      7.1364                 4.9999                 4.0056

                     34                     35                     36
                      A                      A                      A
 Frequencies --   1008.1472              1014.4184              1034.6750
 Red. masses --      3.1688                 1.7521                 4.4369
 Frc consts  --      1.8976                 1.0623                 2.7986
 IR Inten    --     41.0475                25.7144                 3.7701

                     37                     38                     39
                      A                      A                      A
 Frequencies --   1046.6279              1056.4014              1077.5530
 Red. masses --      2.4107                 2.5110                 2.4972
 Frc consts  --      1.5559                 1.6510                 1.7084
 IR Inten    --      2.4867                 6.6325                 3.2100

                     40                     41                     42
                      A                      A                      A
 Frequencies --   1127.6947              1138.0717              1153.6436
 Red. masses --      2.0685                 1.7764                 1.8623
 Frc consts  --      1.5498                 1.3556                 1.4603
 IR Inten    --      8.1263                39.4803                 7.4998

                     43                     44                     45
                      A                      A                      A
 Frequencies --   1177.7512              1198.5627              1214.7416
 Red. masses --      1.6582                 1.3609                 1.5734
 Frc consts  --      1.3551                 1.1519                 1.3679
 IR Inten    --     26.5501                 2.7950                 8.4914

                     46                     47                     48
                      A                      A                      A
 Frequencies --   1229.7288              1236.4254              1258.5016
 Red. masses --      1.3115                 1.3102                 1.4527
 Frc consts  --      1.1685                 1.1801                 1.3556
 IR Inten    --      2.5683                 0.3887                 5.7790

                     49                     50                     51
                      A                      A                      A
 Frequencies --   1272.0291              1309.1720              1318.2936
 Red. masses --      1.1721                 1.4005                 1.3531
 Frc consts  --      1.1174                 1.4143                 1.3855
 IR Inten    --      1.9591                 5.7195                 2.1364

                     52                     53                     54
                      A                      A                      A
 Frequencies --   1335.2652              1343.0133              1360.7303
 Red. masses --      1.3422                 1.3424                 1.6282
 Frc consts  --      1.4099                 1.4266                 1.7762
 IR Inten    --      1.1789                 6.2884                 0.5365

                     55                     56                     57
                      A                      A                      A
 Frequencies --   1376.2841              1388.6240              1395.6802
 Red. masses --      1.4047                 1.2508                 1.9126
 Frc consts  --      1.5676                 1.4211                 2.1951
 IR Inten    --      3.9375                 7.4686                37.1126

                     58                     59                     60
                      A                      A                      A
 Frequencies --   1402.6938              1412.3893              1424.2931
 Red. masses --      2.5061                 1.5061                 1.3198
 Frc consts  --      2.9052                 1.7701                 1.5775
 IR Inten    --     23.9076                25.5588                45.2701

                     61                     62                     63
                      A                      A                      A
 Frequencies --   1436.8435              1452.6122              1481.7821
 Red. masses --      3.1980                 2.2541                 2.5700
 Frc consts  --      3.8899                 2.8023                 3.3248
 IR Inten    --     13.4306                36.6890                 2.9580

                     64                     65                     66
                      A                      A                      A
 Frequencies --   1503.4397              1518.4180              1523.4211
 Red. masses --      1.0922                 1.1607                 1.0978
 Frc consts  --      1.4546                 1.5767                 1.5010
 IR Inten    --      3.9183                 2.5298                 1.2711

                     67                     68                     69
                      A                      A                      A
 Frequencies --   1532.5816              1535.7669              1541.9370
 Red. masses --      1.0892                 1.1020                 1.0930
 Frc consts  --      1.5073                 1.5314                 1.5311
 IR Inten    --      2.3859                 8.0538                 0.1300

                     70                     71                     72
                      A                      A                      A
 Frequencies --   1554.8275              1623.0054              1690.7791
 Red. masses --      1.1001                 5.0960                 1.0994
 Frc consts  --      1.5669                 7.9089                 1.8517
 IR Inten    --      5.8705                15.8917                29.8000

                     73                     74                     75
                      A                      A                      A
 Frequencies --   2951.8683              3015.8306              3019.3449
 Red. masses --      1.0744                 1.0720                 1.0703
 Frc consts  --      5.5159                 5.7447                 5.7491
 IR Inten    --     81.3319                45.3497                80.8332

                     76                     77                     78
                      A                      A                      A
 Frequencies --   3026.0025              3040.4814              3040.8458
 Red. masses --      1.0694                 1.0863                 1.0717
 Frc consts  --      5.7695                 5.9168                 5.8388
 IR Inten    --     33.9256                53.3073                86.3764

                     79                     80                     81
                      A                      A                      A
 Frequencies --   3071.8173              3077.5840              3080.5194
 Red. masses --      1.0656                 1.0978                 1.0653
 Frc consts  --      5.9244                 6.1261                 5.9561
 IR Inten    --     31.2689                18.5927                58.2571

                     82                     83                     84
                      A                      A                      A
 Frequencies --   3095.9039              3116.3687              3124.6892
 Red. masses --      1.0934                 1.0927                 1.1016
 Frc consts  --      6.1748                 6.2523                 6.3369
 IR Inten    --     27.0568                17.0057                 9.5471

                     85                     86                     87
                      A                      A                      A
 Frequencies --   3139.2975              3149.5239              3268.3813
 Red. masses --      1.1016                 1.0920                 1.0967
 Frc consts  --      6.3966                 6.3819                 6.9025
 IR Inten    --     42.3803                 9.1870                 1.3358

                     88                     89                     90
                      A                      A                      A
 Frequencies --   3273.3104              3464.1167              3553.9120
 Red. masses --      1.0965                 1.0494                 1.0930
 Frc consts  --      6.9220                 7.4195                 8.1339
 IR Inten    --      1.7009                 4.6556                 1.3098

 - Thermochemistry -
 -------------------
 Temperature   298.150 Kelvin.  Pressure   1.00000 Atm.
 Atom     1 has atomic number  6 and mass  12.00000

 Molecular mass:   194.15315 amu.
 Principal axes and moments of inertia in atomic units:
                           1         2         3
     Eigenvalues --  1295.868024430.280084641.66202
           X            0.99993   0.00150  -0.01175
           Y           -0.00122   0.99972   0.02369
           Z            0.01179  -0.02367   0.99965
 This molecule is an asymmetric top.
 Rotational symmetry number  1.
 Warning -- assumption of classical behavior for rotation
           may cause significant error
 Rotational temperatures (Kelvin)      0.06684     0.01955     0.01866
 Rotational constants (GHZ):           1.39269     0.40737     0.38881
 Zero-point vibrational energy     751034.9 (Joules/Mol)
                                  179.50164 (Kcal/Mol)
 Warning -- explicit consideration of  17 degrees of freedom as
           vibrations may cause significant error
 Vibrational temperatures:     54.06    66.96   100.07   124.10   188.74
          (Kelvin)            203.82   221.66   254.61   304.72   367.77
                              448.05   507.38   538.31   596.96   651.36
                              759.12   877.57   895.96   923.39   933.97
                              989.73  1038.89  1082.38  1135.14  1199.30
                             1249.13  1252.74  1267.74  1294.04  1329.76
                             1340.15  1372.38  1387.94  1450.50  1459.52
                             1488.67  1505.86  1519.93  1550.36  1622.50
                             1637.43  1659.84  1694.52  1724.46  1747.74
                             1769.31  1778.94  1810.70  1830.17  1883.61
                             1896.73  1921.15  1932.30  1957.79  1980.17
                             1997.92  2008.07  2018.16  2032.11  2049.24
                             2067.30  2089.98  2131.95  2163.11  2184.66
                             2191.86  2205.04  2209.63  2218.50  2237.05
                             2335.14  2432.65  4247.08  4339.11  4344.16
                             4353.74  4374.57  4375.10  4419.66  4427.96
                             4432.18  4454.32  4483.76  4495.73  4516.75
                             4531.46  4702.47  4709.56  4984.09  5113.29

 Zero-point correction=                           0.286054 (Hartree/Particle)
 Thermal correction to Energy=                    0.299562
 Thermal correction to Enthalpy=                  0.300506
 Thermal correction to Gibbs Free Energy=         0.244889
 Sum of electronic and zero-point Energies=           -610.631821
 Sum of electronic and thermal Energies=              -610.618313
 Sum of electronic and thermal Enthalpies=            -610.617369
 Sum of electronic and thermal Free Energies=         -610.672986

                     E (Thermal)             CV                S
                      KCal/Mol        Cal/Mol-Kelvin    Cal/Mol-Kelvin
 Total                  187.978             51.359            117.057
 Electronic               0.000              0.000              0.000
 Translational            0.889              2.981             41.696
 Rotational               0.889              2.981             31.655
 Vibrational            186.201             45.397             43.706
 Vibration     1          0.594              1.982              5.383
 Vibration     2          0.595              1.979              4.959
 Vibration     3          0.598              1.969              4.166
 Vibration     4          0.601              1.959              3.743
 Vibration     5          0.612              1.922              2.929
 Vibration     6          0.615              1.912              2.781
 Vibration     7          0.620              1.898              2.621
 Vibration     8          0.628              1.871              2.360
 Vibration     9          0.643              1.823              2.028
 Vibration    10          0.666              1.753              1.692
 Vibration    11          0.700              1.652              1.355
 Vibration    12          0.729              1.570              1.154
 Vibration    13          0.745              1.525              1.063
 Vibration    14          0.778              1.438              0.909
 Vibration    15          0.811              1.355              0.788
 Vibration    16          0.883              1.189              0.593
 Vibration    17          0.969              1.011              0.433

 Optimization completed.
    -- Stationary point found.
 Normal termination of Gaussian 16 at Thu Dec 10 11:12:50 2020.

 ----------------------------------------------------------------------
 # B3LYP/6-311++G(d,p) empiricaldispersion=gd3bj scf=xqc pop=npa geom=c
 heck
 ----------------------------------------------------------------------

 ---------------------------------------
 CID_107913481_JID_4856_Energie_neutraal
 ---------------------------------------
 Structure from the checkpoint file:  "JID_4856.chk"
 Charge =  0 Multiplicity = 1

 SCF Done:  E(RB3LYP) =  -611.089515649     A.U. after   14 cycles
 Normal termination of Gaussian 16 at Thu Dec 10 11:17:09 2020.

 ----------------------------------------------------------------------
 # B3LYP/6-311++G(d,p) empiricaldispersion=gd3bj scf=xqc pop=npa geom=c
 heck
 ----------------------------------------------------------------------

 -------------------------------------
 CID_107913481_JID_4856_Energie_kation
 -------------------------------------
 Structure from the checkpoint file:  "JID_4856.chk"
 Charge =  1 Multiplicity = 2

 SCF Done:  E(UB3LYP) =  -610.813870268     A.U. after   22 cycles
 Normal termination of Gaussian 16 at Thu Dec 10 11:25:27 2020.
 Gaussian 16:  ES64L-G16RevA.03 25-Dec-2016

 ----------------------------------------------------------------------
 # B3LYP/6-311++G(d,p) empiricaldispersion=gd3bj scf=xqc pop=npa geom=c
 heck
 ----------------------------------------------------------------------

 ------------------------------------
 CID_107913481_JID_4856_Energie_anion
 ------------------------------------
 Structure from the checkpoint file:  "JID_4856.chk"
 Charge = -1 Multiplicity = 2

                         Standard orientation:
 ---------------------------------------------------------------------
 Center     Atomic      Atomic             Coordinates (Angstroms)
 Number     Number       Type             X           Y           Z
 ---------------------------------------------------------------------
      1          6           0        1.383819   -1.812544    0.168117
      2          6           0        2.260258   -1.318211   -1.010738
      3          6           0        3.233091   -0.307217   -0.359375
      4          7           0        2.553243    0.229022    0.822385
      5          6           0        1.762932   -0.886527    1.358126
      6          6           0        1.916968    1.524678    0.685616
      7          6           0        0.936640    1.779387   -0.479633
      8          7           0       -0.276430    0.978990   -0.438250
      9          6           0       -1.168413    0.854563    0.581787
     10          6           0       -2.184176    0.023630    0.140418
     11          6           0       -1.815006   -0.288873   -1.191229
     12          7           0       -0.667551    0.293986   -1.539412
     13          6           0       -3.394919   -0.442898    0.891520
     14          7           0       -4.579213   -0.403270    0.023012
     15          1           0        0.323237   -1.729486   -0.079490
     16          1           0        1.583560   -2.860427    0.415225
     17          1           0        1.629105   -0.826969   -1.755995
     18          1           0        2.794847   -2.132706   -1.510269
     19          1           0        4.147698   -0.824111   -0.034728
     20          1           0        3.540813    0.501596   -1.030396
     21          1           0        0.892468   -0.514939    1.904144
     22          1           0        2.386090   -1.441247    2.073943
     23          1           0        1.414239    1.749097    1.633934
     24          1           0        2.704400    2.284033    0.578214
     25          1           0        0.669773    2.845279   -0.481505
     26          1           0        1.400922    1.555789   -1.441383
     27          1           0       -1.021928    1.353319    1.529332
     28          1           0       -2.351306   -0.905121   -1.899164
     29          1           0       -3.263720   -1.487658    1.205067
     30          1           0       -3.488511    0.146882    1.821524
     31          1           0       -5.396892   -0.721259    0.540810
     32          1           0       -4.762310    0.560893   -0.251062
 ---------------------------------------------------------------------

 SCF Done:  E(UB3LYP) =  -611.076574240     A.U. after   32 cycles

 The electronic state is 2-A.
 Alpha  occ. eigenvalues --  -14.28669 -14.22701 -14.20354 -14.19410 -10.11315
 Alpha  occ. eigenvalues --  -10.10366 -10.10068 -10.09792 -10.09599 -10.09144
 Alpha  occ. eigenvalues --  -10.08348 -10.06932 -10.06573 -10.06440  -0.94856
 Alpha  occ. eigenvalues --   -0.83495  -0.78533  -0.74464  -0.68971  -0.68075
 Alpha  occ. eigenvalues --   -0.63066  -0.62504  -0.57949  -0.54504  -0.48639
 Alpha  occ. eigenvalues --   -0.48403  -0.48034  -0.45969  -0.42386  -0.40648
 Alpha  occ. eigenvalues --   -0.38702  -0.38406  -0.36562  -0.35816  -0.34941
 Alpha  occ. eigenvalues --   -0.33753  -0.33027  -0.31274  -0.30366  -0.29722
 Alpha  occ. eigenvalues --   -0.29345  -0.28345  -0.27362  -0.26091  -0.25443
 Alpha  occ. eigenvalues --   -0.24668  -0.24287  -0.22315  -0.19443  -0.15754
 Alpha  occ. eigenvalues --   -0.15139  -0.13775  -0.11291   0.04318
 Alpha virt. eigenvalues --    0.06010   0.06720   0.07629   0.08611   0.08798
 Alpha virt. eigenvalues --    0.08983   0.09828   0.09990   0.10529   0.10872
 Alpha virt. eigenvalues --    0.11171   0.11797   0.12403   0.13421   0.13883

  Beta  occ. eigenvalues --  -14.28672 -14.22686 -14.20355 -14.19376 -10.11295
  Beta  occ. eigenvalues --  -10.10338 -10.10044 -10.09760 -10.09581 -10.09131
  Beta  occ. eigenvalues --  -10.08335 -10.06933 -10.06570 -10.06435  -0.94844
  Beta  occ. eigenvalues --   -0.83485  -0.78474  -0.74438  -0.68940  -0.68054
  Beta  occ. eigenvalues --   -0.63035  -0.62476  -0.57884  -0.54450  -0.48618
  Beta  occ. eigenvalues --   -0.48353  -0.48010  -0.45914  -0.42348  -0.40618
  Beta  occ. eigenvalues --   -0.38666  -0.38369  -0.36521  -0.35782  -0.34877
  Beta  occ. eigenvalues --   -0.33722  -0.33003  -0.31235  -0.30342  -0.29691
  Beta  occ. eigenvalues --   -0.29304  -0.28307  -0.27329  -0.26066  -0.25416
  Beta  occ. eigenvalues --   -0.24656  -0.24267  -0.22303  -0.19420  -0.15714
  Beta  occ. eigenvalues --   -0.15093  -0.13740  -0.11266
  Beta virt. eigenvalues --    0.06413   0.07084   0.07461   0.08236   0.08822
  Beta virt. eigenvalues --    0.09262   0.09438   0.10056   0.10296   0.10696
  Beta virt. eigenvalues --    0.11285   0.11451   0.12349   0.12747   0.13469

 Mulliken charges and spin densities:
               1          2
     1  C   -0.159537   0.113095
     2  C   -0.454498  -0.042065
     3  C    0.214210  -0.562575
     4  N    0.022356   0.134171
     5  C   -0.077021  -0.347151
     6  C    0.232474  -0.763409
     7  C    0.205568  -0.313416
     8  N    0.381669  -0.003001
     9  C   -0.034660  -0.424179
    10  C   -0.903986   1.368304
    11  C   -0.397329   0.201057
    12  N   -0.339268   0.100814
    13  C    2.645668  -3.475038
    14  N   -0.528243   0.189592
    15  H    0.165381  -0.051188
    16  H    0.009486   0.162766
    17  H    0.190437  -0.025084
    18  H    0.057823   0.087876
    19  H    0.107655   0.043926
    20  H   -0.152193   0.292674
    21  H    0.127308  -0.003692
    22  H   -0.058396   0.225763
    23  H   -0.219812   0.398111
    24  H   -0.488729   0.666662
    25  H   -0.391664   0.583093
    26  H    0.168583   0.007602
    27  H   -0.602293   0.761464
    28  H    0.103480   0.049387
    29  H   -0.101621   0.290528
    30  H   -0.656481   0.822103
    31  H   -0.071522   0.304688
    32  H    0.005153   0.207124
 Sum of Mulliken charges =  -1.00000   1.00000

 Dipole moment (field-independent basis, Debye):
    X=              4.1313    Y=             -3.4745    Z=             -3.4285  Tot=              6.3949
 Quadrupole moment (field-independent basis, Debye-Ang):
   XX=           -166.6511   YY=           -127.6042   ZZ=           -125.4198
   XY=             -6.0373   XZ=              5.4701   YZ=             -4.6379

 Summary of Natural Population Analysis:

                                       Natural Population
                Natural  -----------------------------------------------
    Atom  No    Charge         Core      Valence    Rydberg      Total
 -----------------------------------------------------------------------
      C    1   -0.20571      0.99964     2.19875    0.00733     3.20571
      C    2   -0.20686      0.99964     2.20060    0.00663     3.20686
      C    3   -0.08619      0.99963     2.07628    0.01028     3.08619
      N    4   -0.28161      0.99974     2.76774    0.01414     3.78161
      C    5   -0.08430      0.99962     2.07473    0.00994     3.08430
      C    6   -0.08533      0.99959     2.07216    0.01358     3.08533
      C    7   -0.09360      0.99959     2.08217    0.01183     3.09360
      N    8   -0.11553      0.99966     2.60020    0.01567     3.61553
      C    9   -0.00655      0.99948     1.99424    0.01282     3.00655
      C   10   -0.07622      0.99952     2.06511    0.01159     3.07622
      C   11   -0.00927      0.99956     1.99555    0.01415     3.00927
      N   12   -0.15505      0.99973     2.64421    0.01111     3.65505
      C   13   -0.09363      0.99960     2.08203    0.01201     3.09363
      N   14   -0.42026      0.99978     2.91006    0.01041     3.92026
      H   15    0.10688      0.00000     0.39155    0.00157     0.39312
      H   16    0.09344      0.00000     0.40533    0.00123     0.40656
      H   17    0.10749      0.00000     0.39099    0.00152     0.39251
      H   18    0.09439      0.00000     0.40457    0.00104     0.40561
      H   19    0.08903      0.00000     0.40996    0.00101     0.41097
      H   20    0.09598      0.00000     0.40311    0.00091     0.40402
      H   21    0.10001      0.00000     0.39884    0.00115     0.39999
      H   22    0.08731      0.00000     0.41156    0.00114     0.41269
      H   23    0.09909      0.00000     0.39908    0.00183     0.40091
      H   24    0.09862      0.00000     0.39966    0.00172     0.40138
      H   25    0.10091      0.00000     0.39718    0.00190     0.39909
      H   26    0.10617      0.00000     0.39199    0.00184     0.39383
      H   27    0.10947      0.00000     0.38835    0.00217     0.39053
      H   28    0.10209      0.00000     0.39699    0.00092     0.39791
      H   29    0.09312      0.00000     0.40554    0.00134     0.40688
      H   30    0.08730      0.00000     0.40901    0.00368     0.41270
      H   31    0.17541      0.00000     0.32211    0.00248     0.32459
      H   32    0.17340      0.00000     0.32457    0.00202     0.32660
 =======================================================================
   * Total *   -0.00000     13.99478    38.81423    0.19099    53.00000

 Normal termination of Gaussian 16 at Thu Dec 10 11:37:48 2020.
