 Gaussian 16, Revision A.03,

 -----------------------------------------------------------
 # opt freq B3LYP/6-31G(d) empiricaldispersion=gd3bj scf=xqc
 -----------------------------------------------------------

 ------------------------------
 CID_28819143_JID_3839_neutraal
 ------------------------------
 Symbolic Z-matrix:
 Charge =  0 Multiplicity = 1

 SCF Done:  E(RB3LYP) =  -665.880661812     A.U. after   15 cycles
 SCF Done:  E(RB3LYP) =  -665.883391042     A.U. after   12 cycles
 SCF Done:  E(RB3LYP) =  -665.883546320     A.U. after   11 cycles
 SCF Done:  E(RB3LYP) =  -665.883552783     A.U. after   10 cycles
 SCF Done:  E(RB3LYP) =  -665.883568947     A.U. after   10 cycles
 SCF Done:  E(RB3LYP) =  -665.883571902     A.U. after    9 cycles
 SCF Done:  E(RB3LYP) =  -665.883572363     A.U. after    8 cycles
 Optimization completed.
    -- Stationary point found.
 Normal termination of Gaussian 16 at Sun Dec 13 12:16:53 2020.

 --------------------------------------------------------------------
 #N Geom=AllCheck Guess=TCheck SCRF=Check GenChk RB3LYP/6-31G(d) Freq
 --------------------------------------------------------------------

 Structure from the checkpoint file:  "JID_3839.chk"
 ------------------------------
 CID_28819143_JID_3839_neutraal
 ------------------------------
 Charge =  0 Multiplicity = 1

 SCF Done:  E(RB3LYP) =  -665.883572363     A.U. after    1 cycles

  Exact polarizability: 170.074   3.158 109.130  -0.204   0.354  49.940
 Approx polarizability: 241.595  21.605 185.091  -0.177   0.564  75.013

 ******    1 imaginary frequencies (negative Signs) ******

                      1                      2                      3
                      A                      A                      A
 Frequencies --    -34.8708                45.0381                61.1688
 Red. masses --      1.0992                 5.0453                 5.0602
 Frc consts  --      0.0008                 0.0060                 0.0112
 IR Inten    --      0.2145                 0.1848                 1.0939

                      4                      5                      6
                      A                      A                      A
 Frequencies --    104.9866               107.8649               137.0137
 Red. masses --      3.4196                 3.8150                 1.2951
 Frc consts  --      0.0222                 0.0262                 0.0143
 IR Inten    --      0.8512                 0.9239                 0.0010

                      7                      8                      9
                      A                      A                      A
 Frequencies --    158.9072               167.0235               228.6594
 Red. masses --      3.9323                 4.1258                 4.5829
 Frc consts  --      0.0585                 0.0678                 0.1412
 IR Inten    --      0.0202                 0.2756                 8.0711

                     10                     11                     12
                      A                      A                      A
 Frequencies --    252.7389               292.3185               292.6453
 Red. masses --      5.9694                 5.0414                 3.7183
 Frc consts  --      0.2247                 0.2538                 0.1876
 IR Inten    --      2.6014                 3.9391                 6.9862

                     13                     14                     15
                      A                      A                      A
 Frequencies --    366.1454               394.7194               424.9509
 Red. masses --      4.3069                 7.3668                 1.3695
 Frc consts  --      0.3402                 0.6762                 0.1457
 IR Inten    --     14.2048                 1.0619                80.3590

                     16                     17                     18
                      A                      A                      A
 Frequencies --    538.1072               545.7234               576.2123
 Red. masses --      4.8720                 3.4285                 5.9602
 Frc consts  --      0.8312                 0.6016                 1.1659
 IR Inten    --      1.1399                41.7282                 5.0237

                     19                     20                     21
                      A                      A                      A
 Frequencies --    639.9347               691.1766               716.2033
 Red. masses --      4.5155                 5.7548                 4.5994
 Frc consts  --      1.0895                 1.6198                 1.3900
 IR Inten    --      0.0687                 1.7236                14.6110

                     22                     23                     24
                      A                      A                      A
 Frequencies --    768.6166               813.2921               852.4676
 Red. masses --      6.1998                 5.2586                 4.9912
 Frc consts  --      2.1580                 2.0493                 2.1370
 IR Inten    --     21.7566                20.9687                18.7940

                     25                     26                     27
                      A                      A                      A
 Frequencies --    854.4636               906.9494               955.2096
 Red. masses --      1.3900                 1.2761                 7.0027
 Frc consts  --      0.5979                 0.6184                 3.7646
 IR Inten    --      5.7730                16.6298               210.5771

                     28                     29                     30
                      A                      A                      A
 Frequencies --    974.4434               998.5401              1028.4678
 Red. masses --      3.9945                 4.9164                 2.3124
 Frc consts  --      2.2347                 2.8882                 1.4411
 IR Inten    --      6.8515                 4.1482                42.7528

                     31                     32                     33
                      A                      A                      A
 Frequencies --   1070.6456              1123.6269              1164.8506
 Red. masses --      1.4714                 3.3133                 1.7881
 Frc consts  --      0.9937                 2.4646                 1.4295
 IR Inten    --      5.3942               118.2619                69.6343

                     34                     35                     36
                      A                      A                      A
 Frequencies --   1186.1156              1221.7311              1261.9448
 Red. masses --      1.2730                 1.5442                 6.5300
 Frc consts  --      1.0552                 1.3580                 6.1269
 IR Inten    --      0.8956                21.1333               297.5697

                     37                     38                     39
                      A                      A                      A
 Frequencies --   1287.4515              1334.5544              1369.8616
 Red. masses --      5.7866                 5.4976                 1.3433
 Frc consts  --      5.6511                 5.7689                 1.4851
 IR Inten    --      9.8107                28.2253                51.2520

                     40                     41                     42
                      A                      A                      A
 Frequencies --   1404.4795              1438.9939              1466.6296
 Red. masses --      1.3581                 1.2863                 2.2283
 Frc consts  --      1.5784                 1.5693                 2.8240
 IR Inten    --     89.3097                14.4278                83.1577

                     43                     44                     45
                      A                      A                      A
 Frequencies --   1498.7616              1500.5453              1511.7954
 Red. masses --      1.0895                 1.4752                 1.0486
 Frc consts  --      1.4420                 1.9570                 1.4121
 IR Inten    --     14.4096                74.3508                 5.4560

                     46                     47                     48
                      A                      A                      A
 Frequencies --   1515.3026              1526.2843              1572.9837
 Red. masses --      1.1408                 1.0536                 6.7307
 Frc consts  --      1.5433                 1.4461                 9.8121
 IR Inten    --      2.5179                 5.3175                20.7448

                     49                     50                     51
                      A                      A                      A
 Frequencies --   1630.9457              1728.7694              1806.8099
 Red. masses --      7.0370                 6.3240                11.8742
 Frc consts  --     11.0284                11.1356                22.8391
 IR Inten    --     30.0646                25.8370               326.2715

                     52                     53                     54
                      A                      A                      A
 Frequencies --   3061.8220              3075.7471              3126.7107
 Red. masses --      1.0418                 1.0294                 1.0931
 Frc consts  --      5.7543                 5.7375                 6.2965
 IR Inten    --     11.2733                39.2626                 6.1636

                     55                     56                     57
                      A                      A                      A
 Frequencies --   3150.3704              3163.9345              3181.2818
 Red. masses --      1.1075                 1.1043                 1.1072
 Frc consts  --      6.4762                 6.5131                 6.6022
 IR Inten    --     20.5790                 5.3654                16.7801

                     58                     59                     60
                      A                      A                      A
 Frequencies --   3189.0424              3286.1935              3750.9942
 Red. masses --      1.0884                 1.0972                 1.0678
 Frc consts  --      6.5218                 6.9813                 8.8517
 IR Inten    --      6.8785                 3.1719                93.2929

 - Thermochemistry -
 -------------------
 Temperature   298.150 Kelvin.  Pressure   1.00000 Atm.
 Atom     1 has atomic number  6 and mass  12.00000

 Molecular mass:   183.05316 amu.
 Principal axes and moments of inertia in atomic units:
                           1         2         3
     Eigenvalues --   847.916634505.239555330.52663
           X            0.99995  -0.00952  -0.00010
           Y            0.00952   0.99995  -0.00016
           Z            0.00011   0.00016   1.00000
 This molecule is an asymmetric top.
 Rotational symmetry number  1.
 Warning -- assumption of classical behavior for rotation
           may cause significant error
 Rotational temperatures (Kelvin)      0.10215     0.01923     0.01625
 Rotational constants (GHZ):           2.12844     0.40059     0.33857
    1 imaginary frequencies ignored.
 Zero-point vibrational energy     439646.6 (Joules/Mol)
                                  105.07805 (Kcal/Mol)
 Warning -- explicit consideration of  17 degrees of freedom as
           vibrations may cause significant error
 Vibrational temperatures:     64.80    88.01   151.05   155.19   197.13
          (Kelvin)            228.63   240.31   328.99   363.63   420.58
                              421.05   526.80   567.91   611.41   774.22
                              785.17   829.04   920.72   994.45  1030.46
                             1105.87  1170.15  1226.51  1229.38  1304.90
                             1374.33  1402.01  1436.68  1479.74  1540.42
                             1616.65  1675.96  1706.56  1757.80  1815.66
                             1852.36  1920.13  1970.93  2020.73  2070.39
                             2110.15  2156.38  2158.95  2175.14  2180.18
                             2195.98  2263.17  2346.57  2487.31  2599.60
                             4405.28  4425.31  4498.64  4532.68  4552.20
                             4577.15  4588.32  4728.10  5396.84

 Zero-point correction=                           0.167453 (Hartree/Particle)
 Thermal correction to Energy=                    0.179721
 Thermal correction to Enthalpy=                  0.180665
 Thermal correction to Gibbs Free Energy=         0.128041
 Sum of electronic and zero-point Energies=           -665.716120
 Sum of electronic and thermal Energies=              -665.703852
 Sum of electronic and thermal Enthalpies=            -665.702908
 Sum of electronic and thermal Free Energies=         -665.755531

                     E (Thermal)             CV                S
                      KCal/Mol        Cal/Mol-Kelvin    Cal/Mol-Kelvin
 Total                  112.776             43.950            110.756
 Electronic               0.000              0.000              0.000
 Translational            0.889              2.981             41.520
 Rotational               0.889              2.981             31.388
 Vibrational            110.999             37.989             37.848
 Vibration     1          0.595              1.979              5.024
 Vibration     2          0.597              1.973              4.419
 Vibration     3          0.605              1.945              3.360
 Vibration     4          0.606              1.943              3.307
 Vibration     5          0.614              1.916              2.845
 Vibration     6          0.621              1.893              2.563
 Vibration     7          0.624              1.883              2.469
 Vibration     8          0.651              1.797              1.889
 Vibration     9          0.664              1.758              1.711
 Vibration    10          0.688              1.688              1.461
 Vibration    11          0.688              1.687              1.459
 Vibration    12          0.739              1.542              1.096
 Vibration    13          0.762              1.481              0.982
 Vibration    14          0.787              1.416              0.875
 Vibration    15          0.893              1.166              0.569
 Vibration    16          0.901              1.149              0.553
 Vibration    17          0.933              1.083              0.492

                           ! Non-Optimized Parameters !
 Normal termination of Gaussian 16 at Sun Dec 13 12:21:07 2020.

 ----------------------------------------------------------------------
 # B3LYP/6-311++G(d,p) empiricaldispersion=gd3bj scf=xqc pop=npa geom=c
 heck
 ----------------------------------------------------------------------

 --------------------------------------
 CID_28819143_JID_3839_Energie_neutraal
 --------------------------------------
 Structure from the checkpoint file:  "JID_3839.chk"
 Charge =  0 Multiplicity = 1

 SCF Done:  E(RB3LYP) =  -666.082111088     A.U. after   15 cycles
 Normal termination of Gaussian 16 at Sun Dec 13 12:22:35 2020.

 ----------------------------------------------------------------------
 # B3LYP/6-311++G(d,p) empiricaldispersion=gd3bj scf=xqc pop=npa geom=c
 heck
 ----------------------------------------------------------------------

 ------------------------------------
 CID_28819143_JID_3839_Energie_kation
 ------------------------------------
 Structure from the checkpoint file:  "JID_3839.chk"
 Charge =  1 Multiplicity = 2

 SCF Done:  E(UB3LYP) =  -665.782784160     A.U. after   20 cycles
 Normal termination of Gaussian 16 at Sun Dec 13 12:25:12 2020.
 Gaussian 16:  ES64L-G16RevA.03 25-Dec-2016

 ----------------------------------------------------------------------
 # B3LYP/6-311++G(d,p) empiricaldispersion=gd3bj scf=xqc pop=npa geom=c
 heck
 ----------------------------------------------------------------------

 -----------------------------------
 CID_28819143_JID_3839_Energie_anion
 -----------------------------------
 Structure from the checkpoint file:  "JID_3839.chk"
 Charge = -1 Multiplicity = 2

                         Standard orientation:
 ---------------------------------------------------------------------
 Center     Atomic      Atomic             Coordinates (Angstroms)
 Number     Number       Type             X           Y           Z
 ---------------------------------------------------------------------
      1          6           0       -0.548418    2.313868   -0.007947
      2          6           0       -0.068432    0.906398   -0.011097
      3          6           0       -0.694647   -0.324063   -0.005380
      4          6           0        0.340738   -1.307288    0.002639
      5          6           0        1.529688   -0.627740    0.002619
      6          8           0        1.273099    0.727806   -0.005811
      7          6           0        2.876510   -1.143769    0.006434
      8          7           0        4.026369   -0.566260    0.006465
      9          8           0        3.937260    0.829941    0.001181
     10          6           0       -2.127312   -0.633993   -0.005081
     11          8           0       -2.587313   -1.758823   -0.016818
     12          8           0       -2.894951    0.485542    0.013409
     13          6           0       -4.310204    0.247141    0.012543
     14          1           0       -0.957295    2.587882    0.971891
     15          1           0        0.281694    2.984974   -0.240567
     16          1           0       -1.349373    2.449677   -0.738586
     17          1           0        0.196679   -2.377854    0.006382
     18          1           0        2.940503   -2.229748    0.010804
     19          1           0        4.872375    1.087790    0.002667
     20          1           0       -4.606725   -0.303025   -0.884276
     21          1           0       -4.602493   -0.329479    0.893946
     22          1           0       -4.772240    1.234545    0.028419
 ---------------------------------------------------------------------

 SCF Done:  E(UB3LYP) =  -666.078603464     A.U. after   32 cycles

 The electronic state is 2-A.
 Alpha  occ. eigenvalues --  -19.05194 -19.04397 -19.03001 -18.98665 -14.20784
 Alpha  occ. eigenvalues --  -10.17999 -10.11497 -10.09626 -10.09160 -10.06455
 Alpha  occ. eigenvalues --  -10.05543 -10.04934 -10.04036  -0.98962  -0.97927
 Alpha  occ. eigenvalues --   -0.94988  -0.89981  -0.72771  -0.68824  -0.65772
 Alpha  occ. eigenvalues --   -0.62008  -0.57863  -0.50684  -0.48456  -0.45574
 Alpha  occ. eigenvalues --   -0.43846  -0.41067  -0.37282  -0.36451  -0.35598
 Alpha  occ. eigenvalues --   -0.34127  -0.33511  -0.32579  -0.30486  -0.29214
 Alpha  occ. eigenvalues --   -0.28944  -0.28638  -0.28027  -0.27251  -0.26291
 Alpha  occ. eigenvalues --   -0.24902  -0.24024  -0.19473  -0.16958  -0.16416
 Alpha  occ. eigenvalues --   -0.15089  -0.14473  -0.09117   0.04956
 Alpha virt. eigenvalues --    0.06551   0.08623   0.08843   0.09228   0.10180
 Alpha virt. eigenvalues --    0.10646   0.10739   0.12510   0.12852   0.13454
 Alpha virt. eigenvalues --    0.15280   0.15418   0.15933   0.17143   0.18086

  Beta  occ. eigenvalues --  -19.05198 -19.04122 -19.02932 -18.98652 -14.20315
  Beta  occ. eigenvalues --  -10.17977 -10.11461 -10.09215 -10.09113 -10.06372
  Beta  occ. eigenvalues --  -10.05567 -10.05033 -10.03930  -0.98945  -0.97463
  Beta  occ. eigenvalues --   -0.94658  -0.89967  -0.72296  -0.68643  -0.65403
  Beta  occ. eigenvalues --   -0.61891  -0.57636  -0.50557  -0.48009  -0.45322
  Beta  occ. eigenvalues --   -0.43786  -0.40854  -0.37231  -0.36380  -0.35446
  Beta  occ. eigenvalues --   -0.33258  -0.33121  -0.32418  -0.30370  -0.28878
  Beta  occ. eigenvalues --   -0.28665  -0.28439  -0.27877  -0.26221  -0.26132
  Beta  occ. eigenvalues --   -0.24808  -0.23868  -0.19467  -0.16398  -0.15959
  Beta  occ. eigenvalues --   -0.14360  -0.13985  -0.07561
  Beta virt. eigenvalues --    0.07427   0.08659   0.09387   0.09851   0.10203
  Beta virt. eigenvalues --    0.10354   0.11022   0.11228   0.12548   0.12932
  Beta virt. eigenvalues --    0.13407   0.15203   0.15497   0.15849   0.17118

 Mulliken charges and spin densities:
               1          2
     1  C    0.134988  -0.686311
     2  C   -0.382062   0.666468
     3  C    0.497144  -0.310765
     4  C    0.043258   0.074676
     5  C   -0.240168   0.118246
     6  O    0.022040   0.057376
     7  C   -0.548895   0.109999
     8  N   -0.347131   0.201582
     9  O   -0.135637   0.013277
    10  C   -0.270428   0.109178
    11  O   -0.325689   0.011503
    12  O   -0.180215   0.055473
    13  C    0.654813  -0.918444
    14  H   -0.102282   0.287204
    15  H    0.160623  -0.011708
    16  H    0.114404   0.059381
    17  H    0.145925   0.009583
    18  H    0.180324  -0.002957
    19  H    0.251231   0.001975
    20  H   -0.070013   0.240155
    21  H   -0.102549   0.275386
    22  H   -0.499685   0.638723
 Sum of Mulliken charges =  -1.00000   1.00000

 Dipole moment (field-independent basis, Debye):
    X=              2.4243    Y=              0.3535    Z=             -0.7485  Tot=              2.5618
 Quadrupole moment (field-independent basis, Debye-Ang):
   XX=           -142.5371   YY=            -96.6568   ZZ=            -87.9009
   XY=              8.4768   XZ=              2.4674   YZ=             -2.3461

 Summary of Natural Population Analysis:

                                       Natural Population
                Natural  -----------------------------------------------
    Atom  No    Charge         Core      Valence    Rydberg      Total
 -----------------------------------------------------------------------
      C    1   -0.31424      0.99963     2.30909    0.00552     3.31424
      C    2    0.26773      0.99948     1.71848    0.01432     2.73227
      C    3   -0.15906      0.99940     2.14941    0.01025     3.15906
      C    4   -0.09874      0.99949     2.09051    0.00873     3.09874
      C    5    0.11399      0.99942     1.87262    0.01396     2.88601
      O    6   -0.20247      0.99985     3.19495    0.00767     4.20247
      C    7   -0.00275      0.99962     1.98626    0.01687     3.00275
      N    8   -0.03549      0.99965     2.51769    0.01815     3.53549
      O    9   -0.28325      0.99990     3.27465    0.00871     4.28325
      C   10    0.39934      0.99961     1.57618    0.02487     2.60066
      O   11   -0.31963      0.99987     3.31456    0.00520     4.31963
      O   12   -0.28363      0.99987     3.27452    0.00924     4.28363
      C   13   -0.10381      0.99960     2.09506    0.00916     3.10381
      H   14    0.11249      0.00000     0.38586    0.00166     0.38751
      H   15    0.10538      0.00000     0.39362    0.00100     0.39462
      H   16    0.11140      0.00000     0.38746    0.00114     0.38860
      H   17    0.10743      0.00000     0.39176    0.00081     0.39257
      H   18    0.09148      0.00000     0.40742    0.00110     0.40852
      H   19    0.22360      0.00000     0.27376    0.00264     0.27640
      H   20    0.08854      0.00000     0.41042    0.00104     0.41146
      H   21    0.09007      0.00000     0.40874    0.00119     0.40993
      H   22    0.09162      0.00000     0.40663    0.00175     0.40838
 =======================================================================
   * Total *    0.00000     12.99540    34.83964    0.16496    48.00000

 Normal termination of Gaussian 16 at Sun Dec 13 12:29:15 2020.
