 Gaussian 16, Revision A.03,

 -----------------------------------------------------------
 # opt freq B3LYP/6-31G(d) empiricaldispersion=gd3bj scf=xqc
 -----------------------------------------------------------

 -------------------------------
 CID_105787134_JID_8524_neutraal
 -------------------------------
 Symbolic Z-matrix:
 Charge =  0 Multiplicity = 1

 SCF Done:  E(RB3LYP) =  -825.393333672     A.U. after   15 cycles
 SCF Done:  E(RB3LYP) =  -825.396579217     A.U. after   12 cycles
 SCF Done:  E(RB3LYP) =  -825.397318999     A.U. after   13 cycles
 SCF Done:  E(RB3LYP) =  -825.398626637     A.U. after   13 cycles
 SCF Done:  E(RB3LYP) =  -825.399123627     A.U. after   13 cycles
 SCF Done:  E(RB3LYP) =  -825.400485062     A.U. after   12 cycles
 SCF Done:  E(RB3LYP) =  -825.400801454     A.U. after   12 cycles
 SCF Done:  E(RB3LYP) =  -825.400927410     A.U. after   12 cycles
 SCF Done:  E(RB3LYP) =  -825.400986303     A.U. after   12 cycles
 SCF Done:  E(RB3LYP) =  -825.401006193     A.U. after   10 cycles
 SCF Done:  E(RB3LYP) =  -825.401012347     A.U. after   10 cycles
 SCF Done:  E(RB3LYP) =  -825.401014691     A.U. after    9 cycles
 SCF Done:  E(RB3LYP) =  -825.401015256     A.U. after    8 cycles
 SCF Done:  E(RB3LYP) =  -825.401015357     A.U. after    8 cycles
 SCF Done:  E(RB3LYP) =  -825.401015329     A.U. after    8 cycles
 Optimization completed.
    -- Stationary point found.
 Normal termination of Gaussian 16 at Fri Dec 11 21:02:28 2020.

 --------------------------------------------------------------------
 #N Geom=AllCheck Guess=TCheck SCRF=Check GenChk RB3LYP/6-31G(d) Freq
 --------------------------------------------------------------------

 Structure from the checkpoint file:  "JID_8524.chk"
 -------------------------------
 CID_105787134_JID_8524_neutraal
 -------------------------------
 Charge =  0 Multiplicity = 1

 SCF Done:  E(RB3LYP) =  -825.401015329     A.U. after    1 cycles

  Exact polarizability: 190.976 -10.186 180.904  13.552  14.271 113.015
 Approx polarizability: 283.272 -22.351 281.675  34.284  31.013 175.864

                      1                      2                      3
                      A                      A                      A
 Frequencies --     17.4118                43.4558                61.5981
 Red. masses --      4.1870                 4.9284                 3.2613
 Frc consts  --      0.0007                 0.0055                 0.0073
 IR Inten    --      0.7658                 1.2933                 0.9906

                      4                      5                      6
                      A                      A                      A
 Frequencies --     66.3777                79.2469               103.9407
 Red. masses --      4.5180                 5.0943                 3.0948
 Frc consts  --      0.0117                 0.0188                 0.0197
 IR Inten    --      0.0134                 1.1398                 0.8158

                      7                      8                      9
                      A                      A                      A
 Frequencies --    138.2582               184.2256               186.7565
 Red. masses --      4.4023                 3.5247                 3.2965
 Frc consts  --      0.0496                 0.0705                 0.0677
 IR Inten    --      2.4522                 0.7528                 0.7197

                     10                     11                     12
                      A                      A                      A
 Frequencies --    233.6791               252.3781               263.8229
 Red. masses --      1.4493                 1.2371                 2.4701
 Frc consts  --      0.0466                 0.0464                 0.1013
 IR Inten    --      0.1596                 0.5307                 0.7208

                     13                     14                     15
                      A                      A                      A
 Frequencies --    268.4969               291.0412               292.0986
 Red. masses --      2.5258                 2.2849                 2.6019
 Frc consts  --      0.1073                 0.1140                 0.1308
 IR Inten    --      1.7354                 1.6006                 1.8252

                     16                     17                     18
                      A                      A                      A
 Frequencies --    308.6594               319.6333               333.4142
 Red. masses --      3.1172                 2.9937                 1.5574
 Frc consts  --      0.1750                 0.1802                 0.1020
 IR Inten    --      3.8240                 3.0234                 1.0084

                     19                     20                     21
                      A                      A                      A
 Frequencies --    364.0522               391.4449               427.7175
 Red. masses --      5.1465                 2.4476                 4.0237
 Frc consts  --      0.4019                 0.2210                 0.4337
 IR Inten    --      0.7153                 0.8600                 1.5134

                     22                     23                     24
                      A                      A                      A
 Frequencies --    464.4721               485.2982               492.6327
 Red. masses --      3.1939                 2.7655                 4.6957
 Frc consts  --      0.4060                 0.3837                 0.6714
 IR Inten    --      6.0215                 0.1106                 3.0686

                     25                     26                     27
                      A                      A                      A
 Frequencies --    513.3444               566.4331               589.0226
 Red. masses --      3.0158                 3.8065                 1.7213
 Frc consts  --      0.4682                 0.7196                 0.3519
 IR Inten    --     10.2542                23.4974                33.0641

                     28                     29                     30
                      A                      A                      A
 Frequencies --    609.2864               619.2352               664.2927
 Red. masses --      2.7733                 3.4195                 4.2791
 Frc consts  --      0.6066                 0.7725                 1.1125
 IR Inten    --     24.4531                54.4356                 5.3771

                     31                     32                     33
                      A                      A                      A
 Frequencies --    691.4270               725.3940               731.4322
 Red. masses --      3.0839                 3.7531                 3.1337
 Frc consts  --      0.8686                 1.1636                 0.9878
 IR Inten    --     10.3266                14.0761                 8.7134

                     34                     35                     36
                      A                      A                      A
 Frequencies --    759.8799               787.2192               794.8660
 Red. masses --      4.1453                 3.3457                 1.1184
 Frc consts  --      1.4102                 1.2216                 0.4163
 IR Inten    --     21.1017                37.0065                 1.0360

                     37                     38                     39
                      A                      A                      A
 Frequencies --    838.3294               842.5519               851.7806
 Red. masses --      1.6901                 1.3099                 1.9378
 Frc consts  --      0.6998                 0.5479                 0.8284
 IR Inten    --      5.3301                 8.4475                18.9050

                     40                     41                     42
                      A                      A                      A
 Frequencies --    868.3551               894.8494               940.7135
 Red. masses --      1.5281                 2.1053                 2.8897
 Frc consts  --      0.6789                 0.9932                 1.5067
 IR Inten    --     77.8378                12.7997                 6.9582

                     43                     44                     45
                      A                      A                      A
 Frequencies --    953.3439               963.1754               985.6425
 Red. masses --      2.4374                 1.6066                 1.2856
 Frc consts  --      1.3052                 0.8782                 0.7358
 IR Inten    --      5.7002                 2.8290                 1.7792

                     46                     47                     48
                      A                      A                      A
 Frequencies --    994.2994              1014.1980              1036.2628
 Red. masses --      1.7711                 2.9704                 1.4098
 Frc consts  --      1.0317                 1.8002                 0.8920
 IR Inten    --      9.5468                42.7141                 2.9511

                     49                     50                     51
                      A                      A                      A
 Frequencies --   1067.0772              1068.9056              1082.9283
 Red. masses --      1.6024                 3.7730                 1.3758
 Frc consts  --      1.0750                 2.5399                 0.9506
 IR Inten    --     26.4419                47.1700                 2.5064

                     52                     53                     54
                      A                      A                      A
 Frequencies --   1104.6570              1111.8776              1135.9772
 Red. masses --      4.4464                 1.4720                 1.6548
 Frc consts  --      3.1968                 1.0722                 1.2581
 IR Inten    --     49.3988                 5.6976               173.5491

                     55                     56                     57
                      A                      A                      A
 Frequencies --   1156.3470              1185.1485              1203.8894
 Red. masses --      1.0982                 1.2724                 1.8250
 Frc consts  --      0.8652                 1.0530                 1.5584
 IR Inten    --      1.0059                 0.6402                50.6734

                     58                     59                     60
                      A                      A                      A
 Frequencies --   1209.8239              1215.4843              1219.0314
 Red. masses --      1.7920                 1.4181                 1.8635
 Frc consts  --      1.5454                 1.2344                 1.6316
 IR Inten    --     36.2813                 8.3468               101.4068

                     61                     62                     63
                      A                      A                      A
 Frequencies --   1220.0080              1241.0286              1252.0871
 Red. masses --      2.4001                 2.1154                 2.1065
 Frc consts  --      2.1048                 1.9196                 1.9458
 IR Inten    --     46.6710               103.2133                16.5144

                     64                     65                     66
                      A                      A                      A
 Frequencies --   1281.0300              1299.8840              1330.3310
 Red. masses --      1.8257                 3.0329                 2.9827
 Frc consts  --      1.7652                 3.0194                 3.1101
 IR Inten    --    145.0229               163.8513                56.8763

                     67                     68                     69
                      A                      A                      A
 Frequencies --   1366.8748              1383.4898              1415.3965
 Red. masses --      2.2675                 4.4033                 1.3979
 Frc consts  --      2.4961                 4.9657                 1.6500
 IR Inten    --     22.8722               100.6310                 1.3045

                     70                     71                     72
                      A                      A                      A
 Frequencies --   1427.2835              1446.4467              1472.8500
 Red. masses --      1.3645                 1.3187                 2.5690
 Frc consts  --      1.6378                 1.6255                 3.2834
 IR Inten    --      8.7029                34.3460                35.1265

                     73                     74                     75
                      A                      A                      A
 Frequencies --   1494.6954              1502.8620              1515.1788
 Red. masses --      1.0871                 1.3809                 1.1480
 Frc consts  --      1.4309                 1.8377                 1.5528
 IR Inten    --      0.3937                63.2065                 4.9806

                     76                     77                     78
                      A                      A                      A
 Frequencies --   1520.4089              1522.5745              1530.9149
 Red. masses --      1.0540                 1.0649                 1.3397
 Frc consts  --      1.4356                 1.4545                 1.8500
 IR Inten    --      6.0703                 1.3656                36.0481

                     79                     80                     81
                      A                      A                      A
 Frequencies --   1535.0307              1538.8402              1540.0542
 Red. masses --      1.0726                 1.3367                 1.4159
 Frc consts  --      1.4891                 1.8650                 1.9785
 IR Inten    --     17.7885                 5.7816                 7.5844

                     82                     83                     84
                      A                      A                      A
 Frequencies --   1549.7912              1582.3558              1631.1620
 Red. masses --      1.1037                 2.1073                 2.8540
 Frc consts  --      1.5619                 3.1087                 4.4741
 IR Inten    --     15.0619                17.2966               133.9207

                     85                     86                     87
                      A                      A                      A
 Frequencies --   1674.3362              1803.3670              3031.5845
 Red. masses --      4.3469                 8.9895                 1.0344
 Frc consts  --      7.1799                17.2248                 5.6013
 IR Inten    --    318.9249               394.2777                44.2975

                     88                     89                     90
                      A                      A                      A
 Frequencies --   3049.9780              3067.7851              3092.6342
 Red. masses --      1.0365                 1.0362                 1.1067
 Frc consts  --      5.6807                 5.7455                 6.2363
 IR Inten    --     22.6817                11.6361                38.1721

                     91                     92                     93
                      A                      A                      A
 Frequencies --   3116.9691              3131.6358              3138.8578
 Red. masses --      1.1000                 1.1022                 1.1018
 Frc consts  --      6.2967                 6.3690                 6.3960
 IR Inten    --     24.8134                 4.7537                37.5255

                     94                     95                     96
                      A                      A                      A
 Frequencies --   3146.1184              3149.5980              3152.6734
 Red. masses --      1.0970                 1.0736                 1.0686
 Frc consts  --      6.3975                 6.2751                 6.2578
 IR Inten    --     20.1334                22.8698                25.8195

                     97                     98                     99
                      A                      A                      A
 Frequencies --   3160.4457              3163.9345              3221.0054
 Red. masses --      1.0610                 1.1004                 1.0881
 Frc consts  --      6.2437                 6.4902                 6.6512
 IR Inten    --      8.8508                27.3100                 1.3159

                    100                    101                    102
                      A                      A                      A
 Frequencies --   3224.2026              3235.6069              3239.5938
 Red. masses --      1.1182                 1.0947                 1.1152
 Frc consts  --      6.8486                 6.7522                 6.8957
 IR Inten    --      2.7608                 4.4845                18.6720

                    103                    104                    105
                      A                      A                      A
 Frequencies --   3274.7067              3573.5484              3685.4937
 Red. masses --      1.0886                 1.0730                 1.0639
 Frc consts  --      6.8783                 8.0729                 8.5139
 IR Inten    --      3.9997                48.6411                70.8208

 - Thermochemistry -
 -------------------
 Temperature   298.150 Kelvin.  Pressure   1.00000 Atm.
 Atom     1 has atomic number  6 and mass  12.00000

 Molecular mass:   249.13649 amu.
 Principal axes and moments of inertia in atomic units:
                           1         2         3
     Eigenvalues --  3774.967754758.371246911.47311
           X            0.99982   0.01913  -0.00011
           Y           -0.01913   0.99978   0.00831
           Z            0.00027  -0.00830   0.99997
 This molecule is an asymmetric top.
 Rotational symmetry number  1.
 Warning -- assumption of classical behavior for rotation
           may cause significant error
 Rotational temperatures (Kelvin)      0.02294     0.01820     0.01253
 Rotational constants (GHZ):           0.47808     0.37928     0.26112
 Zero-point vibrational energy     825430.8 (Joules/Mol)
                                  197.28269 (Kcal/Mol)
 Warning -- explicit consideration of  29 degrees of freedom as
           vibrations may cause significant error
 Vibrational temperatures:     25.05    62.52    88.63    95.50   114.02
          (Kelvin)            149.55   198.92   265.06   268.70   336.21
                              363.12   379.58   386.31   418.74   420.26
                              444.09   459.88   479.71   523.79   563.20
                              615.39   668.27   698.24   708.79   738.59
                              814.97   847.47   876.63   890.94   955.77
                              994.81  1043.68  1052.37  1093.30  1132.63
                             1143.63  1206.17  1212.24  1225.52  1249.37
                             1287.49  1353.48  1371.65  1385.79  1418.12
                             1430.58  1459.20  1490.95  1535.29  1537.92
                             1558.09  1589.36  1599.74  1634.42  1663.73
                             1705.16  1732.13  1740.67  1748.81  1753.91
                             1755.32  1785.56  1801.47  1843.12  1870.24
                             1914.05  1966.63  1990.53  2036.44  2053.54
                             2081.11  2119.10  2150.53  2162.28  2180.00
                             2187.53  2190.65  2202.65  2208.57  2214.05
                             2215.79  2229.80  2276.66  2346.88  2409.00
                             2594.64  4361.77  4388.24  4413.86  4449.61
                             4484.62  4505.73  4516.12  4526.56  4531.57
                             4535.99  4547.18  4552.20  4634.31  4638.91
                             4655.32  4661.05  4711.57  5141.54  5302.60

 Zero-point correction=                           0.314390 (Hartree/Particle)
 Thermal correction to Energy=                    0.332138
 Thermal correction to Enthalpy=                  0.333083
 Thermal correction to Gibbs Free Energy=         0.268165
 Sum of electronic and zero-point Energies=           -825.086625
 Sum of electronic and thermal Energies=              -825.068877
 Sum of electronic and thermal Enthalpies=            -825.067933
 Sum of electronic and thermal Free Energies=         -825.132850

                     E (Thermal)             CV                S
                      KCal/Mol        Cal/Mol-Kelvin    Cal/Mol-Kelvin
 Total                  208.420             68.723            136.630
 Electronic               0.000              0.000              0.000
 Translational            0.889              2.981             42.439
 Rotational               0.889              2.981             33.184
 Vibrational            206.643             62.762             61.007
 Vibration     1          0.593              1.986              6.909
 Vibration     2          0.595              1.980              5.095
 Vibration     3          0.597              1.973              4.405
 Vibration     4          0.598              1.970              4.258
 Vibration     5          0.600              1.963              3.909
 Vibration     6          0.605              1.946              3.379
 Vibration     7          0.614              1.915              2.828
 Vibration     8          0.631              1.861              2.285
 Vibration     9          0.632              1.858              2.260
 Vibration    10          0.654              1.789              1.851
 Vibration    11          0.664              1.759              1.714
 Vibration    12          0.670              1.739              1.636
 Vibration    13          0.673              1.731              1.606
 Vibration    14          0.687              1.690              1.468
 Vibration    15          0.687              1.688              1.462
 Vibration    16          0.698              1.657              1.370
 Vibration    17          0.706              1.636              1.312
 Vibration    18          0.715              1.609              1.243
 Vibration    19          0.738              1.546              1.105
 Vibration    20          0.759              1.488              0.995
 Vibration    21          0.789              1.410              0.866
 Vibration    22          0.822              1.329              0.753
 Vibration    23          0.841              1.283              0.696
 Vibration    24          0.848              1.266              0.677
 Vibration    25          0.868              1.220              0.626
 Vibration    26          0.922              1.104              0.511
 Vibration    27          0.946              1.055              0.469
 Vibration    28          0.968              1.012              0.434
 Vibration    29          0.979              0.991              0.418

 Optimization completed.
    -- Stationary point found.
 Normal termination of Gaussian 16 at Fri Dec 11 21:20:36 2020.

 ----------------------------------------------------------------------
 # B3LYP/6-311++G(d,p) empiricaldispersion=gd3bj scf=xqc pop=npa geom=c
 heck
 ----------------------------------------------------------------------

 ---------------------------------------
 CID_105787134_JID_8524_Energie_neutraal
 ---------------------------------------
 Structure from the checkpoint file:  "JID_8524.chk"
 Charge =  0 Multiplicity = 1

 SCF Done:  E(RB3LYP) =  -825.639210737     A.U. after   16 cycles
 Normal termination of Gaussian 16 at Fri Dec 11 21:27:55 2020.

 ----------------------------------------------------------------------
 # B3LYP/6-311++G(d,p) empiricaldispersion=gd3bj scf=xqc pop=npa geom=c
 heck
 ----------------------------------------------------------------------

 -------------------------------------
 CID_105787134_JID_8524_Energie_kation
 -------------------------------------
 Structure from the checkpoint file:  "JID_8524.chk"
 Charge =  1 Multiplicity = 2

 SCF Done:  E(UB3LYP) =  -825.358403429     A.U. after   25 cycles
 Normal termination of Gaussian 16 at Fri Dec 11 21:43:13 2020.
 Gaussian 16:  ES64L-G16RevA.03 25-Dec-2016

 ----------------------------------------------------------------------
 # B3LYP/6-311++G(d,p) empiricaldispersion=gd3bj scf=xqc pop=npa geom=c
 heck
 ----------------------------------------------------------------------

 ------------------------------------
 CID_105787134_JID_8524_Energie_anion
 ------------------------------------
 Structure from the checkpoint file:  "JID_8524.chk"
 Charge = -1 Multiplicity = 2

                         Standard orientation:
 ---------------------------------------------------------------------
 Center     Atomic      Atomic             Coordinates (Angstroms)
 Number     Number       Type             X           Y           Z
 ---------------------------------------------------------------------
      1          6           0       -0.977480   -2.614925   -0.472629
      2          6           0       -1.695648   -1.260616   -0.523674
      3          6           0       -2.968014   -1.421054   -1.370094
      4          6           0       -2.089478   -0.733135    0.858838
      5          6           0       -2.435439   -1.619309    2.031296
      6          6           0       -1.177681   -0.785145    2.056927
      7          7           0       -0.876979   -0.230958   -1.240818
      8          6           0        0.281242    0.292196   -0.642113
      9          6           0        0.392280    1.628890   -0.173352
     10          6           0        1.617281    2.055476    0.384994
     11          6           0        2.703361    1.217805    0.505204
     12          6           0        2.596367   -0.101321    0.029702
     13          6           0        1.409793   -0.544027   -0.548061
     14          8           0        3.713456   -0.864424    0.154527
     15          6           0        3.664075   -2.207253   -0.303528
     16          6           0       -0.669260    2.652429   -0.168850
     17          8           0       -0.570350    3.760287    0.325757
     18          8           0       -1.842968    2.296004   -0.787112
     19          1           0       -1.673243   -3.398101   -0.157067
     20          1           0       -0.132057   -2.620586    0.219023
     21          1           0       -0.608898   -2.869773   -1.470800
     22          1           0       -3.642027   -2.146987   -0.905434
     23          1           0       -3.505392   -0.468492   -1.450978
     24          1           0       -2.719185   -1.761856   -2.380321
     25          1           0       -2.679447    0.178327    0.781188
     26          1           0       -3.268866   -1.327366    2.664063
     27          1           0       -2.323053   -2.693815    1.921097
     28          1           0       -0.225339   -1.296607    1.962473
     29          1           0       -1.140110    0.088632    2.700682
     30          1           0       -1.501551    0.529133   -1.482438
     31          1           0        1.673188    3.079303    0.736837
     32          1           0        3.639264    1.548833    0.941038
     33          1           0        1.341301   -1.529369   -0.982742
     34          1           0        2.886616   -2.779207    0.219037
     35          1           0        3.481783   -2.255598   -1.384460
     36          1           0        4.642658   -2.635006   -0.080846
     37          1           0       -2.416275    3.080248   -0.697972
 ---------------------------------------------------------------------

 SCF Done:  E(UB3LYP) =  -825.634412504     A.U. after   33 cycles
 SCF Done:  E(UB3LYP) =  -825.634412504     a.u. after    1 cycles

 The electronic state is 2-A.
 Alpha  occ. eigenvalues --  -19.04453 -19.04263 -18.96789 -14.18822 -10.15612
 Alpha  occ. eigenvalues --  -10.11953 -10.11336 -10.10775 -10.08862 -10.07235
 Alpha  occ. eigenvalues --  -10.07204 -10.06703 -10.06191 -10.05787 -10.04991
 Alpha  occ. eigenvalues --  -10.04815 -10.04594 -10.04460  -0.97808  -0.96027
 Alpha  occ. eigenvalues --   -0.88155  -0.81625  -0.75614  -0.72565  -0.67381
 Alpha  occ. eigenvalues --   -0.64380  -0.62030  -0.59360  -0.59000  -0.52781
 Alpha  occ. eigenvalues --   -0.52005  -0.50095  -0.49006  -0.46391  -0.44431
 Alpha  occ. eigenvalues --   -0.42787  -0.40330  -0.38883  -0.38408  -0.36858
 Alpha  occ. eigenvalues --   -0.36547  -0.36474  -0.35759  -0.34626  -0.32477
 Alpha  occ. eigenvalues --   -0.31853  -0.31093  -0.30441  -0.29655  -0.29203
 Alpha  occ. eigenvalues --   -0.28343  -0.28060  -0.26728  -0.26221  -0.25992
 Alpha  occ. eigenvalues --   -0.25480  -0.24404  -0.23642  -0.22052  -0.21547
 Alpha  occ. eigenvalues --   -0.20106  -0.19818  -0.18517  -0.16114  -0.15219
 Alpha  occ. eigenvalues --   -0.11718  -0.09701   0.04488
 Alpha virt. eigenvalues --    0.06213   0.06723   0.07818   0.08066   0.09086
 Alpha virt. eigenvalues --    0.09437   0.09721   0.10526   0.10688   0.11118
 Alpha virt. eigenvalues --    0.11363   0.12014   0.12228   0.12989   0.13357

  Beta  occ. eigenvalues --  -19.04397 -19.04199 -18.96585 -14.18827 -10.15356
  Beta  occ. eigenvalues --  -10.11926 -10.11317 -10.10528 -10.08666 -10.07231
  Beta  occ. eigenvalues --  -10.07194 -10.06700 -10.06176 -10.05763 -10.04876
  Beta  occ. eigenvalues --  -10.04783 -10.04664 -10.04528  -0.97563  -0.95862
  Beta  occ. eigenvalues --   -0.87840  -0.81521  -0.75572  -0.72405  -0.67282
  Beta  occ. eigenvalues --   -0.64115  -0.61962  -0.59214  -0.58919  -0.52644
  Beta  occ. eigenvalues --   -0.51718  -0.50068  -0.48886  -0.46220  -0.44377
  Beta  occ. eigenvalues --   -0.42690  -0.40271  -0.38719  -0.38369  -0.36757
  Beta  occ. eigenvalues --   -0.36377  -0.36311  -0.35686  -0.34473  -0.31951
  Beta  occ. eigenvalues --   -0.31425  -0.30975  -0.30371  -0.29545  -0.29152
  Beta  occ. eigenvalues --   -0.28296  -0.27909  -0.26518  -0.25995  -0.25905
  Beta  occ. eigenvalues --   -0.25343  -0.24308  -0.23583  -0.21991  -0.21081
  Beta  occ. eigenvalues --   -0.19962  -0.19121  -0.18483  -0.15769  -0.15010
  Beta  occ. eigenvalues --   -0.11204  -0.09293
  Beta virt. eigenvalues --    0.06540   0.07143   0.08011   0.08151   0.09041
  Beta virt. eigenvalues --    0.09272   0.09562   0.09839   0.10515   0.10909
  Beta virt. eigenvalues --    0.11391   0.11502   0.11989   0.12260   0.13030

 Mulliken charges and spin densities:
               1          2
     1  C    0.173334  -0.834586
     2  C   -0.806362   0.760053
     3  C    0.152590  -0.658720
     4  C   -0.265153   0.277719
     5  C    0.176989  -0.697831
     6  C   -0.551195   0.165072
     7  N    0.198424   0.011209
     8  C    0.846957  -0.222788
     9  C    0.654095  -0.016668
    10  C   -0.814306   0.292486
    11  C   -0.201716  -0.048743
    12  C   -1.481947   0.535705
    13  C    0.120127  -0.058344
    14  O   -0.175773   0.036181
    15  C    0.368375  -0.728410
    16  C    0.135919  -0.044401
    17  O   -0.386885   0.075804
    18  O   -0.280917   0.014055
    19  H   -0.123471   0.233573
    20  H    0.150747  -0.044897
    21  H   -0.086429   0.273216
    22  H    0.085670   0.047159
    23  H   -0.035518   0.168814
    24  H    0.060985   0.088109
    25  H    0.098597   0.145709
    26  H    0.045789   0.089206
    27  H   -0.018646   0.150169
    28  H    0.215903  -0.056129
    29  H    0.090972   0.078290
    30  H    0.280753   0.020941
    31  H    0.190816   0.002923
    32  H    0.141627   0.021775
    33  H    0.394076  -0.210043
    34  H   -0.024118   0.182068
    35  H   -0.242839   0.398143
    36  H   -0.332122   0.502288
    37  H    0.244651   0.050893
 Sum of Mulliken charges =  -1.00000   1.00000

 Dipole moment (field-independent basis, Debye):
    X=             -3.0490    Y=             -0.5527    Z=              0.6616  Tot=              3.1686
 Quadrupole moment (field-independent basis, Debye-Ang):
   XX=           -154.1311   YY=           -162.5525   ZZ=           -133.1119
   XY=              5.3489   XZ=              3.7456   YZ=             -6.2433

 Summary of Natural Population Analysis:

                                       Natural Population
                Natural  -----------------------------------------------
    Atom  No    Charge         Core      Valence    Rydberg      Total
 -----------------------------------------------------------------------
      C    1   -0.29644      0.99962     2.28855    0.00827     3.29644
      C    2    0.06475      0.99954     1.92147    0.01424     2.93525
      C    3   -0.28252      0.99962     2.27699    0.00591     3.28252
      C    4   -0.12199      0.99954     2.10940    0.01305     3.12199
      C    5   -0.20124      0.99962     2.19550    0.00612     3.20124
      C    6   -0.19401      0.99962     2.18767    0.00672     3.19401
      N    7   -0.34092      0.99968     2.82945    0.01179     3.84092
      C    8    0.15036      0.99949     1.83825    0.01190     2.84964
      C    9   -0.11589      0.99942     2.10615    0.01032     3.11589
      C   10   -0.04100      0.99956     2.03275    0.00869     3.04100
      C   11   -0.15709      0.99953     2.14829    0.00927     3.15709
      C   12    0.21118      0.99939     1.77538    0.01405     2.78882
      C   13   -0.18563      0.99948     2.17793    0.00823     3.18563
      O   14   -0.26877      0.99985     3.25944    0.00947     4.26877
      C   15   -0.10079      0.99960     2.09201    0.00917     3.10079
      C   16    0.42698      0.99965     1.54981    0.02357     2.57302
      O   17   -0.31244      0.99987     3.30708    0.00549     4.31244
      O   18   -0.36694      0.99987     3.36045    0.00661     4.36694
      H   19    0.09871      0.00000     0.40034    0.00095     0.40129
      H   20    0.10295      0.00000     0.39576    0.00129     0.39705
      H   21    0.10667      0.00000     0.39207    0.00126     0.39333
      H   22    0.09910      0.00000     0.40011    0.00079     0.40090
      H   23    0.09930      0.00000     0.39973    0.00097     0.40070
      H   24    0.10227      0.00000     0.39666    0.00107     0.39773
      H   25    0.10881      0.00000     0.38976    0.00144     0.39119
      H   26    0.09867      0.00000     0.40043    0.00090     0.40133
      H   27    0.10010      0.00000     0.39890    0.00100     0.39990
      H   28    0.10504      0.00000     0.39391    0.00105     0.39496
      H   29    0.10322      0.00000     0.39582    0.00096     0.39678
      H   30    0.19587      0.00000     0.30112    0.00301     0.30413
      H   31    0.10774      0.00000     0.39135    0.00090     0.39226
      H   32    0.10138      0.00000     0.39766    0.00095     0.39862
      H   33    0.10587      0.00000     0.39196    0.00217     0.39413
      H   34    0.08266      0.00000     0.41600    0.00134     0.41734
      H   35    0.08618      0.00000     0.41220    0.00162     0.41382
      H   36    0.09049      0.00000     0.40838    0.00113     0.40951
      H   37    0.23737      0.00000     0.25881    0.00382     0.26263
 =======================================================================
   * Total *    0.00000     17.99294    48.79754    0.20952    67.00000

 Normal termination of Gaussian 16 at Fri Dec 11 22:03:38 2020.
