 Gaussian 16, Revision A.03,

 -----------------------------------------------------------
 # opt freq B3LYP/6-31G(d) empiricaldispersion=gd3bj scf=xqc
 -----------------------------------------------------------

 -------------------------------
 CID_127358917_JID_9621_neutraal
 -------------------------------
 Symbolic Z-matrix:
 Charge =  0 Multiplicity = 1

 SCF Done:  E(RB3LYP) =  -876.966411662     A.U. after   15 cycles
 SCF Done:  E(RB3LYP) =  -876.966773485     A.U. after   15 cycles
 SCF Done:  E(RB3LYP) =  -876.972795912     A.U. after   15 cycles
 SCF Done:  E(RB3LYP) =  -876.966089898     A.U. after   14 cycles
 SCF Done:  E(RB3LYP) =  -876.970720468     A.U. after   14 cycles
 SCF Done:  E(RB3LYP) =  -876.974780909     A.U. after   11 cycles
 SCF Done:  E(RB3LYP) =  -876.976113586     A.U. after   12 cycles
 SCF Done:  E(RB3LYP) =  -876.977369386     A.U. after   13 cycles
 SCF Done:  E(RB3LYP) =  -876.978759335     A.U. after   13 cycles
 SCF Done:  E(RB3LYP) =  -876.980195106     A.U. after   12 cycles
 SCF Done:  E(RB3LYP) =  -876.984286074     A.U. after   10 cycles
 SCF Done:  E(RB3LYP) =  -876.984288174     A.U. after    8 cycles
 SCF Done:  E(RB3LYP) =  -876.984288790     A.U. after    8 cycles
 SCF Done:  E(RB3LYP) =  -876.984288904     A.U. after    8 cycles
 SCF Done:  E(RB3LYP) =  -876.984289045     A.U. after    7 cycles
 Optimization completed.
    -- Stationary point found.
 Normal termination of Gaussian 16 at Sat Dec 12 10:46:37 2020.

 --------------------------------------------------------------------
 #N Geom=AllCheck Guess=TCheck SCRF=Check GenChk RB3LYP/6-31G(d) Freq
 --------------------------------------------------------------------

 Structure from the checkpoint file:  "JID_9621.chk"
 -------------------------------
 CID_127358917_JID_9621_neutraal
 -------------------------------
 Charge =  0 Multiplicity = 1

 SCF Done:  E(RB3LYP) =  -876.984289045     A.U. after    1 cycles

  Exact polarizability: 181.199  -6.671 158.524  -4.234  -2.349 127.969
 Approx polarizability: 259.866 -15.067 238.873  -3.111 -10.499 206.466

                      1                      2                      3
                      A                      A                      A
 Frequencies --     23.7278                44.6080                67.7745
 Red. masses --      5.5387                 5.6127                 4.1937
 Frc consts  --      0.0018                 0.0066                 0.0113
 IR Inten    --      1.3613                 0.5263                 0.5726

                      4                      5                      6
                      A                      A                      A
 Frequencies --     78.0996                88.7982               101.0441
 Red. masses --      4.2055                 4.5541                 4.5615
 Frc consts  --      0.0151                 0.0212                 0.0274
 IR Inten    --      7.2127                 1.2530                 4.1932

                      7                      8                      9
                      A                      A                      A
 Frequencies --    149.0942               159.1183               177.5303
 Red. masses --      2.7683                 5.0256                 7.0869
 Frc consts  --      0.0363                 0.0750                 0.1316
 IR Inten    --      6.0076                 0.1300                 3.7985

                     10                     11                     12
                      A                      A                      A
 Frequencies --    189.5832               216.4444               250.0828
 Red. masses --      4.9109                 4.0265                 2.0886
 Frc consts  --      0.1040                 0.1111                 0.0770
 IR Inten    --      4.0094                 2.2807                 0.0280

                     13                     14                     15
                      A                      A                      A
 Frequencies --    268.1729               312.0127               325.0911
 Red. masses --      2.8285                 2.5349                 2.5268
 Frc consts  --      0.1198                 0.1454                 0.1573
 IR Inten    --      4.5669                 5.1172                 2.5196

                     16                     17                     18
                      A                      A                      A
 Frequencies --    331.7393               350.9093               362.3831
 Red. masses --      3.3311                 5.2426                 4.7781
 Frc consts  --      0.2160                 0.3804                 0.3697
 IR Inten    --      1.9649                 1.0122                 4.2389

                     19                     20                     21
                      A                      A                      A
 Frequencies --    385.5348               457.3358               472.1857
 Red. masses --      3.4002                 2.3883                 2.6176
 Frc consts  --      0.2978                 0.2943                 0.3439
 IR Inten    --      2.6765                 5.0451                 5.0357

                     22                     23                     24
                      A                      A                      A
 Frequencies --    510.4268               546.4275               570.9927
 Red. masses --      2.0921                 2.8667                 4.1651
 Frc consts  --      0.3211                 0.5043                 0.8001
 IR Inten    --      3.6781                 4.8847                38.3091

                     25                     26                     27
                      A                      A                      A
 Frequencies --    607.3636               645.5398               657.9112
 Red. masses --      2.3431                 2.2504                 2.3430
 Frc consts  --      0.5093                 0.5525                 0.5975
 IR Inten    --     30.1989                21.3909                49.1687

                     28                     29                     30
                      A                      A                      A
 Frequencies --    677.3312               702.5707               737.7951
 Red. masses --      3.7916                 2.5934                 4.0396
 Frc consts  --      1.0249                 0.7542                 1.2956
 IR Inten    --     25.6061                22.0047                 7.2130

                     31                     32                     33
                      A                      A                      A
 Frequencies --    756.3240               777.2458               778.1195
 Red. masses --      3.1767                 2.2661                 2.0853
 Frc consts  --      1.0706                 0.8066                 0.7439
 IR Inten    --     25.3452                14.2191                 7.0503

                     34                     35                     36
                      A                      A                      A
 Frequencies --    794.9968               803.1150               824.3876
 Red. masses --      2.2781                 1.3269                 1.4707
 Frc consts  --      0.8483                 0.5042                 0.5889
 IR Inten    --      3.9779                 4.0988                50.0707

                     37                     38                     39
                      A                      A                      A
 Frequencies --    850.7508               855.3595               863.3784
 Red. masses --      2.0751                 1.4382                 2.5042
 Frc consts  --      0.8849                 0.6200                 1.0998
 IR Inten    --      3.0437                83.1759                22.8680

                     40                     41                     42
                      A                      A                      A
 Frequencies --    871.2759               892.4630               929.1276
 Red. masses --      1.9014                 1.9732                 1.9755
 Frc consts  --      0.8504                 0.9260                 1.0048
 IR Inten    --      4.3222                 1.9758                 1.1819

                     43                     44                     45
                      A                      A                      A
 Frequencies --    947.5590               960.5670               987.9619
 Red. masses --      5.1324                 2.1719                 2.4252
 Frc consts  --      2.7151                 1.1807                 1.3947
 IR Inten    --     25.5996                 0.5738                 1.5374

                     46                     47                     48
                      A                      A                      A
 Frequencies --   1013.2947              1020.7517              1034.3738
 Red. masses --      1.7701                 2.1494                 3.3779
 Frc consts  --      1.0708                 1.3195                 2.1294
 IR Inten    --      4.1483                 2.7097                 9.3578

                     49                     50                     51
                      A                      A                      A
 Frequencies --   1061.5591              1087.3518              1104.3252
 Red. masses --      2.0102                 2.3041                 3.5250
 Frc consts  --      1.3347                 1.6051                 2.5328
 IR Inten    --      3.1952                 2.5829                 8.7760

                     52                     53                     54
                      A                      A                      A
 Frequencies --   1132.4566              1140.9716              1152.7857
 Red. masses --      2.2056                 2.0864                 2.0535
 Frc consts  --      1.6665                 1.6003                 1.6078
 IR Inten    --     11.0792                36.3080                36.1482

                     55                     56                     57
                      A                      A                      A
 Frequencies --   1169.0259              1185.4229              1188.7783
 Red. masses --      1.6604                 1.4072                 1.6485
 Frc consts  --      1.3369                 1.1651                 1.3726
 IR Inten    --      2.5980                39.8772                17.9146

                     58                     59                     60
                      A                      A                      A
 Frequencies --   1215.7938              1245.3946              1269.0025
 Red. masses --      1.3827                 1.5411                 1.3628
 Frc consts  --      1.2042                 1.4083                 1.2931
 IR Inten    --      9.8959                44.9596                 8.7552

                     61                     62                     63
                      A                      A                      A
 Frequencies --   1284.5833              1289.5109              1300.6731
 Red. masses --      2.2878                 1.4865                 1.4203
 Frc consts  --      2.2243                 1.4563                 1.4157
 IR Inten    --     10.0933                21.6198                 4.9073

                     64                     65                     66
                      A                      A                      A
 Frequencies --   1303.6910              1314.7624              1344.7692
 Red. masses --      1.5174                 1.2002                 1.4388
 Frc consts  --      1.5195                 1.2224                 1.5330
 IR Inten    --     17.2022                 4.5325                29.4560

                     67                     68                     69
                      A                      A                      A
 Frequencies --   1354.3842              1366.9490              1379.7329
 Red. masses --      1.3405                 1.1864                 1.3476
 Frc consts  --      1.4488                 1.3062                 1.5114
 IR Inten    --     15.5803                 2.3776                 5.5806

                     70                     71                     72
                      A                      A                      A
 Frequencies --   1394.2576              1405.1786              1410.0264
 Red. masses --      1.4998                 1.3756                 2.5006
 Frc consts  --      1.7177                 1.6004                 2.9292
 IR Inten    --      8.6056                 5.2847                10.2792

                     73                     74                     75
                      A                      A                      A
 Frequencies --   1415.2396              1417.6739              1431.5867
 Red. masses --      1.6902                 1.3746                 1.4011
 Frc consts  --      1.9946                 1.6278                 1.6918
 IR Inten    --     57.2067                 1.3096                 8.5137

                     76                     77                     78
                      A                      A                      A
 Frequencies --   1438.1737              1468.1397              1487.4759
 Red. masses --      1.9349                 2.2999                 1.2904
 Frc consts  --      2.3579                 2.9208                 1.6822
 IR Inten    --     56.6937                49.4315                 7.2109

                     79                     80                     81
                      A                      A                      A
 Frequencies --   1497.0043              1506.8220              1513.1595
 Red. masses --      1.4843                 1.7374                 1.0973
 Frc consts  --      1.9598                 2.3242                 1.4802
 IR Inten    --      4.6664                 9.9679                 0.5242

                     82                     83                     84
                      A                      A                      A
 Frequencies --   1516.3795              1519.6725              1522.7533
 Red. masses --      1.5484                 1.2687                 1.0926
 Frc consts  --      2.0977                 1.7262                 1.4928
 IR Inten    --     60.1072                26.4282                 9.1154

                     85                     86                     87
                      A                      A                      A
 Frequencies --   1524.5919              1541.6592              1554.9279
 Red. masses --      1.2594                 1.0961                 1.1894
 Frc consts  --      1.7248                 1.5350                 1.6943
 IR Inten    --     38.7768                 4.4887                23.0166

                     88                     89                     90
                      A                      A                      A
 Frequencies --   1557.2248              1622.2951              1699.9983
 Red. masses --      1.4169                 3.8426                 7.3936
 Frc consts  --      2.0244                 5.9585                12.5893
 IR Inten    --     65.5547                 4.6012               338.7929

                     91                     92                     93
                      A                      A                      A
 Frequencies --   1757.4361              3032.4655              3039.3401
 Red. masses --      6.9337                 1.0721                 1.0686
 Frc consts  --     12.6175                 5.8086                 5.8161
 IR Inten    --    385.3362                38.2204                22.3715

                     94                     95                     96
                      A                      A                      A
 Frequencies --   3050.2806              3056.7323              3064.9884
 Red. masses --      1.0617                 1.0690                 1.0681
 Frc consts  --      5.8203                 5.8851                 5.9117
 IR Inten    --     19.2440                65.2591                33.6897

                     97                     98                     99
                      A                      A                      A
 Frequencies --   3067.0370              3085.5304              3087.6623
 Red. masses --      1.0717                 1.0953                 1.1018
 Frc consts  --      5.9394                 6.1441                 6.1888
 IR Inten    --     33.0287                11.7857                12.7030

                    100                    101                    102
                      A                      A                      A
 Frequencies --   3102.1142              3107.7394              3109.4758
 Red. masses --      1.0892                 1.0697                 1.0691
 Frc consts  --      6.1757                 6.0868                 6.0905
 IR Inten    --      5.7684                26.7818                19.2559

                    103                    104                    105
                      A                      A                      A
 Frequencies --   3115.9071              3155.1952              3163.3594
 Red. masses --      1.0959                 1.1013                 1.0926
 Frc consts  --      6.2689                 6.4599                 6.4418
 IR Inten    --     50.4973                24.3965                 3.5603

                    106                    107                    108
                      A                      A                      A
 Frequencies --   3170.4458              3203.6787              3246.5082
 Red. masses --      1.0941                 1.0954                 1.0960
 Frc consts  --      6.4794                 6.6240                 6.8061
 IR Inten    --      3.2041                 4.4994                11.1359

                    109                    110                    111
                      A                      A                      A
 Frequencies --   3262.7045              3444.2734              3571.2940
 Red. masses --      1.0971                 1.0868                 1.0754
 Frc consts  --      6.8810                 7.5959                 8.0809
 IR Inten    --      3.1357               519.9035                21.3030

 - Thermochemistry -
 -------------------
 Temperature   298.150 Kelvin.  Pressure   1.00000 Atm.
 Atom     1 has atomic number  6 and mass  12.00000

 Molecular mass:   264.15863 amu.
 Principal axes and moments of inertia in atomic units:
                           1         2         3
     Eigenvalues --  3172.159145711.526716777.64267
           X            0.99962   0.02618   0.00861
           Y           -0.02643   0.99922   0.02950
           Z           -0.00783  -0.02972   0.99953
 This molecule is an asymmetric top.
 Rotational symmetry number  1.
 Warning -- assumption of classical behavior for rotation
           may cause significant error
 Rotational temperatures (Kelvin)      0.02730     0.01516     0.01278
 Rotational constants (GHZ):           0.56893     0.31598     0.26628
 Zero-point vibrational energy     889178.4 (Joules/Mol)
                                  212.51873 (Kcal/Mol)
 Warning -- explicit consideration of  25 degrees of freedom as
           vibrations may cause significant error
 Vibrational temperatures:     34.14    64.18    97.51   112.37   127.76
          (Kelvin)            145.38   214.51   228.94   255.43   272.77
                              311.42   359.81   385.84   448.92   467.73
                              477.30   504.88   521.39   554.70   658.00
                              679.37   734.39   786.19   821.53   873.86
                              928.79   946.59   974.53  1010.84  1061.52
                             1088.18  1118.28  1119.54  1143.82  1155.50
                             1186.11  1224.04  1230.67  1242.21  1253.57
                             1284.06  1336.81  1363.33  1382.04  1421.46
                             1457.91  1468.63  1488.23  1527.35  1564.46
                             1588.88  1629.35  1641.60  1658.60  1681.97
                             1705.56  1710.39  1749.26  1791.85  1825.81
                             1848.23  1855.32  1871.38  1875.72  1891.65
                             1934.82  1948.66  1966.73  1985.13  2006.03
                             2021.74  2028.71  2036.21  2039.72  2059.73
                             2069.21  2112.33  2140.15  2153.86  2167.98
                             2177.10  2181.73  2186.47  2190.90  2193.55
                             2218.10  2237.19  2240.50  2334.12  2445.92
                             2528.56  4363.04  4372.93  4388.67  4397.96
                             4409.83  4412.78  4439.39  4442.46  4463.25
                             4471.34  4473.84  4483.10  4539.62  4551.37
                             4561.56  4609.38  4671.00  4694.30  4955.54
                             5138.30

 Zero-point correction=                           0.338670 (Hartree/Particle)
 Thermal correction to Energy=                    0.355802
 Thermal correction to Enthalpy=                  0.356746
 Thermal correction to Gibbs Free Energy=         0.293130
 Sum of electronic and zero-point Energies=           -876.645619
 Sum of electronic and thermal Energies=              -876.628487
 Sum of electronic and thermal Enthalpies=            -876.627543
 Sum of electronic and thermal Free Energies=         -876.691159

                     E (Thermal)             CV                S
                      KCal/Mol        Cal/Mol-Kelvin    Cal/Mol-Kelvin
 Total                  223.269             66.784            133.893
 Electronic               0.000              0.000              0.000
 Translational            0.889              2.981             42.613
 Rotational               0.889              2.981             33.173
 Vibrational            221.492             60.822             58.106
 Vibration     1          0.593              1.985              6.295
 Vibration     2          0.595              1.980              5.043
 Vibration     3          0.598              1.970              4.217
 Vibration     4          0.599              1.964              3.938
 Vibration     5          0.602              1.957              3.686
 Vibration     6          0.604              1.948              3.434
 Vibration     7          0.618              1.904              2.684
 Vibration     8          0.621              1.892              2.560
 Vibration     9          0.628              1.870              2.354
 Vibration    10          0.633              1.854              2.232
 Vibration    11          0.645              1.816              1.989
 Vibration    12          0.663              1.763              1.730
 Vibration    13          0.673              1.732              1.608
 Vibration    14          0.700              1.651              1.352
 Vibration    15          0.709              1.625              1.284
 Vibration    16          0.714              1.612              1.252
 Vibration    17          0.728              1.573              1.162
 Vibration    18          0.736              1.550              1.112
 Vibration    19          0.754              1.501              1.017
 Vibration    20          0.815              1.345              0.774
 Vibration    21          0.829              1.312              0.731
 Vibration    22          0.866              1.227              0.633
 Vibration    23          0.902              1.148              0.552
 Vibration    24          0.927              1.094              0.502
 Vibration    25          0.966              1.016              0.437

                           ! Non-Optimized Parameters !
 Normal termination of Gaussian 16 at Sat Dec 12 11:08:11 2020.

 ----------------------------------------------------------------------
 # B3LYP/6-311++G(d,p) empiricaldispersion=gd3bj scf=xqc pop=npa geom=c
 heck
 ----------------------------------------------------------------------

 ---------------------------------------
 CID_127358917_JID_9621_Energie_neutraal
 ---------------------------------------
 Structure from the checkpoint file:  "JID_9621.chk"
 Charge =  0 Multiplicity = 1

 SCF Done:  E(RB3LYP) =  -877.232510803     A.U. after   15 cycles
 Normal termination of Gaussian 16 at Sat Dec 12 11:16:17 2020.

 ----------------------------------------------------------------------
 # B3LYP/6-311++G(d,p) empiricaldispersion=gd3bj scf=xqc pop=npa geom=c
 heck
 ----------------------------------------------------------------------

 -------------------------------------
 CID_127358917_JID_9621_Energie_kation
 -------------------------------------
 Structure from the checkpoint file:  "JID_9621.chk"
 Charge =  1 Multiplicity = 2

 SCF Done:  E(UB3LYP) =  -876.934260109     A.U. after   25 cycles
 Normal termination of Gaussian 16 at Sat Dec 12 11:34:15 2020.
 Gaussian 16:  ES64L-G16RevA.03 25-Dec-2016

 ----------------------------------------------------------------------
 # B3LYP/6-311++G(d,p) empiricaldispersion=gd3bj scf=xqc pop=npa geom=c
 heck
 ----------------------------------------------------------------------

 ------------------------------------
 CID_127358917_JID_9621_Energie_anion
 ------------------------------------
 Structure from the checkpoint file:  "JID_9621.chk"
 Charge = -1 Multiplicity = 2

                         Standard orientation:
 ---------------------------------------------------------------------
 Center     Atomic      Atomic             Coordinates (Angstroms)
 Number     Number       Type             X           Y           Z
 ---------------------------------------------------------------------
      1          6           0       -0.807502   -1.404837   -1.299246
      2          6           0       -2.066574   -0.742392   -1.895785
      3          6           0       -3.243243   -0.521133   -0.935368
      4          6           0       -3.039154    0.481596    0.215613
      5          7           0       -1.747114    0.492119    0.938072
      6          6           0       -1.081474   -0.586839    1.425552
      7          8           0        0.004357   -0.463522    2.019590
      8          6           0       -1.623499   -1.965553    1.128432
      9          6           0       -1.039292   -2.479846   -0.222861
     10          6           0       -1.097828    1.801624    1.076082
     11          6           0       -0.439236    2.169978   -0.259490
     12          8           0       -1.152678    2.489911   -1.210992
     13          7           0        0.911144    2.085606   -0.389015
     14          6           0        1.963609    1.694982    0.559965
     15          6           0        2.704429    0.469048    0.133068
     16          6           0        3.797917    0.279660   -0.684612
     17          7           0        4.080008   -1.060097   -0.825120
     18          6           0        3.167682   -1.677729   -0.096249
     19          7           0        2.311633   -0.803434    0.500633
     20          1           0       -0.138591   -0.639862   -0.893806
     21          1           0       -0.242913   -1.867922   -2.117472
     22          1           0       -1.781824    0.214741   -2.345918
     23          1           0       -2.443675   -1.375744   -2.709254
     24          1           0       -3.587125   -1.487974   -0.556321
     25          1           0       -4.088031   -0.124286   -1.512910
     26          1           0       -3.852003    0.366870    0.945860
     27          1           0       -3.115714    1.479959   -0.212432
     28          1           0       -2.713606   -1.975322    1.125043
     29          1           0       -1.291609   -2.615287    1.941664
     30          1           0       -1.690542   -3.274482   -0.606857
     31          1           0       -0.071467   -2.948209   -0.010639
     32          1           0       -1.861361    2.556218    1.277737
     33          1           0       -0.414815    1.753145    1.919192
     34          1           0        1.219610    2.261685   -1.339537
     35          1           0        2.667018    2.530183    0.652891
     36          1           0        1.509361    1.532719    1.536396
     37          1           0        4.399059    1.035197   -1.174664
     38          1           0        3.090007   -2.748243    0.039303
     39          1           0        1.530087   -0.995217    1.130353
 ---------------------------------------------------------------------

 SCF Done:  E(UB3LYP) =  -877.223022645     A.U. after   33 cycles
 SCF Done:  E(UB3LYP) =  -877.223022645     a.u. after    1 cycles

 The electronic state is 2-A.
 Alpha  occ. eigenvalues --  -19.01121 -19.00690 -14.27128 -14.26933 -14.26255
 Alpha  occ. eigenvalues --  -14.20875 -10.19632 -10.19271 -10.14255 -10.13736
 Alpha  occ. eigenvalues --  -10.13130 -10.11912 -10.11816 -10.09874 -10.08836
 Alpha  occ. eigenvalues --  -10.08651 -10.07913 -10.07489 -10.07206  -0.96502
 Alpha  occ. eigenvalues --   -0.95625  -0.92776  -0.85749  -0.84631  -0.78303
 Alpha  occ. eigenvalues --   -0.72717  -0.69025  -0.68831  -0.66561  -0.62370
 Alpha  occ. eigenvalues --   -0.61495  -0.59393  -0.52863  -0.52653  -0.52051
 Alpha  occ. eigenvalues --   -0.50350  -0.48356  -0.46625  -0.43681  -0.43063
 Alpha  occ. eigenvalues --   -0.41916  -0.41489  -0.39537  -0.39354  -0.37607
 Alpha  occ. eigenvalues --   -0.36546  -0.35957  -0.34759  -0.34694  -0.34265
 Alpha  occ. eigenvalues --   -0.33575  -0.32677  -0.32577  -0.31850  -0.31568
 Alpha  occ. eigenvalues --   -0.30490  -0.30149  -0.29111  -0.28492  -0.26613
 Alpha  occ. eigenvalues --   -0.26408  -0.23739  -0.23320  -0.22459  -0.19889
 Alpha  occ. eigenvalues --   -0.19362  -0.19135  -0.18375  -0.18013  -0.16072
 Alpha  occ. eigenvalues --   -0.14589   0.03861
 Alpha virt. eigenvalues --    0.05480   0.06124   0.07129   0.07632   0.07747
 Alpha virt. eigenvalues --    0.08468   0.08534   0.09172   0.09476   0.09567
 Alpha virt. eigenvalues --    0.10179   0.10277   0.10542   0.11341   0.11840

  Beta  occ. eigenvalues --  -19.01116 -19.00686 -14.27123 -14.26926 -14.26244
  Beta  occ. eigenvalues --  -14.20876 -10.19629 -10.19267 -10.14236 -10.13729
  Beta  occ. eigenvalues --  -10.13109 -10.11911 -10.11791 -10.09864 -10.08813
  Beta  occ. eigenvalues --  -10.08628 -10.07887 -10.07484 -10.07197  -0.96493
  Beta  occ. eigenvalues --   -0.95617  -0.92769  -0.85732  -0.84613  -0.78295
  Beta  occ. eigenvalues --   -0.72684  -0.68999  -0.68792  -0.66530  -0.62335
  Beta  occ. eigenvalues --   -0.61468  -0.59347  -0.52814  -0.52637  -0.52027
  Beta  occ. eigenvalues --   -0.50330  -0.48319  -0.46606  -0.43640  -0.43014
  Beta  occ. eigenvalues --   -0.41893  -0.41448  -0.39503  -0.39312  -0.37586
  Beta  occ. eigenvalues --   -0.36524  -0.35928  -0.34726  -0.34662  -0.34243
  Beta  occ. eigenvalues --   -0.33553  -0.32653  -0.32563  -0.31829  -0.31544
  Beta  occ. eigenvalues --   -0.30465  -0.30125  -0.29086  -0.28458  -0.26580
  Beta  occ. eigenvalues --   -0.26367  -0.23706  -0.23287  -0.22435  -0.19876
  Beta  occ. eigenvalues --   -0.19344  -0.19128  -0.18358  -0.17999  -0.16044
  Beta  occ. eigenvalues --   -0.14572
  Beta virt. eigenvalues --    0.05995   0.06519   0.06799   0.07587   0.07812
  Beta virt. eigenvalues --    0.08400   0.08733   0.09003   0.09296   0.09651
  Beta virt. eigenvalues --    0.09860   0.10312   0.10723   0.11001   0.11542

 Mulliken charges and spin densities:
               1          2
     1  C   -0.036118   0.238957
     2  C   -0.697039   0.084840
     3  C    0.831154  -1.102303
     4  C    0.286624  -0.639858
     5  N    0.098035   0.109905
     6  C   -0.783951   0.638086
     7  O   -0.365970   0.029909
     8  C    1.296214  -1.414205
     9  C    0.036389  -0.699848
    10  C   -0.094098  -0.359886
    11  C    0.127670  -0.070015
    12  O   -0.311985   0.009612
    13  N    0.012086  -0.008254
    14  C    0.096549  -1.099758
    15  C    0.126446   0.485319
    16  C   -0.247126  -0.175615
    17  N   -0.122026   0.016346
    18  C    0.024478  -0.082118
    19  N   -0.072106  -0.034021
    20  H    0.321112  -0.265499
    21  H   -0.054245   0.266043
    22  H    0.099678   0.084418
    23  H   -0.103805   0.274007
    24  H    0.108237   0.050007
    25  H   -0.266977   0.457069
    26  H   -0.801523   1.026378
    27  H    0.474278  -0.300959
    28  H   -0.057456   0.226814
    29  H   -0.334378   0.567060
    30  H   -0.651748   0.841808
    31  H    0.459957  -0.327835
    32  H   -0.367775   0.593400
    33  H   -0.172224   0.348035
    34  H    0.117263   0.169800
    35  H   -0.464268   0.687168
    36  H    0.207220  -0.034837
    37  H   -0.032181   0.167741
    38  H   -0.037552   0.190886
    39  H    0.351158   0.051401
 Sum of Mulliken charges =  -1.00000   1.00000

 Dipole moment (field-independent basis, Debye):
    X=              3.1397    Y=              1.4994    Z=              0.0968  Tot=              3.4807
 Quadrupole moment (field-independent basis, Debye-Ang):
   XX=           -201.6551   YY=           -169.1687   ZZ=           -156.3665
   XY=             -6.1097   XZ=              6.1217   YZ=             -2.4980

 Summary of Natural Population Analysis:

                                       Natural Population
                Natural  -----------------------------------------------
    Atom  No    Charge         Core      Valence    Rydberg      Total
 -----------------------------------------------------------------------
      C    1   -0.19477      0.99961     2.18738    0.00778     3.19477
      C    2   -0.19347      0.99961     2.18522    0.00864     3.19347
      C    3   -0.19474      0.99961     2.18667    0.00845     3.19474
      C    4   -0.08670      0.99958     2.07590    0.01122     3.08670
      N    5   -0.24850      0.99963     2.73385    0.01502     3.74850
      C    6    0.35964      0.99959     1.61768    0.02310     2.64036
      O    7   -0.36228      0.99986     3.35677    0.00564     4.36228
      C    8   -0.23033      0.99958     2.22172    0.00903     3.23033
      C    9   -0.18685      0.99962     2.17815    0.00908     3.18685
      C   10   -0.12473      0.99955     2.11411    0.01107     3.12473
      C   11    0.33642      0.99965     1.64118    0.02275     2.66358
      O   12   -0.32775      0.99988     3.32236    0.00551     4.32775
      N   13   -0.30701      0.99966     2.79759    0.00977     3.80701
      C   14   -0.10601      0.99956     2.09514    0.01132     3.10601
      C   15    0.04064      0.99953     1.94719    0.01264     2.95936
      C   16   -0.03181      0.99952     2.01959    0.01270     3.03181
      N   17   -0.25996      0.99973     2.74873    0.01150     3.75996
      C   18    0.10215      0.99967     1.88201    0.01617     2.89785
      N   19   -0.27524      0.99965     2.76774    0.00785     3.77524
      H   20    0.09514      0.00000     0.40228    0.00258     0.40486
      H   21    0.10169      0.00000     0.39716    0.00115     0.39831
      H   22    0.10692      0.00000     0.39186    0.00122     0.39308
      H   23    0.09752      0.00000     0.40144    0.00104     0.40248
      H   24    0.09707      0.00000     0.40079    0.00214     0.40293
      H   25    0.10467      0.00000     0.39435    0.00098     0.39533
      H   26    0.10047      0.00000     0.39749    0.00203     0.39953
      H   27    0.11132      0.00000     0.38702    0.00166     0.38868
      H   28    0.10912      0.00000     0.38866    0.00222     0.39088
      H   29    0.11280      0.00000     0.38601    0.00120     0.38720
      H   30    0.10298      0.00000     0.39535    0.00168     0.39702
      H   31    0.09829      0.00000     0.40036    0.00136     0.40171
      H   32    0.10916      0.00000     0.38978    0.00106     0.39084
      H   33    0.11529      0.00000     0.38327    0.00144     0.38471
      H   34    0.19504      0.00000     0.30260    0.00236     0.30496
      H   35    0.10424      0.00000     0.39432    0.00143     0.39576
      H   36    0.11598      0.00000     0.38246    0.00157     0.38402
      H   37    0.09666      0.00000     0.40207    0.00128     0.40334
      H   38    0.09236      0.00000     0.40626    0.00138     0.40764
      H   39    0.22460      0.00000     0.27273    0.00267     0.27540
 =======================================================================
   * Total *   -0.00000     18.99310    51.75521    0.25169    71.00000

 Normal termination of Gaussian 16 at Sat Dec 12 11:58:08 2020.
