 Gaussian 16, Revision A.03,

 -----------------------------------------------------------
 # opt freq B3LYP/6-31G(d) empiricaldispersion=gd3bj scf=xqc
 -----------------------------------------------------------

 ------------------------------
 CID_18983161_JID_1479_neutraal
 ------------------------------
 Symbolic Z-matrix:
 Charge =  0 Multiplicity = 1

 SCF Done:  E(RB3LYP) =  -444.897298887     A.U. after   14 cycles
 SCF Done:  E(RB3LYP) =  -444.900799569     A.U. after   12 cycles
 SCF Done:  E(RB3LYP) =  -444.901282981     A.U. after   11 cycles
 SCF Done:  E(RB3LYP) =  -444.901468867     A.U. after   11 cycles
 SCF Done:  E(RB3LYP) =  -444.901513124     A.U. after   10 cycles
 SCF Done:  E(RB3LYP) =  -444.901539660     A.U. after   10 cycles
 SCF Done:  E(RB3LYP) =  -444.901542099     A.U. after    8 cycles
 SCF Done:  E(RB3LYP) =  -444.901542680     A.U. after    8 cycles
 SCF Done:  E(RB3LYP) =  -444.901542932     A.U. after    7 cycles
 SCF Done:  E(RB3LYP) =  -444.901543099     A.U. after    7 cycles
 SCF Done:  E(RB3LYP) =  -444.901544465     A.U. after    8 cycles
 SCF Done:  E(RB3LYP) =  -444.901545124     A.U. after    8 cycles
 SCF Done:  E(RB3LYP) =  -444.901545653     A.U. after    8 cycles
 SCF Done:  E(RB3LYP) =  -444.901545856     A.U. after    8 cycles
 SCF Done:  E(RB3LYP) =  -444.901545879     A.U. after    6 cycles
 Optimization completed.
    -- Stationary point found.
 Normal termination of Gaussian 16 at Tue Dec  8 20:07:43 2020.

 --------------------------------------------------------------------
 #N Geom=AllCheck Guess=TCheck SCRF=Check GenChk RB3LYP/6-31G(d) Freq
 --------------------------------------------------------------------

 Structure from the checkpoint file:  "JID_1479.chk"
 ------------------------------
 CID_18983161_JID_1479_neutraal
 ------------------------------
 Charge =  0 Multiplicity = 1

 SCF Done:  E(RB3LYP) =  -444.901545879     A.U. after    1 cycles

  Exact polarizability: 149.358   3.144 120.950  -3.706   4.349  65.353
 Approx polarizability: 204.770   2.239 188.284 -10.750  11.135  98.848

                      1                      2                      3
                      A                      A                      A
 Frequencies --     40.0660                54.4876                77.7512
 Red. masses --      1.0163                 2.3938                 2.4644
 Frc consts  --      0.0010                 0.0042                 0.0088
 IR Inten    --      0.2467                 0.0760                 1.7581

                      4                      5                      6
                      A                      A                      A
 Frequencies --    117.0683               158.9456               208.2422
 Red. masses --      2.8953                 2.5611                 1.0320
 Frc consts  --      0.0234                 0.0381                 0.0264
 IR Inten    --      0.1930                 2.4855                 0.1098

                      7                      8                      9
                      A                      A                      A
 Frequencies --    257.0602               262.0269               282.1152
 Red. masses --      1.3744                 2.6617                 2.6422
 Frc consts  --      0.0535                 0.1077                 0.1239
 IR Inten    --      1.6739                 0.5147                 0.1194

                     10                     11                     12
                      A                      A                      A
 Frequencies --    309.0903               327.8630               350.9682
 Red. masses --      2.6050                 3.1029                 3.2733
 Frc consts  --      0.1466                 0.1965                 0.2376
 IR Inten    --      2.3013                 0.3323                 1.2382

                     13                     14                     15
                      A                      A                      A
 Frequencies --    456.9892               468.0027               495.6308
 Red. masses --      3.7084                 2.9056                 3.2385
 Frc consts  --      0.4563                 0.3750                 0.4687
 IR Inten    --      0.5607                 3.4071                 1.8766

                     16                     17                     18
                      A                      A                      A
 Frequencies --    588.8377               639.2787               734.7212
 Red. masses --      3.8538                 4.6561                 4.0905
 Frc consts  --      0.7873                 1.1211                 1.3010
 IR Inten    --      0.7292                 6.5905                 7.0355

                     19                     20                     21
                      A                      A                      A
 Frequencies --    740.4204               771.1299               798.8156
 Red. masses --      2.8117                 3.9166                 1.2799
 Frc consts  --      0.9082                 1.3722                 0.4812
 IR Inten    --     11.0128                 4.4469                37.3212

                     22                     23                     24
                      A                      A                      A
 Frequencies --    821.4025               831.6715               877.2969
 Red. masses --      1.2691                 1.4290                 1.4436
 Frc consts  --      0.5045                 0.5824                 0.6546
 IR Inten    --     18.7823                16.4730                12.0289

                     25                     26                     27
                      A                      A                      A
 Frequencies --    922.8589               945.4633               972.4037
 Red. masses --      1.7726                 1.2895                 2.1278
 Frc consts  --      0.8895                 0.6791                 1.1854
 IR Inten    --      2.7930                 0.0708                 3.0485

                     28                     29                     30
                      A                      A                      A
 Frequencies --   1024.3037              1041.7179              1072.6511
 Red. masses --      1.8260                 1.3889                 1.5029
 Frc consts  --      1.1288                 0.8880                 1.0188
 IR Inten    --      7.1592                 1.0611                 2.8628

                     31                     32                     33
                      A                      A                      A
 Frequencies --   1077.8181              1080.3676              1147.6193
 Red. masses --      1.4960                 2.6680                 1.8474
 Frc consts  --      1.0239                 1.8348                 1.4335
 IR Inten    --     13.5477                 7.2669                 6.6911

                     34                     35                     36
                      A                      A                      A
 Frequencies --   1157.3170              1190.7829              1203.0717
 Red. masses --      2.0017                 1.5316                 2.2751
 Frc consts  --      1.5796                 1.2795                 1.9401
 IR Inten    --     61.8173                17.7971                 5.5477

                     37                     38                     39
                      A                      A                      A
 Frequencies --   1240.7913              1302.0860              1306.6233
 Red. masses --      1.9760                 1.3649                 3.0826
 Frc consts  --      1.7924                 1.3634                 3.1007
 IR Inten    --      9.3507                23.0684                43.8155

                     40                     41                     42
                      A                      A                      A
 Frequencies --   1330.0132              1355.3629              1395.1747
 Red. masses --      1.3896                 4.8295                 1.3522
 Frc consts  --      1.4483                 5.2271                 1.5508
 IR Inten    --      1.6094                10.0432                17.3129

                     43                     44                     45
                      A                      A                      A
 Frequencies --   1435.3474              1440.1622              1441.9459
 Red. masses --      1.3701                 1.2948                 1.2472
 Frc consts  --      1.6631                 1.5822                 1.5278
 IR Inten    --      2.4270                 5.9363                 0.9766

                     46                     47                     48
                      A                      A                      A
 Frequencies --   1451.1995              1506.8050              1514.7557
 Red. masses --      1.8667                 1.3864                 1.0551
 Frc consts  --      2.3162                 1.8546                 1.4263
 IR Inten    --      4.0752                42.5802                 5.0409

                     49                     50                     51
                      A                      A                      A
 Frequencies --   1518.6635              1519.9602              1524.1640
 Red. masses --      1.0518                 1.0825                 1.0899
 Frc consts  --      1.4293                 1.4735                 1.4918
 IR Inten    --      6.7379                 4.8229                13.3245

                     52                     53                     54
                      A                      A                      A
 Frequencies --   1530.1609              1535.4855              1554.7532
 Red. masses --      1.1167                 1.1693                 1.0957
 Frc consts  --      1.5404                 1.6244                 1.5605
 IR Inten    --     13.1555                37.3586                 8.3769

                     55                     56                     57
                      A                      A                      A
 Frequencies --   1573.8294              1638.8505              1675.5894
 Red. masses --      2.2221                 4.9867                 5.7407
 Frc consts  --      3.2429                 7.8912                 9.4962
 IR Inten    --      9.2077                12.8821                28.1208

                     58                     59                     60
                      A                      A                      A
 Frequencies --   2973.6945              3034.6141              3039.4335
 Red. masses --      1.0756                 1.0439                 1.0405
 Frc consts  --      5.6038                 5.6640                 5.6633
 IR Inten    --     69.0765                41.5328                35.7295

                     61                     62                     63
                      A                      A                      A
 Frequencies --   3046.7507              3092.9414              3095.9999
 Red. masses --      1.0386                 1.0908                 1.0956
 Frc consts  --      5.6804                 6.1479                 6.1871
 IR Inten    --     27.9476                24.3141                24.4708

                     64                     65                     66
                      A                      A                      A
 Frequencies --   3103.6993              3122.4301              3124.7360
 Red. masses --      1.0928                 1.1026                 1.0933
 Frc consts  --      6.2023                 6.3336                 6.2898
 IR Inten    --      6.6685                16.7315                46.4361

                     67                     68                     69
                      A                      A                      A
 Frequencies --   3128.8047              3133.5439              3154.8964
 Red. masses --      1.1014                 1.1032                 1.0895
 Frc consts  --      6.3524                 6.3825                 6.3889
 IR Inten    --     10.7021                28.4130                26.9468

                     70                     71                     72
                      A                      A                      A
 Frequencies --   3170.1241              3189.8249              3502.1064
 Red. masses --      1.0867                 1.0942                 1.0737
 Frc consts  --      6.4347                 6.5596                 7.7590
 IR Inten    --     13.2356                28.1114                 0.1831

 - Thermochemistry -
 -------------------
 Temperature   298.150 Kelvin.  Pressure   1.00000 Atm.
 Atom     1 has atomic number  6 and mass  12.00000

 Molecular mass:   149.12045 amu.
 Principal axes and moments of inertia in atomic units:
                           1         2         3
     Eigenvalues --   947.529702622.817283429.47838
           X            0.99996   0.00907   0.00193
           Y           -0.00907   0.99996   0.00054
           Z           -0.00193  -0.00056   1.00000
 This molecule is an asymmetric top.
 Rotational symmetry number  1.
 Warning -- assumption of classical behavior for rotation
           may cause significant error
 Rotational temperatures (Kelvin)      0.09141     0.03302     0.02526
 Rotational constants (GHZ):           1.90468     0.68809     0.52624
 Zero-point vibrational energy     605379.7 (Joules/Mol)
                                  144.68922 (Kcal/Mol)
 Warning -- explicit consideration of  16 degrees of freedom as
           vibrations may cause significant error
 Vibrational temperatures:     57.65    78.40   111.87   168.44   228.69
          (Kelvin)            299.61   369.85   377.00   405.90   444.71
                              471.72   504.97   657.51   673.35   713.10
                              847.21   919.78  1057.10  1065.30  1109.48
                             1149.32  1181.81  1196.59  1262.23  1327.79
                             1360.31  1399.07  1473.74  1498.80  1543.31
                             1550.74  1554.41  1651.17  1665.12  1713.27
                             1730.95  1785.22  1873.41  1879.94  1913.59
                             1950.06  2007.35  2065.14  2072.07  2074.64
                             2087.95  2167.96  2179.40  2185.02  2186.88
                             2192.93  2201.56  2209.22  2236.94  2264.39
                             2357.94  2410.80  4278.48  4366.13  4373.07
                             4383.59  4450.05  4454.45  4465.53  4492.48
                             4495.80  4501.65  4508.47  4539.19  4561.10
                             4589.45  5038.75

 Zero-point correction=                           0.230577 (Hartree/Particle)
 Thermal correction to Energy=                    0.242385
 Thermal correction to Enthalpy=                  0.243329
 Thermal correction to Gibbs Free Energy=         0.192271
 Sum of electronic and zero-point Energies=           -444.670969
 Sum of electronic and thermal Energies=              -444.659161
 Sum of electronic and thermal Enthalpies=            -444.658217
 Sum of electronic and thermal Free Energies=         -444.709275

                     E (Thermal)             CV                S
                      KCal/Mol        Cal/Mol-Kelvin    Cal/Mol-Kelvin
 Total                  152.099             43.829            107.461
 Electronic               0.000              0.000              0.000
 Translational            0.889              2.981             40.909
 Rotational               0.889              2.981             30.523
 Vibrational            150.321             37.867             36.030
 Vibration     1          0.594              1.981              5.256
 Vibration     2          0.596              1.976              4.647
 Vibration     3          0.599              1.964              3.947
 Vibration     4          0.608              1.935              3.148
 Vibration     5          0.621              1.893              2.562
 Vibration     6          0.642              1.828              2.059
 Vibration     7          0.667              1.751              1.682
 Vibration     8          0.669              1.742              1.648
 Vibration     9          0.681              1.707              1.521
 Vibration    10          0.698              1.656              1.367
 Vibration    11          0.711              1.620              1.271
 Vibration    12          0.728              1.573              1.162
 Vibration    13          0.815              1.345              0.775
 Vibration    14          0.825              1.321              0.743
 Vibration    15          0.851              1.260              0.669
 Vibration    16          0.946              1.056              0.469

 Optimization completed.
    -- Stationary point found.
 Normal termination of Gaussian 16 at Tue Dec  8 20:12:42 2020.

 ----------------------------------------------------------------------
 # B3LYP/6-311++G(d,p) empiricaldispersion=gd3bj scf=xqc pop=npa geom=c
 heck
 ----------------------------------------------------------------------

 --------------------------------------
 CID_18983161_JID_1479_Energie_neutraal
 --------------------------------------
 Structure from the checkpoint file:  "JID_1479.chk"
 Charge =  0 Multiplicity = 1

 SCF Done:  E(RB3LYP) =  -445.022801724     A.U. after   14 cycles
 Normal termination of Gaussian 16 at Tue Dec  8 20:14:42 2020.

 ----------------------------------------------------------------------
 # B3LYP/6-311++G(d,p) empiricaldispersion=gd3bj scf=xqc pop=npa geom=c
 heck
 ----------------------------------------------------------------------

 ------------------------------------
 CID_18983161_JID_1479_Energie_kation
 ------------------------------------
 Structure from the checkpoint file:  "JID_1479.chk"
 Charge =  1 Multiplicity = 2

 SCF Done:  E(UB3LYP) =  -444.743570479     A.U. after   21 cycles
 Normal termination of Gaussian 16 at Tue Dec  8 20:18:46 2020.
 Gaussian 16:  ES64L-G16RevA.03 25-Dec-2016

 ----------------------------------------------------------------------
 # B3LYP/6-311++G(d,p) empiricaldispersion=gd3bj scf=xqc pop=npa geom=c
 heck
 ----------------------------------------------------------------------

 -----------------------------------
 CID_18983161_JID_1479_Energie_anion
 -----------------------------------
 Structure from the checkpoint file:  "JID_1479.chk"
 Charge = -1 Multiplicity = 2

                         Standard orientation:
 ---------------------------------------------------------------------
 Center     Atomic      Atomic             Coordinates (Angstroms)
 Number     Number       Type             X           Y           Z
 ---------------------------------------------------------------------
      1          6           0        3.822678   -1.057671    0.100942
      2          6           0        2.462073   -0.558872    0.574327
      3          7           0        1.495684   -0.586490   -0.533047
      4          6           0        0.185394   -0.118401   -0.251866
      5          6           0       -0.056478    1.260597   -0.077736
      6          6           0       -1.369943    1.667509    0.171496
      7          6           0       -2.427365    0.761921    0.229801
      8          6           0       -2.198581   -0.602701    0.030206
      9          6           0       -0.885101   -1.020622   -0.195797
     10          6           0       -3.335030   -1.596085    0.043129
     11          6           0        1.050297    2.275928   -0.204108
     12          1           0        3.762859   -2.095147   -0.252027
     13          1           0        4.553159   -1.026428    0.916306
     14          1           0        4.190514   -0.441154   -0.725467
     15          1           0        2.113237   -1.158365    1.433123
     16          1           0        2.550439    0.471147    0.929026
     17          1           0        1.445495   -1.535232   -0.897362
     18          1           0       -1.569073    2.728647    0.304589
     19          1           0       -3.436686    1.118775    0.419053
     20          1           0       -0.679860   -2.082049   -0.329311
     21          1           0       -3.766406   -1.720637   -0.959110
     22          1           0       -3.001197   -2.584094    0.377824
     23          1           0       -4.143283   -1.269245    0.705896
     24          1           0        1.581363    2.437441    0.743798
     25          1           0        1.790466    1.945855   -0.940357
     26          1           0        0.651509    3.246311   -0.517019
 ---------------------------------------------------------------------

 SCF Done:  E(UB3LYP) =  -445.005365253     A.U. after   33 cycles
 SCF Done:  E(UB3LYP) =  -445.005365253     a.u. after    1 cycles

 The electronic state is 2-A.
 Alpha  occ. eigenvalues --  -14.20585 -10.10088 -10.09144 -10.07800 -10.07441
 Alpha  occ. eigenvalues --  -10.06930 -10.06591 -10.06514 -10.06348 -10.06275
 Alpha  occ. eigenvalues --  -10.05529  -0.82211  -0.74704  -0.68397  -0.65581
 Alpha  occ. eigenvalues --   -0.62146  -0.60830  -0.55418  -0.51284  -0.50705
 Alpha  occ. eigenvalues --   -0.46315  -0.40580  -0.38615  -0.36827  -0.35155
 Alpha  occ. eigenvalues --   -0.33821  -0.32859  -0.31927  -0.31548  -0.30144
 Alpha  occ. eigenvalues --   -0.29742  -0.28088  -0.27621  -0.26580  -0.25904
 Alpha  occ. eigenvalues --   -0.24123  -0.23800  -0.23730  -0.17236  -0.13864
 Alpha  occ. eigenvalues --   -0.11107   0.04712
 Alpha virt. eigenvalues --    0.06544   0.07040   0.08056   0.08615   0.08634
 Alpha virt. eigenvalues --    0.09247   0.09559   0.10317   0.10935   0.11273
 Alpha virt. eigenvalues --    0.11579   0.12271   0.12872   0.13757   0.14246

  Beta  occ. eigenvalues --  -14.20568 -10.10084 -10.09122 -10.07797 -10.07435
  Beta  occ. eigenvalues --  -10.06926 -10.06559 -10.06497 -10.06335 -10.06256
  Beta  occ. eigenvalues --  -10.05483  -0.82182  -0.74684  -0.68372  -0.65543
  Beta  occ. eigenvalues --   -0.62112  -0.60782  -0.55367  -0.51186  -0.50668
  Beta  occ. eigenvalues --   -0.46272  -0.40540  -0.38579  -0.36782  -0.35120
  Beta  occ. eigenvalues --   -0.33775  -0.32823  -0.31889  -0.31517  -0.30113
  Beta  occ. eigenvalues --   -0.29704  -0.28042  -0.27582  -0.26532  -0.25852
  Beta  occ. eigenvalues --   -0.24087  -0.23766  -0.23699  -0.17210  -0.13839
  Beta  occ. eigenvalues --   -0.11082
  Beta virt. eigenvalues --    0.06796   0.07426   0.07758   0.08292   0.09083
  Beta virt. eigenvalues --    0.09296   0.09488   0.09993   0.10703   0.11217
  Beta virt. eigenvalues --    0.11719   0.12042   0.12710   0.13278   0.14077

 Mulliken charges and spin densities:
               1          2
     1  C    2.141974  -2.621492
     2  C   -1.231557   0.954948
     3  N   -0.092620   0.181003
     4  C   -1.576956   0.604086
     5  C    1.477683  -0.533620
     6  C   -0.166348  -0.012572
     7  C   -1.278458   0.451359
     8  C   -0.004056   0.605984
     9  C   -0.989245   1.053753
    10  C    2.465708  -3.003395
    11  C    1.212012  -1.881215
    12  H   -0.502832   0.642261
    13  H   -0.390995   0.522432
    14  H   -0.204549   0.341749
    15  H   -0.309266   0.461689
    16  H    0.110803   0.026453
    17  H    0.040442   0.188459
    18  H   -0.142012   0.276531
    19  H   -0.313581   0.446969
    20  H   -0.614940   0.753913
    21  H    0.015243   0.144268
    22  H   -0.315634   0.462292
    23  H   -0.266900   0.401933
    24  H   -0.125794   0.289150
    25  H    0.059023   0.122100
    26  H    0.002853   0.120962
 Sum of Mulliken charges =  -1.00000   1.00000

 Dipole moment (field-independent basis, Debye):
    X=             -2.4708    Y=              4.5089    Z=             -1.2695  Tot=              5.2959
 Quadrupole moment (field-independent basis, Debye-Ang):
   XX=           -144.3751   YY=           -115.0961   ZZ=            -97.6307
   XY=              3.7037   XZ=              0.0441   YZ=              1.5344

 Summary of Natural Population Analysis:

                                       Natural Population
                Natural  -----------------------------------------------
    Atom  No    Charge         Core      Valence    Rydberg      Total
 -----------------------------------------------------------------------
      C    1   -0.28794      0.99967     2.28285    0.00542     3.28794
      C    2   -0.08439      0.99962     2.07437    0.01039     3.08439
      N    3   -0.32990      0.99970     2.81822    0.01198     3.82990
      C    4    0.08863      0.99943     1.89981    0.01213     2.91137
      C    5   -0.03009      0.99947     2.02203    0.00859     3.03009
      C    6   -0.09353      0.99952     2.08505    0.00896     3.09353
      C    7   -0.11078      0.99951     2.10179    0.00949     3.11078
      C    8   -0.01501      0.99952     2.00474    0.01076     3.01501
      C    9   -0.11390      0.99947     2.10441    0.01002     3.11390
      C   10   -0.29030      0.99964     2.28543    0.00522     3.29030
      C   11   -0.29499      0.99964     2.29044    0.00491     3.29499
      H   12    0.09806      0.00000     0.39969    0.00226     0.40194
      H   13    0.10124      0.00000     0.39730    0.00146     0.39876
      H   14    0.09871      0.00000     0.39995    0.00134     0.40129
      H   15    0.08263      0.00000     0.41554    0.00183     0.41737
      H   16    0.09187      0.00000     0.40624    0.00189     0.40813
      H   17    0.17736      0.00000     0.31884    0.00381     0.32264
      H   18    0.09528      0.00000     0.40350    0.00122     0.40472
      H   19    0.09766      0.00000     0.40134    0.00100     0.40234
      H   20    0.10019      0.00000     0.39819    0.00162     0.39981
      H   21    0.10219      0.00000     0.39647    0.00134     0.39781
      H   22    0.10427      0.00000     0.39413    0.00160     0.39573
      H   23    0.10192      0.00000     0.39662    0.00147     0.39808
      H   24    0.10164      0.00000     0.39663    0.00174     0.39836
      H   25    0.11008      0.00000     0.38854    0.00138     0.38992
      H   26    0.09912      0.00000     0.39987    0.00101     0.40088
 =======================================================================
   * Total *   -0.00000     10.99519    29.88198    0.12283    41.00000

 Normal termination of Gaussian 16 at Tue Dec  8 20:26:00 2020.
