 Gaussian 16, Revision A.03,

 -----------------------------------------------------------
 # opt freq B3LYP/6-31G(d) empiricaldispersion=gd3bj scf=xqc
 -----------------------------------------------------------

 -------------------------------
 CID_110643024_JID_9467_neutraal
 -------------------------------
 Symbolic Z-matrix:
 Charge =  0 Multiplicity = 1

 SCF Done:  E(RB3LYP) =  -844.813306106     A.U. after   16 cycles
 SCF Done:  E(RB3LYP) =  -844.784611006     A.U. after   13 cycles
 SCF Done:  E(RB3LYP) =  -844.818696351     A.U. after   12 cycles
 SCF Done:  E(RB3LYP) =  -844.819439386     A.U. after   12 cycles
 SCF Done:  E(RB3LYP) =  -844.819689287     A.U. after   11 cycles
 SCF Done:  E(RB3LYP) =  -844.819768806     A.U. after   11 cycles
 SCF Done:  E(RB3LYP) =  -844.819833994     A.U. after   10 cycles
 SCF Done:  E(RB3LYP) =  -844.819930569     A.U. after   11 cycles
 SCF Done:  E(RB3LYP) =  -844.820017161     A.U. after   12 cycles
 SCF Done:  E(RB3LYP) =  -844.820066247     A.U. after   10 cycles
 SCF Done:  E(RB3LYP) =  -844.823698218     A.U. after    9 cycles
 SCF Done:  E(RB3LYP) =  -844.823699273     A.U. after   10 cycles
 SCF Done:  E(RB3LYP) =  -844.823699996     A.U. after    8 cycles
 SCF Done:  E(RB3LYP) =  -844.823700144     A.U. after    8 cycles
 SCF Done:  E(RB3LYP) =  -844.823700174     A.U. after    7 cycles
 Optimization completed.
    -- Stationary point found.
 Normal termination of Gaussian 16 at Sat Dec 12 10:07:44 2020.

 --------------------------------------------------------------------
 #N Geom=AllCheck Guess=TCheck SCRF=Check GenChk RB3LYP/6-31G(d) Freq
 --------------------------------------------------------------------

 Structure from the checkpoint file:  "JID_9467.chk"
 -------------------------------
 CID_110643024_JID_9467_neutraal
 -------------------------------
 Charge =  0 Multiplicity = 1

 SCF Done:  E(RB3LYP) =  -844.823700174     A.U. after    1 cycles

  Exact polarizability: 157.557  -5.758 208.047 -16.120   1.090 150.803
 Approx polarizability: 214.759 -17.425 302.491 -39.286   1.555 258.507

                      1                      2                      3
                      A                      A                      A
 Frequencies --     18.9108                37.0301                49.7922
 Red. masses --      3.9990                 3.8311                 3.1796
 Frc consts  --      0.0008                 0.0031                 0.0046
 IR Inten    --      0.0951                 0.6063                 0.0165

                      4                      5                      6
                      A                      A                      A
 Frequencies --     67.6090                81.4419                93.5821
 Red. masses --      3.7320                 2.9169                 2.4839
 Frc consts  --      0.0101                 0.0114                 0.0128
 IR Inten    --      1.0689                 0.2622                 1.0712

                      7                      8                      9
                      A                      A                      A
 Frequencies --    112.1203               123.8193               140.0687
 Red. masses --      3.5739                 3.2967                 1.0694
 Frc consts  --      0.0265                 0.0298                 0.0124
 IR Inten    --      4.0369                 0.9877                 0.0137

                     10                     11                     12
                      A                      A                      A
 Frequencies --    157.6212               162.4882               175.2959
 Red. masses --      4.5420                 2.4960                 1.0988
 Frc consts  --      0.0665                 0.0388                 0.0199
 IR Inten    --      0.5578                 3.1209                 0.8154

                     13                     14                     15
                      A                      A                      A
 Frequencies --    205.2755               250.6587               259.8534
 Red. masses --      3.4424                 4.8214                 4.1722
 Frc consts  --      0.0855                 0.1785                 0.1660
 IR Inten    --      1.5371                 1.1670                 3.8624

                     16                     17                     18
                      A                      A                      A
 Frequencies --    289.8183               299.0183               310.1557
 Red. masses --      1.8916                 3.5017                 3.0910
 Frc consts  --      0.0936                 0.1845                 0.1752
 IR Inten    --      2.3586                 7.2452                 5.3720

                     19                     20                     21
                      A                      A                      A
 Frequencies --    351.7050               365.0337               386.1018
 Red. masses --      4.5935                 2.8694                 2.5960
 Frc consts  --      0.3348                 0.2253                 0.2280
 IR Inten    --      4.9310                 1.2432                 3.0229

                     22                     23                     24
                      A                      A                      A
 Frequencies --    417.2208               454.4506               515.1690
 Red. masses --      3.1968                 2.9643                 3.5023
 Frc consts  --      0.3279                 0.3607                 0.5476
 IR Inten    --      2.2786                 4.1470                 2.0776

                     25                     26                     27
                      A                      A                      A
 Frequencies --    522.4040               555.2022               572.9291
 Red. masses --      4.1482                 4.0405                 2.9458
 Frc consts  --      0.6670                 0.7338                 0.5697
 IR Inten    --     10.9323                 3.2284                27.7125

                     28                     29                     30
                      A                      A                      A
 Frequencies --    584.5521               617.6126               646.5001
 Red. masses --      3.2463                 3.7256                 2.7220
 Frc consts  --      0.6536                 0.8373                 0.6703
 IR Inten    --      2.9259                17.7110                 0.2894

                     31                     32                     33
                      A                      A                      A
 Frequencies --    694.7629               707.4978               750.1840
 Red. masses --      5.3356                 3.3164                 2.1304
 Frc consts  --      1.5174                 0.9781                 0.7064
 IR Inten    --      4.5379                22.4074                78.6145

                     34                     35                     36
                      A                      A                      A
 Frequencies --    762.6037               774.2623               788.2584
 Red. masses --      3.9532                 1.3488                 3.1078
 Frc consts  --      1.3546                 0.4764                 1.1377
 IR Inten    --      3.9965                 4.0746                59.3161

                     37                     38                     39
                      A                      A                      A
 Frequencies --    852.8591               859.0219               880.2912
 Red. masses --      1.5770                 2.0125                 1.8201
 Frc consts  --      0.6758                 0.8750                 0.8310
 IR Inten    --     11.9516                 8.0397                 9.6376

                     40                     41                     42
                      A                      A                      A
 Frequencies --    893.0169               914.9717               923.1444
 Red. masses --      2.4287                 2.4930                 1.4852
 Frc consts  --      1.1412                 1.2297                 0.7457
 IR Inten    --      7.5144                 3.5557                 4.9021

                     43                     44                     45
                      A                      A                      A
 Frequencies --    932.9489               966.9694               974.7091
 Red. masses --      3.3261                 1.3248                 2.1104
 Frc consts  --      1.7057                 0.7298                 1.1813
 IR Inten    --      5.2400                 1.0120                 2.9810

                     46                     47                     48
                      A                      A                      A
 Frequencies --    987.1148               995.5092              1026.9979
 Red. masses --      1.8612                 1.8927                 1.4366
 Frc consts  --      1.0685                 1.1052                 0.8927
 IR Inten    --      1.2971                 8.0158                 8.1284

                     49                     50                     51
                      A                      A                      A
 Frequencies --   1030.9065              1060.7585              1061.9383
 Red. masses --      1.6063                 2.0765                 1.8513
 Frc consts  --      1.0058                 1.3766                 1.2300
 IR Inten    --      0.6572                47.8217                 4.9825

                     52                     53                     54
                      A                      A                      A
 Frequencies --   1066.5403              1086.1372              1094.4612
 Red. masses --      2.0590                 1.5995                 4.2813
 Frc consts  --      1.3800                 1.1117                 3.0216
 IR Inten    --      4.2518                 0.0427                61.5388

                     55                     56                     57
                      A                      A                      A
 Frequencies --   1123.3555              1139.3811              1143.1333
 Red. masses --      2.1630                 1.6216                 2.4095
 Frc consts  --      1.6082                 1.2403                 1.8551
 IR Inten    --      4.6461                 0.7677                 3.1289

                     58                     59                     60
                      A                      A                      A
 Frequencies --   1168.0951              1174.9959              1196.0204
 Red. masses --      1.7926                 2.6076                 2.3934
 Frc consts  --      1.4411                 2.1211                 2.0172
 IR Inten    --     13.0147                12.2152                14.3388

                     61                     62                     63
                      A                      A                      A
 Frequencies --   1215.3618              1234.3102              1237.3270
 Red. masses --      2.2664                 1.3943                 1.2477
 Frc consts  --      1.9725                 1.2516                 1.1255
 IR Inten    --      2.3788                 8.3656                 1.9312

                     64                     65                     66
                      A                      A                      A
 Frequencies --   1264.3123              1273.8714              1285.2031
 Red. masses --      2.5888                 1.1883                 1.3578
 Frc consts  --      2.4381                 1.1361                 1.3213
 IR Inten    --      4.2228                 5.8747                 6.9283

                     67                     68                     69
                      A                      A                      A
 Frequencies --   1292.7107              1323.9217              1332.4613
 Red. masses --      1.3034                 1.4084                 1.3261
 Frc consts  --      1.2833                 1.4544                 1.3872
 IR Inten    --      8.4547                27.7782                 6.3592

                     70                     71                     72
                      A                      A                      A
 Frequencies --   1338.3427              1343.8607              1357.8466
 Red. masses --      1.2208                 1.3039                 5.6638
 Frc consts  --      1.2884                 1.3874                 6.1526
 IR Inten    --      2.2517                23.4864                28.8697

                     73                     74                     75
                      A                      A                      A
 Frequencies --   1367.4546              1382.4946              1406.4106
 Red. masses --      4.6227                 1.4434                 1.4930
 Frc consts  --      5.0930                 1.6254                 1.7400
 IR Inten    --    143.8070                27.4796                27.2999

                     76                     77                     78
                      A                      A                      A
 Frequencies --   1411.1919              1434.8355              1438.5224
 Red. masses --      1.2726                 1.4016                 1.3000
 Frc consts  --      1.4932                 1.7002                 1.5850
 IR Inten    --      5.9893                 3.2389                 0.1673

                     79                     80                     81
                      A                      A                      A
 Frequencies --   1449.9904              1450.8653              1463.7856
 Red. masses --      2.4207                 1.2617                 1.4864
 Frc consts  --      2.9986                 1.5648                 1.8764
 IR Inten    --      4.8583                 0.9668                 2.7559

                     82                     83                     84
                      A                      A                      A
 Frequencies --   1503.9646              1506.5874              1515.2936
 Red. masses --      1.0952                 1.0452                 1.0962
 Frc consts  --      1.4596                 1.3978                 1.4830
 IR Inten    --      7.0826                 0.2343                 3.1323

                     85                     86                     87
                      A                      A                      A
 Frequencies --   1519.9006              1522.5564              1523.7390
 Red. masses --      1.1348                 1.0549                 1.1597
 Frc consts  --      1.5445                 1.4408                 1.5865
 IR Inten    --     13.5488                13.3996                 2.3212

                     88                     89                     90
                      A                      A                      A
 Frequencies --   1528.3913              1534.9776              1537.8960
 Red. masses --      1.0921                 1.0955                 1.0854
 Frc consts  --      1.5031                 1.5207                 1.5125
 IR Inten    --      5.2794                 3.3579                 4.9758

                     91                     92                     93
                      A                      A                      A
 Frequencies --   1552.4997              1558.3067              1629.7893
 Red. masses --      2.3044                 1.1143                 6.1884
 Frc consts  --      3.2724                 1.5943                 9.6849
 IR Inten    --      3.9186                 4.2678                12.3813

                     94                     95                     96
                      A                      A                      A
 Frequencies --   1673.1866              1776.7549              2909.8150
 Red. masses --      5.8078                 9.4911                 1.0745
 Frc consts  --      9.5796                17.6531                 5.3602
 IR Inten    --     19.4607               279.6573                38.5388

                     97                     98                     99
                      A                      A                      A
 Frequencies --   2920.6404              2944.3281              3009.2101
 Red. masses --      1.0741                 1.0719                 1.0645
 Frc consts  --      5.3984                 5.4747                 5.6795
 IR Inten    --     95.8203                96.2636                54.7717

                    100                    101                    102
                      A                      A                      A
 Frequencies --   3039.2599              3043.1095              3071.1160
 Red. masses --      1.0388                 1.0382                 1.0659
 Frc consts  --      5.6534                 5.6644                 5.9233
 IR Inten    --     21.3837                29.3153                28.6749

                    103                    104                    105
                      A                      A                      A
 Frequencies --   3073.1350              3077.1469              3085.0019
 Red. masses --      1.0832                 1.0788                 1.0995
 Frc consts  --      6.0273                 6.0183                 6.1652
 IR Inten    --      3.6268                73.7679                28.7587

                    106                    107                    108
                      A                      A                      A
 Frequencies --   3086.1153              3086.8898              3092.8963
 Red. masses --      1.0694                 1.0997                 1.0994
 Frc consts  --      6.0007                 6.1740                 6.1963
 IR Inten    --     39.8783                26.6723                14.0906

                    109                    110                    111
                      A                      A                      A
 Frequencies --   3108.6587              3128.9214              3130.8681
 Red. masses --      1.1069                 1.1066                 1.1004
 Frc consts  --      6.3021                 6.3828                 6.3551
 IR Inten    --      1.9100                46.3069                42.6301

                    112                    113                    114
                      A                      A                      A
 Frequencies --   3132.1147              3185.1165              3185.4591
 Red. masses --      1.1000                 1.0864                 1.0890
 Frc consts  --      6.3578                 6.4935                 6.5107
 IR Inten    --      1.1026                 6.2625                17.8335

                    115                    116                    117
                      A                      A                      A
 Frequencies --   3213.0545              3219.9491              3490.9103
 Red. masses --      1.0905                 1.0929                 1.0763
 Frc consts  --      6.6333                 6.6761                 7.7279
 IR Inten    --      3.7319                 4.7346                 6.9694

 - Thermochemistry -
 -------------------
 Temperature   298.150 Kelvin.  Pressure   1.00000 Atm.
 Atom     1 has atomic number  6 and mass  12.00000

 Molecular mass:   262.16813 amu.
 Principal axes and moments of inertia in atomic units:
                           1         2         3
     Eigenvalues --  4452.456865137.826148011.30815
           X            0.99507   0.09913   0.00219
           Y           -0.09915   0.99503   0.00925
           Z           -0.00127  -0.00942   0.99995
 This molecule is an asymmetric top.
 Rotational symmetry number  1.
 Warning -- assumption of classical behavior for rotation
           may cause significant error
 Rotational temperatures (Kelvin)      0.01945     0.01686     0.01081
 Rotational constants (GHZ):           0.40534     0.35127     0.22527
 Zero-point vibrational energy     934743.6 (Joules/Mol)
                                  223.40909 (Kcal/Mol)
 Warning -- explicit consideration of  29 degrees of freedom as
           vibrations may cause significant error
 Vibrational temperatures:     27.21    53.28    71.64    97.27   117.18
          (Kelvin)            134.64   161.32   178.15   201.53   226.78
                              233.78   252.21   295.35   360.64   373.87
                              416.98   430.22   446.24   506.03   525.20
                              555.51   600.29   653.85   741.21   751.62
                              798.81   824.32   841.04   888.61   930.17
                              999.61  1017.93  1079.35  1097.22  1113.99
                             1134.13  1227.07  1235.94  1266.54  1284.85
                             1316.44  1328.20  1342.31  1391.25  1402.39
                             1420.24  1432.32  1477.62  1483.24  1526.19
                             1527.89  1534.51  1562.71  1574.69  1616.26
                             1639.32  1644.71  1680.63  1690.56  1720.81
                             1748.63  1775.90  1780.24  1819.06  1832.82
                             1849.12  1859.92  1904.83  1917.11  1925.58
                             1933.52  1953.64  1967.46  1989.10  2023.51
                             2030.39  2064.41  2069.71  2086.21  2087.47
                             2106.06  2163.87  2167.64  2180.17  2186.80
                             2190.62  2192.32  2199.01  2208.49  2212.69
                             2233.70  2242.06  2344.90  2407.34  2556.35
                             4186.57  4202.15  4236.23  4329.58  4372.82
                             4378.36  4418.65  4421.56  4427.33  4438.63
                             4440.23  4441.35  4449.99  4472.67  4501.82
                             4504.62  4506.41  4582.67  4583.17  4622.87
                             4632.79  5022.64

 Zero-point correction=                           0.356025 (Hartree/Particle)
 Thermal correction to Energy=                    0.374986
 Thermal correction to Enthalpy=                  0.375930
 Thermal correction to Gibbs Free Energy=         0.307522
 Sum of electronic and zero-point Energies=           -844.467675
 Sum of electronic and thermal Energies=              -844.448714
 Sum of electronic and thermal Enthalpies=            -844.447770
 Sum of electronic and thermal Free Energies=         -844.516178

                     E (Thermal)             CV                S
                      KCal/Mol        Cal/Mol-Kelvin    Cal/Mol-Kelvin
 Total                  235.307             71.470            143.977
 Electronic               0.000              0.000              0.000
 Translational            0.889              2.981             42.591
 Rotational               0.889              2.981             33.571
 Vibrational            233.530             65.509             67.815
 Vibration     1          0.593              1.986              6.745
 Vibration     2          0.594              1.982              5.412
 Vibration     3          0.595              1.978              4.826
 Vibration     4          0.598              1.970              4.222
 Vibration     5          0.600              1.962              3.856
 Vibration     6          0.603              1.954              3.584
 Vibration     7          0.607              1.939              3.232
 Vibration     8          0.610              1.929              3.040
 Vibration     9          0.615              1.913              2.803
 Vibration    10          0.621              1.894              2.578
 Vibration    11          0.623              1.888              2.521
 Vibration    12          0.627              1.873              2.378
 Vibration    13          0.640              1.832              2.085
 Vibration    14          0.663              1.762              1.726
 Vibration    15          0.668              1.746              1.663
 Vibration    16          0.686              1.693              1.475
 Vibration    17          0.692              1.676              1.422
 Vibration    18          0.699              1.654              1.362
 Vibration    19          0.728              1.572              1.159
 Vibration    20          0.738              1.544              1.101
 Vibration    21          0.755              1.500              1.015
 Vibration    22          0.780              1.433              0.901
 Vibration    23          0.813              1.351              0.782
 Vibration    24          0.870              1.216              0.621
 Vibration    25          0.877              1.200              0.604
 Vibration    26          0.911              1.128              0.533
 Vibration    27          0.929              1.090              0.499
 Vibration    28          0.941              1.065              0.477
 Vibration    29          0.977              0.995              0.420

 Optimization completed.
    -- Stationary point found.
 Normal termination of Gaussian 16 at Sat Dec 12 10:33:23 2020.

 ----------------------------------------------------------------------
 # B3LYP/6-311++G(d,p) empiricaldispersion=gd3bj scf=xqc pop=npa geom=c
 heck
 ----------------------------------------------------------------------

 ---------------------------------------
 CID_110643024_JID_9467_Energie_neutraal
 ---------------------------------------
 Structure from the checkpoint file:  "JID_9467.chk"
 Charge =  0 Multiplicity = 1

 SCF Done:  E(RB3LYP) =  -845.056850164     A.U. after   15 cycles
 Normal termination of Gaussian 16 at Sat Dec 12 10:45:29 2020.

 ----------------------------------------------------------------------
 # B3LYP/6-311++G(d,p) empiricaldispersion=gd3bj scf=xqc pop=npa geom=c
 heck
 ----------------------------------------------------------------------

 -------------------------------------
 CID_110643024_JID_9467_Energie_kation
 -------------------------------------
 Structure from the checkpoint file:  "JID_9467.chk"
 Charge =  1 Multiplicity = 2

 SCF Done:  E(UB3LYP) =  -844.766931437     A.U. after   28 cycles
 Normal termination of Gaussian 16 at Sat Dec 12 11:16:36 2020.
 Gaussian 16:  ES64L-G16RevA.03 25-Dec-2016

 ----------------------------------------------------------------------
 # B3LYP/6-311++G(d,p) empiricaldispersion=gd3bj scf=xqc pop=npa geom=c
 heck
 ----------------------------------------------------------------------

 ------------------------------------
 CID_110643024_JID_9467_Energie_anion
 ------------------------------------
 Structure from the checkpoint file:  "JID_9467.chk"
 Charge = -1 Multiplicity = 2

                         Standard orientation:
 ---------------------------------------------------------------------
 Center     Atomic      Atomic             Coordinates (Angstroms)
 Number     Number       Type             X           Y           Z
 ---------------------------------------------------------------------
      1          6           0        1.677350    3.661106   -0.629953
      2          6           0        1.765948    2.168885   -0.436733
      3          6           0        1.399700    1.583073    0.793822
      4          6           0        1.465275    0.196796    0.931116
      5          6           0        1.902901   -0.619444   -0.118000
      6          6           0        2.303980   -0.033389   -1.320614
      7          6           0        2.218589    1.346703   -1.474621
      8          6           0        2.007283   -2.097421    0.017069
      9          8           0        2.885560   -2.766071   -0.509887
     10          7           0        1.078988   -2.719798    0.857542
     11          8           0       -0.233230   -2.217029    0.911210
     12          6           0       -0.932602   -2.491570   -0.316564
     13          6           0       -2.342431   -1.924946   -0.242126
     14          7           0       -2.387169   -0.483309   -0.393607
     15          6           0       -2.079944    0.294125    0.807278
     16          6           0       -2.385471    1.729339    0.363542
     17          6           0       -3.540277    1.565453   -0.665185
     18          6           0       -3.679532    0.038513   -0.839709
     19          6           0        0.934349    2.436285    1.947188
     20          1           0        0.651662    4.023974   -0.484957
     21          1           0        2.305600    4.199302    0.091110
     22          1           0        1.996866    3.949413   -1.635320
     23          1           0        1.180307   -0.259717    1.873029
     24          1           0        2.670666   -0.666345   -2.121990
     25          1           0        2.510964    1.800739   -2.417960
     26          1           0        1.088124   -3.734837    0.756520
     27          1           0       -0.397472   -2.033487   -1.156872
     28          1           0       -0.970474   -3.581997   -0.463817
     29          1           0       -2.897162   -2.369611   -1.077422
     30          1           0       -2.831546   -2.271960    0.689029
     31          1           0       -1.047287    0.140788    1.114103
     32          1           0       -2.735889   -0.001049    1.652001
     33          1           0       -2.653373    2.374103    1.205881
     34          1           0       -1.502129    2.156296   -0.121335
     35          1           0       -4.476582    2.008673   -0.313819
     36          1           0       -3.286095    2.045834   -1.614297
     37          1           0       -4.510284   -0.341777   -0.212118
     38          1           0       -3.879864   -0.265571   -1.873122
     39          1           0        0.035302    3.008795    1.688128
     40          1           0        0.697275    1.820285    2.819183
     41          1           0        1.699302    3.163647    2.246862
 ---------------------------------------------------------------------

 SCF Done:  E(UB3LYP) =  -845.053496671     A.U. after   33 cycles
 SCF Done:  E(UB3LYP) =  -845.053496671     a.u. after    1 cycles

 The electronic state is 2-A.
 Alpha  occ. eigenvalues --  -19.05395 -18.95454 -14.24809 -14.20279 -10.12393
 Alpha  occ. eigenvalues --  -10.11647 -10.10203 -10.09300 -10.07879 -10.06710
 Alpha  occ. eigenvalues --  -10.06226 -10.06022 -10.05856 -10.05485 -10.04587
 Alpha  occ. eigenvalues --  -10.04362 -10.03966 -10.03940 -10.03769  -0.97961
 Alpha  occ. eigenvalues --   -0.89940  -0.83601  -0.73934  -0.73206  -0.68570
 Alpha  occ. eigenvalues --   -0.66089  -0.64455  -0.62159  -0.61912  -0.58601
 Alpha  occ. eigenvalues --   -0.56321  -0.52806  -0.49733  -0.48135  -0.47779
 Alpha  occ. eigenvalues --   -0.47133  -0.43733  -0.42491  -0.40390  -0.38679
 Alpha  occ. eigenvalues --   -0.38386  -0.35803  -0.35232  -0.34389  -0.33788
 Alpha  occ. eigenvalues --   -0.33012  -0.32577  -0.31284  -0.30698  -0.29738
 Alpha  occ. eigenvalues --   -0.29400  -0.29132  -0.28553  -0.27807  -0.27700
 Alpha  occ. eigenvalues --   -0.27193  -0.26270  -0.25960  -0.25001  -0.23957
 Alpha  occ. eigenvalues --   -0.23762  -0.22492  -0.22142  -0.21928  -0.21393
 Alpha  occ. eigenvalues --   -0.18426  -0.15439  -0.12722  -0.12592  -0.12080
 Alpha  occ. eigenvalues --   -0.11525   0.04596
 Alpha virt. eigenvalues --    0.06251   0.07124   0.07675   0.08104   0.09124
 Alpha virt. eigenvalues --    0.09235   0.09836   0.10067   0.10380   0.11390
 Alpha virt. eigenvalues --    0.11581   0.11892   0.12005   0.12604   0.12715

  Beta  occ. eigenvalues --  -19.05357 -18.95182 -14.24776 -14.20274 -10.12147
  Beta  occ. eigenvalues --  -10.11636 -10.10199 -10.09287 -10.07871 -10.06692
  Beta  occ. eigenvalues --  -10.06220 -10.06016 -10.05875 -10.05542 -10.04413
  Beta  occ. eigenvalues --  -10.04286 -10.03863 -10.03813 -10.03653  -0.97840
  Beta  occ. eigenvalues --   -0.89444  -0.83586  -0.73702  -0.73039  -0.68516
  Beta  occ. eigenvalues --   -0.65839  -0.64262  -0.62133  -0.61853  -0.58418
  Beta  occ. eigenvalues --   -0.56106  -0.52745  -0.49331  -0.48075  -0.47683
  Beta  occ. eigenvalues --   -0.47080  -0.43544  -0.42403  -0.40339  -0.38650
  Beta  occ. eigenvalues --   -0.38224  -0.35656  -0.35170  -0.34349  -0.33512
  Beta  occ. eigenvalues --   -0.32883  -0.32401  -0.31189  -0.30559  -0.29645
  Beta  occ. eigenvalues --   -0.29281  -0.29002  -0.28358  -0.27760  -0.27508
  Beta  occ. eigenvalues --   -0.27020  -0.25932  -0.25576  -0.24946  -0.23918
  Beta  occ. eigenvalues --   -0.23675  -0.22285  -0.22050  -0.21446  -0.21236
  Beta  occ. eigenvalues --   -0.18360  -0.14836  -0.12243  -0.12152  -0.11816
  Beta  occ. eigenvalues --   -0.10565
  Beta virt. eigenvalues --    0.06581   0.07207   0.07823   0.08179   0.09115
  Beta virt. eigenvalues --    0.09237   0.09411   0.09791   0.10215   0.10476
  Beta virt. eigenvalues --    0.11436   0.11571   0.11864   0.12005   0.12656

 Mulliken charges and spin densities:
               1          2
     1  C   -0.299108  -0.276161
     2  C    0.305015   0.325181
     3  C    0.237998   0.027746
     4  C   -0.600142   0.117654
     5  C    0.400118  -0.021744
     6  C   -0.219229   0.084104
     7  C   -0.416751  -0.033583
     8  C   -0.423836   0.129171
     9  O   -0.344368   0.094578
    10  N   -0.269015   0.015655
    11  O    0.050402   0.008300
    12  C   -0.219404   0.042728
    13  C   -0.251628  -0.072863
    14  N    0.243286   0.043288
    15  C   -0.589350   0.175388
    16  C   -0.472233   0.225345
    17  C    0.384159  -0.912889
    18  C    0.048106  -0.212149
    19  C   -0.524693  -0.056743
    20  H   -0.149823   0.298691
    21  H    0.142728  -0.003927
    22  H    0.100717   0.029595
    23  H    0.184671  -0.003058
    24  H    0.154012   0.009385
    25  H    0.087155   0.027320
    26  H    0.286105  -0.001443
    27  H    0.175891  -0.000326
    28  H    0.053334   0.049941
    29  H    0.067188   0.086620
    30  H    0.108079   0.013805
    31  H    0.292612  -0.022217
    32  H    0.027530   0.070559
    33  H   -0.077894   0.212190
    34  H    0.606657  -0.538594
    35  H   -0.260223   0.401124
    36  H   -0.129133   0.274592
    37  H    0.027007   0.080554
    38  H   -0.102038   0.244866
    39  H    0.136956   0.026696
    40  H    0.118853   0.011719
    41  H    0.110288   0.028902
 Sum of Mulliken charges =  -1.00000   1.00000

 Dipole moment (field-independent basis, Debye):
    X=             -2.0365    Y=              0.1269    Z=              1.4393  Tot=              2.4970
 Quadrupole moment (field-independent basis, Debye-Ang):
   XX=           -179.6516   YY=           -152.3035   ZZ=           -135.7085
   XY=             21.4981   XZ=             -0.0733   YZ=              1.2826

 Summary of Natural Population Analysis:

                                       Natural Population
                Natural  -----------------------------------------------
    Atom  No    Charge         Core      Valence    Rydberg      Total
 -----------------------------------------------------------------------
      C    1   -0.29591      0.99965     2.29090    0.00536     3.29591
      C    2    0.03333      0.99947     1.95849    0.00870     2.96667
      C    3   -0.03774      0.99947     2.02947    0.00880     3.03774
      C    4   -0.06357      0.99950     2.05524    0.00884     3.06357
      C    5   -0.05439      0.99940     2.04399    0.01099     3.05439
      C    6   -0.06199      0.99954     2.05291    0.00953     3.06199
      C    7   -0.11809      0.99953     2.10902    0.00955     3.11809
      C    8    0.35685      0.99962     1.62114    0.02239     2.64315
      O    9   -0.29303      0.99988     3.28754    0.00561     4.29303
      N   10   -0.17083      0.99965     2.65626    0.01492     3.67083
      O   11   -0.21915      0.99989     3.20949    0.00977     4.21915
      C   12   -0.01643      0.99958     2.00498    0.01186     3.01643
      C   13   -0.09251      0.99961     2.08087    0.01203     3.09251
      N   14   -0.27886      0.99970     2.76789    0.01127     3.77886
      C   15   -0.08782      0.99962     2.07702    0.01119     3.08782
      C   16   -0.19640      0.99963     2.18827    0.00850     3.19640
      C   17   -0.19506      0.99964     2.18751    0.00791     3.19506
      C   18   -0.08209      0.99964     2.07113    0.01133     3.08209
      C   19   -0.29323      0.99964     2.28671    0.00688     3.29323
      H   20    0.10307      0.00000     0.39583    0.00110     0.39693
      H   21    0.09886      0.00000     0.40031    0.00083     0.40114
      H   22    0.09808      0.00000     0.40122    0.00070     0.40192
      H   23    0.10002      0.00000     0.39886    0.00111     0.39998
      H   24    0.10147      0.00000     0.39728    0.00125     0.39853
      H   25    0.09176      0.00000     0.40732    0.00093     0.40824
      H   26    0.17286      0.00000     0.32541    0.00172     0.32714
      H   27    0.09609      0.00000     0.40207    0.00185     0.40391
      H   28    0.07588      0.00000     0.42290    0.00122     0.42412
      H   29    0.09713      0.00000     0.40174    0.00113     0.40287
      H   30    0.08379      0.00000     0.41463    0.00159     0.41621
      H   31    0.11429      0.00000     0.38370    0.00201     0.38571
      H   32    0.07142      0.00000     0.42701    0.00157     0.42858
      H   33    0.09569      0.00000     0.40333    0.00098     0.40431
      H   34    0.10353      0.00000     0.39455    0.00192     0.39647
      H   35    0.09675      0.00000     0.40203    0.00123     0.40325
      H   36    0.09915      0.00000     0.39978    0.00107     0.40085
      H   37    0.07570      0.00000     0.42267    0.00163     0.42430
      H   38    0.09424      0.00000     0.40446    0.00130     0.40576
      H   39    0.10032      0.00000     0.39874    0.00094     0.39968
      H   40    0.09946      0.00000     0.39978    0.00076     0.40054
      H   41    0.09738      0.00000     0.40172    0.00090     0.40262
 =======================================================================
   * Total *    0.00001     18.99267    51.78416    0.22317    70.99999

 Normal termination of Gaussian 16 at Sat Dec 12 11:54:37 2020.
