 Gaussian 16, Revision A.03,

 -----------------------------------------------------------
 # opt freq B3LYP/6-31G(d) empiricaldispersion=gd3bj scf=xqc
 -----------------------------------------------------------

 -------------------------------
 CID_112323039_JID_9978_neutraal
 -------------------------------
 Symbolic Z-matrix:
 Charge =  0 Multiplicity = 1

 SCF Done:  E(RB3LYP) =  -822.564534445     A.U. after   14 cycles
 SCF Done:  E(RB3LYP) =  -822.568050068     A.U. after   13 cycles
 SCF Done:  E(RB3LYP) =  -822.569651144     A.U. after   13 cycles
 SCF Done:  E(RB3LYP) =  -822.571217647     A.U. after   13 cycles
 SCF Done:  E(RB3LYP) =  -822.571326843     A.U. after   13 cycles
 SCF Done:  E(RB3LYP) =  -822.572478906     A.U. after   12 cycles
 SCF Done:  E(RB3LYP) =  -822.572978489     A.U. after   12 cycles
 SCF Done:  E(RB3LYP) =  -822.573409983     A.U. after   12 cycles
 SCF Done:  E(RB3LYP) =  -822.574002533     A.U. after   12 cycles
 SCF Done:  E(RB3LYP) =  -822.575037389     A.U. after   14 cycles
 SCF Done:  E(RB3LYP) =  -822.576825779     A.U. after   11 cycles
 SCF Done:  E(RB3LYP) =  -822.576827815     A.U. after    9 cycles
 SCF Done:  E(RB3LYP) =  -822.576828732     A.U. after    8 cycles
 SCF Done:  E(RB3LYP) =  -822.576828966     A.U. after    8 cycles
 SCF Done:  E(RB3LYP) =  -822.576829086     A.U. after    8 cycles
 Optimization completed.
    -- Stationary point found.
 Normal termination of Gaussian 16 at Sat Dec 12 10:21:04 2020.

 --------------------------------------------------------------------
 #N Geom=AllCheck Guess=TCheck SCRF=Check GenChk RB3LYP/6-31G(d) Freq
 --------------------------------------------------------------------

 Structure from the checkpoint file:  "JID_9978.chk"
 -------------------------------
 CID_112323039_JID_9978_neutraal
 -------------------------------
 Charge =  0 Multiplicity = 1

 SCF Done:  E(RB3LYP) =  -822.576829086     A.U. after    1 cycles

  Exact polarizability: 181.054  14.619 184.531   2.001 -17.986 143.402
 Approx polarizability: 240.184  20.738 288.400  -1.697 -40.167 257.047

                      1                      2                      3
                      A                      A                      A
 Frequencies --     20.7300                33.7263                54.5842
 Red. masses --      5.7119                 3.8824                 5.1427
 Frc consts  --      0.0014                 0.0026                 0.0090
 IR Inten    --      0.1397                 0.1686                 0.2641

                      4                      5                      6
                      A                      A                      A
 Frequencies --     64.4990               100.8634               115.8852
 Red. masses --      3.5850                 4.8357                 3.4036
 Frc consts  --      0.0088                 0.0290                 0.0269
 IR Inten    --      0.3787                 1.7554                 0.3985

                      7                      8                      9
                      A                      A                      A
 Frequencies --    145.8107               184.3765               199.9032
 Red. masses --      3.5069                 3.5791                 3.6137
 Frc consts  --      0.0439                 0.0717                 0.0851
 IR Inten    --      1.4305                 0.3403                 1.6480

                     10                     11                     12
                      A                      A                      A
 Frequencies --    226.1817               241.1966               254.4706
 Red. masses --      3.8495                 1.0646                 1.2141
 Frc consts  --      0.1160                 0.0365                 0.0463
 IR Inten    --      1.9284                 0.3418                 0.2944

                     13                     14                     15
                      A                      A                      A
 Frequencies --    258.7761               295.3249               316.9596
 Red. masses --      2.8794                 3.3776                 2.5681
 Frc consts  --      0.1136                 0.1736                 0.1520
 IR Inten    --      0.3886                 1.7259                 2.7959

                     16                     17                     18
                      A                      A                      A
 Frequencies --    324.4256               372.4321               417.3440
 Red. masses --      3.6301                 4.1831                 3.0863
 Frc consts  --      0.2251                 0.3419                 0.3167
 IR Inten    --      0.6718                12.1003                 0.4910

                     19                     20                     21
                      A                      A                      A
 Frequencies --    420.9545               432.7181               443.3420
 Red. masses --      3.7655                 5.1937                 3.1956
 Frc consts  --      0.3931                 0.5730                 0.3701
 IR Inten    --      4.0586                10.4495                 1.1869

                     22                     23                     24
                      A                      A                      A
 Frequencies --    475.9867               504.6544               555.2863
 Red. masses --      3.6005                 3.3521                 3.4260
 Frc consts  --      0.4806                 0.5030                 0.6224
 IR Inten    --     10.8140                 0.6373                 8.3430

                     25                     26                     27
                      A                      A                      A
 Frequencies --    580.5790               615.6436               637.1267
 Red. masses --      3.5058                 2.2650                 6.3184
 Frc consts  --      0.6962                 0.5058                 1.5112
 IR Inten    --      6.9521                29.7035                 1.1378

                     28                     29                     30
                      A                      A                      A
 Frequencies --    645.5905               652.1646               690.3867
 Red. masses --      4.0364                 4.2933                 1.6842
 Frc consts  --      0.9912                 1.0758                 0.4730
 IR Inten    --     25.1961                15.5633               123.2237

                     31                     32                     33
                      A                      A                      A
 Frequencies --    719.1046               753.9339               780.3575
 Red. masses --      1.8506                 4.1715                 1.9243
 Frc consts  --      0.5638                 1.3970                 0.6904
 IR Inten    --     24.4594                 2.2552                11.1291

                     34                     35                     36
                      A                      A                      A
 Frequencies --    784.9778               801.8049               843.5800
 Red. masses --      3.0441                 3.0564                 1.9231
 Frc consts  --      1.1052                 1.1577                 0.8063
 IR Inten    --      8.4415                15.7380                45.9078

                     37                     38                     39
                      A                      A                      A
 Frequencies --    860.6120               865.7682               906.2536
 Red. masses --      1.4134                 1.2593                 2.2895
 Frc consts  --      0.6168                 0.5562                 1.1079
 IR Inten    --      8.2434                 1.1230                17.4293

                     40                     41                     42
                      A                      A                      A
 Frequencies --    931.0950               944.5478               953.9555
 Red. masses --      1.4160                 1.6800                 1.4912
 Frc consts  --      0.7233                 0.8831                 0.7995
 IR Inten    --      3.2710                 3.4532                13.5287

                     43                     44                     45
                      A                      A                      A
 Frequencies --    960.6734               972.7807               981.7421
 Red. masses --      1.3863                 1.3314                 1.4440
 Frc consts  --      0.7538                 0.7423                 0.8200
 IR Inten    --      2.1203                 0.3124                 0.2875

                     46                     47                     48
                      A                      A                      A
 Frequencies --    989.6968               996.7168              1022.4519
 Red. masses --      2.1071                 1.2444                 5.9420
 Frc consts  --      1.2160                 0.7284                 3.6599
 IR Inten    --     23.1958                 0.4081                 0.3755

                     49                     50                     51
                      A                      A                      A
 Frequencies --   1047.0492              1056.4742              1059.8926
 Red. masses --      5.4053                 1.9929                 2.3723
 Frc consts  --      3.4914                 1.3106                 1.5701
 IR Inten    --     40.4478                17.8175                 7.4536

                     52                     53                     54
                      A                      A                      A
 Frequencies --   1091.1843              1098.2684              1106.3326
 Red. masses --      2.8795                 2.2125                 1.7192
 Frc consts  --      2.0200                 1.5724                 1.2398
 IR Inten    --      9.1164                20.6711                 4.8777

                     55                     56                     57
                      A                      A                      A
 Frequencies --   1117.4573              1144.9680              1173.5508
 Red. masses --      1.7600                 2.5112                 2.9870
 Frc consts  --      1.2949                 1.9396                 2.4238
 IR Inten    --     11.5219                55.2471                 5.7689

                     58                     59                     60
                      A                      A                      A
 Frequencies --   1181.3063              1192.1635              1200.2082
 Red. masses --      2.7641                 1.1064                 2.2206
 Frc consts  --      2.2726                 0.9265                 1.8847
 IR Inten    --     21.1512                 0.2495                 5.3016

                     61                     62                     63
                      A                      A                      A
 Frequencies --   1213.4865              1219.4056              1239.3977
 Red. masses --      1.1655                 1.8401                 3.2536
 Frc consts  --      1.0112                 1.6121                 2.9447
 IR Inten    --      3.4401                 2.5088                14.8124

                     64                     65                     66
                      A                      A                      A
 Frequencies --   1264.5893              1280.1194              1291.5621
 Red. masses --      4.3528                 3.5157                 1.2584
 Frc consts  --      4.1013                 3.3944                 1.2368
 IR Inten    --      6.4070                54.9429                 6.5080

                     67                     68                     69
                      A                      A                      A
 Frequencies --   1323.0326              1333.2535              1346.9656
 Red. masses --      1.5124                 1.3636                 2.0840
 Frc consts  --      1.5597                 1.4281                 2.2278
 IR Inten    --     17.3696                 2.3134                 4.3382

                     70                     71                     72
                      A                      A                      A
 Frequencies --   1365.7654              1371.8168              1411.4226
 Red. masses --      2.4707                 1.2983                 1.2764
 Frc consts  --      2.7153                 1.4395                 1.4981
 IR Inten    --      0.3034                 3.7297                 6.8591

                     73                     74                     75
                      A                      A                      A
 Frequencies --   1429.0307              1432.8089              1448.0322
 Red. masses --      1.2324                 1.2818                 1.7749
 Frc consts  --      1.4828                 1.5505                 2.1927
 IR Inten    --     10.6670                 2.0185                23.1857

                     76                     77                     78
                      A                      A                      A
 Frequencies --   1464.0138              1495.3156              1510.4223
 Red. masses --      1.3596                 2.2206                 1.0703
 Frc consts  --      1.7170                 2.9255                 1.4387
 IR Inten    --     55.8544                 6.0949                 6.9784

                     79                     80                     81
                      A                      A                      A
 Frequencies --   1517.0047              1521.7244              1522.5564
 Red. masses --      1.0572                 1.7259                 1.1339
 Frc consts  --      1.4334                 2.3547                 1.5488
 IR Inten    --      3.8823                 9.0401                 0.9245

                     82                     83                     84
                      A                      A                      A
 Frequencies --   1528.5150              1544.1662              1549.2577
 Red. masses --      1.0983                 1.8867                 1.2529
 Frc consts  --      1.5118                 2.6506                 1.7718
 IR Inten    --      5.9692                 3.1847                40.8841

                     85                     86                     87
                      A                      A                      A
 Frequencies --   1551.9749              1592.3091              1635.1952
 Red. masses --      1.0962                 8.1603                 5.0097
 Frc consts  --      1.5556                12.1903                 7.8922
 IR Inten    --     11.2320                 3.7424                 0.7596

                     88                     89                     90
                      A                      A                      A
 Frequencies --   1644.1704              1666.6337              3013.9118
 Red. masses --      5.6571                 5.6127                 1.0670
 Frc consts  --      9.0103                 9.1855                 5.7105
 IR Inten    --      0.8590                 4.3904                33.1513

                     91                     92                     93
                      A                      A                      A
 Frequencies --   3031.1646              3054.8008              3061.2028
 Red. masses --      1.0829                 1.0366                 1.0916
 Frc consts  --      5.8623                 5.6991                 6.0269
 IR Inten    --     23.9673                21.1663                32.2661

                     94                     95                     96
                      A                      A                      A
 Frequencies --   3066.7479              3123.1946              3141.5865
 Red. masses --      1.0379                 1.1009                 1.1028
 Frc consts  --      5.7514                 6.3270                 6.4127
 IR Inten    --     27.7714                24.4626                27.2784

                     97                     98                     99
                      A                      A                      A
 Frequencies --   3144.4867              3147.6218              3173.4502
 Red. masses --      1.1038                 1.1032                 1.0906
 Frc consts  --      6.4304                 6.4397                 6.4714
 IR Inten    --     20.7941                20.3861                20.2908

                    100                    101                    102
                      A                      A                      A
 Frequencies --   3176.9856              3184.1151              3186.7717
 Red. masses --      1.0845                 1.0879                 1.0879
 Frc consts  --      6.4495                 6.4983                 6.5095
 IR Inten    --      4.0886                 4.7550                 1.6660

                    103                    104                    105
                      A                      A                      A
 Frequencies --   3194.4183              3204.8472              3206.5475
 Red. masses --      1.0924                 1.0974                 1.0969
 Frc consts  --      6.5675                 6.6412                 6.6450
 IR Inten    --     38.0093                29.5661                30.3979

                    106                    107                    108
                      A                      A                      A
 Frequencies --   3227.8392              3488.7056              3510.8487
 Red. masses --      1.0914                 1.0723                 1.0681
 Frc consts  --      6.6994                 7.6893                 7.7571
 IR Inten    --      5.8680                25.7405               569.2807

 - Thermochemistry -
 -------------------
 Temperature   298.150 Kelvin.  Pressure   1.00000 Atm.
 Atom     1 has atomic number  6 and mass  12.00000

 Molecular mass:   257.15281 amu.
 Principal axes and moments of inertia in atomic units:
                           1         2         3
     Eigenvalues --  3031.909077455.095529035.82846
           X            0.99988   0.01537   0.00138
           Y           -0.01535   0.99979  -0.01364
           Z           -0.00159   0.01362   0.99991
 This molecule is an asymmetric top.
 Rotational symmetry number  1.
 Warning -- assumption of classical behavior for rotation
           may cause significant error
 Rotational temperatures (Kelvin)      0.02857     0.01162     0.00959
 Rotational constants (GHZ):           0.59525     0.24208     0.19973
 Zero-point vibrational energy     848595.1 (Joules/Mol)
                                  202.81910 (Kcal/Mol)
 Warning -- explicit consideration of  26 degrees of freedom as
           vibrations may cause significant error
 Vibrational temperatures:     29.83    48.52    78.53    92.80   145.12
          (Kelvin)            166.73   209.79   265.28   287.62   325.42
                              347.03   366.13   372.32   424.91   456.03
                              466.78   535.85   600.46   605.66   622.58
                              637.87   684.84   726.09   798.93   835.32
                              885.77   916.68   928.86   938.32   993.31
                             1034.63  1084.74  1122.76  1129.41  1153.62
                             1213.72  1238.23  1245.65  1303.90  1339.64
                             1358.99  1372.53  1382.19  1399.61  1412.51
                             1423.95  1434.05  1471.08  1506.47  1520.03
                             1524.95  1569.97  1580.16  1591.77  1607.77
                             1647.35  1688.48  1699.64  1715.26  1726.83
                             1745.94  1754.45  1783.22  1819.46  1841.81
                             1858.27  1903.55  1918.25  1937.98  1965.03
                             1973.74  2030.72  2056.06  2061.49  2083.40
                             2106.39  2151.43  2173.16  2182.63  2189.42
                             2190.62  2199.19  2221.71  2229.04  2232.95
                             2290.98  2352.68  2365.59  2397.91  4336.35
                             4361.17  4395.18  4404.39  4412.37  4493.58
                             4520.04  4524.21  4528.73  4565.89  4570.97
                             4581.23  4585.05  4596.06  4611.06  4613.51
                             4644.14  5019.47  5051.33

 Zero-point correction=                           0.323213 (Hartree/Particle)
 Thermal correction to Energy=                    0.340383
 Thermal correction to Enthalpy=                  0.341327
 Thermal correction to Gibbs Free Energy=         0.277199
 Sum of electronic and zero-point Energies=           -822.253616
 Sum of electronic and thermal Energies=              -822.236447
 Sum of electronic and thermal Enthalpies=            -822.235502
 Sum of electronic and thermal Free Energies=         -822.299631

                     E (Thermal)             CV                S
                      KCal/Mol        Cal/Mol-Kelvin    Cal/Mol-Kelvin
 Total                  213.593             67.477            134.969
 Electronic               0.000              0.000              0.000
 Translational            0.889              2.981             42.533
 Rotational               0.889              2.981             33.679
 Vibrational            211.816             61.515             58.757
 Vibration     1          0.593              1.986              6.563
 Vibration     2          0.594              1.983              5.597
 Vibration     3          0.596              1.976              4.644
 Vibration     4          0.597              1.971              4.315
 Vibration     5          0.604              1.948              3.438
 Vibration     6          0.608              1.936              3.168
 Vibration     7          0.617              1.907              2.726
 Vibration     8          0.631              1.861              2.284
 Vibration     9          0.638              1.840              2.134
 Vibration    10          0.650              1.801              1.909
 Vibration    11          0.658              1.777              1.794
 Vibration    12          0.665              1.755              1.699
 Vibration    13          0.668              1.748              1.670
 Vibration    14          0.690              1.682              1.443
 Vibration    15          0.704              1.641              1.326
 Vibration    16          0.709              1.627              1.288
 Vibration    17          0.744              1.529              1.070
 Vibration    18          0.780              1.433              0.901
 Vibration    19          0.783              1.425              0.889
 Vibration    20          0.794              1.399              0.850
 Vibration    21          0.803              1.376              0.816
 Vibration    22          0.833              1.303              0.721
 Vibration    23          0.860              1.240              0.647
 Vibration    24          0.911              1.128              0.533
 Vibration    25          0.937              1.073              0.484
 Vibration    26          0.975              0.999              0.424

 Optimization completed.
    -- Stationary point found.
 Normal termination of Gaussian 16 at Sat Dec 12 10:39:23 2020.

 ----------------------------------------------------------------------
 # B3LYP/6-311++G(d,p) empiricaldispersion=gd3bj scf=xqc pop=npa geom=c
 heck
 ----------------------------------------------------------------------

 ---------------------------------------
 CID_112323039_JID_9978_Energie_neutraal
 ---------------------------------------
 Structure from the checkpoint file:  "JID_9978.chk"
 Charge =  0 Multiplicity = 1

 SCF Done:  E(RB3LYP) =  -822.803939561     A.U. after   15 cycles
 Normal termination of Gaussian 16 at Sat Dec 12 10:46:41 2020.

 ----------------------------------------------------------------------
 # B3LYP/6-311++G(d,p) empiricaldispersion=gd3bj scf=xqc pop=npa geom=c
 heck
 ----------------------------------------------------------------------

 -------------------------------------
 CID_112323039_JID_9978_Energie_kation
 -------------------------------------
 Structure from the checkpoint file:  "JID_9978.chk"
 Charge =  1 Multiplicity = 2

 SCF Done:  E(UB3LYP) =  -822.508896222     A.U. after   28 cycles
 Normal termination of Gaussian 16 at Sat Dec 12 11:05:36 2020.
 Gaussian 16:  ES64L-G16RevA.03 25-Dec-2016

 ----------------------------------------------------------------------
 # B3LYP/6-311++G(d,p) empiricaldispersion=gd3bj scf=xqc pop=npa geom=c
 heck
 ----------------------------------------------------------------------

 ------------------------------------
 CID_112323039_JID_9978_Energie_anion
 ------------------------------------
 Structure from the checkpoint file:  "JID_9978.chk"
 Charge = -1 Multiplicity = 2

                         Standard orientation:
 ---------------------------------------------------------------------
 Center     Atomic      Atomic             Coordinates (Angstroms)
 Number     Number       Type             X           Y           Z
 ---------------------------------------------------------------------
      1          6           0        3.455320    2.176027   -0.117548
      2          6           0        2.279480    1.354927   -0.669540
      3          6           0        2.483676   -0.122002   -0.313663
      4          7           0        1.803360   -0.648054    0.715280
      5          6           0        2.045847   -1.928039    1.026807
      6          6           0        2.969402   -2.692411    0.319565
      7          7           0        3.649664   -2.188895   -0.718686
      8          6           0        3.396517   -0.916059   -1.024898
      9          7           0        1.035116    1.938706   -0.203813
     10          6           0       -0.177260    1.252071   -0.655831
     11          6           0       -1.224172    1.172859    0.486634
     12          6           0       -1.821451    2.551477    0.793576
     13          6           0       -2.321039    0.184712    0.087193
     14          6           0       -3.059320    0.368111   -1.090432
     15          6           0       -4.048574   -0.540905   -1.461995
     16          6           0       -4.320279   -1.649563   -0.658230
     17          6           0       -3.595960   -1.835884    0.518669
     18          6           0       -2.604519   -0.925281    0.887538
     19          8           0       -0.569286    0.761759    1.688986
     20          1           0        3.477610    2.112659    0.976946
     21          1           0        3.332544    3.224522   -0.401801
     22          1           0        4.414986    1.809883   -0.495895
     23          1           0        2.297745    1.424410   -1.766305
     24          1           0        1.482051   -2.347452    1.856435
     25          1           0        3.160759   -3.729392    0.583925
     26          1           0        3.937361   -0.499917   -1.873309
     27          1           0        1.032396    1.937124    0.814825
     28          1           0       -0.609799    1.778185   -1.515738
     29          1           0        0.031925    0.224547   -0.987845
     30          1           0       -2.419339    2.916628   -0.046595
     31          1           0       -2.466109    2.479908    1.674357
     32          1           0       -1.023940    3.272316    0.996108
     33          1           0       -2.864562    1.228685   -1.724773
     34          1           0       -4.609092   -0.381870   -2.379376
     35          1           0       -5.092192   -2.357938   -0.945990
     36          1           0       -3.804024   -2.691581    1.155849
     37          1           0       -2.045689   -1.056601    1.807005
     38          1           0        0.158668    0.149271    1.443744
 ---------------------------------------------------------------------

 SCF Done:  E(UB3LYP) =  -822.815122037     A.U. after   33 cycles
 SCF Done:  E(UB3LYP) =  -822.815121929     a.u. after    2 cycles

 The electronic state is 2-A.
 Alpha  occ. eigenvalues --  -18.99258 -14.17270 -14.13556 -14.12527 -10.12816
 Alpha  occ. eigenvalues --  -10.08902 -10.08704 -10.08559 -10.08526 -10.08379
 Alpha  occ. eigenvalues --  -10.07773 -10.07734 -10.07643 -10.06009 -10.04635
 Alpha  occ. eigenvalues --  -10.04355 -10.04083 -10.03851 -10.03708  -0.90547
 Alpha  occ. eigenvalues --   -0.81037  -0.78462  -0.76714  -0.73186  -0.68778
 Alpha  occ. eigenvalues --   -0.65673  -0.64825  -0.62666  -0.59738  -0.56258
 Alpha  occ. eigenvalues --   -0.52333  -0.51463  -0.50919  -0.48930  -0.46650
 Alpha  occ. eigenvalues --   -0.45672  -0.42881  -0.39733  -0.37440  -0.36865
 Alpha  occ. eigenvalues --   -0.35952  -0.35421  -0.34638  -0.33633  -0.33361
 Alpha  occ. eigenvalues --   -0.33148  -0.32642  -0.30099  -0.29576  -0.29323
 Alpha  occ. eigenvalues --   -0.28436  -0.27729  -0.27391  -0.26303  -0.25779
 Alpha  occ. eigenvalues --   -0.25185  -0.24852  -0.23895  -0.23201  -0.21723
 Alpha  occ. eigenvalues --   -0.21359  -0.17267  -0.16622  -0.16485  -0.15761
 Alpha  occ. eigenvalues --   -0.14367  -0.11306  -0.10824  -0.08193   0.05146
 Alpha virt. eigenvalues --    0.06371   0.07322   0.07754   0.07836   0.08426
 Alpha virt. eigenvalues --    0.08947   0.09664   0.10228   0.10770   0.11089
 Alpha virt. eigenvalues --    0.11596   0.12358   0.12590   0.12838   0.13120

  Beta  occ. eigenvalues --  -18.99258 -14.17267 -14.12834 -14.11752 -10.12816
  Beta  occ. eigenvalues --  -10.08902 -10.08700 -10.08549 -10.08522 -10.08368
  Beta  occ. eigenvalues --  -10.07775 -10.07744 -10.07643 -10.06008 -10.04549
  Beta  occ. eigenvalues --  -10.04326 -10.03983 -10.03847 -10.03665  -0.90544
  Beta  occ. eigenvalues --   -0.80314  -0.78206  -0.76698  -0.71933  -0.68747
  Beta  occ. eigenvalues --   -0.65657  -0.64704  -0.62596  -0.59410  -0.56240
  Beta  occ. eigenvalues --   -0.52298  -0.51383  -0.50635  -0.48406  -0.46642
  Beta  occ. eigenvalues --   -0.45330  -0.42850  -0.39701  -0.37375  -0.36781
  Beta  occ. eigenvalues --   -0.35815  -0.35339  -0.34505  -0.33546  -0.33214
  Beta  occ. eigenvalues --   -0.33073  -0.32517  -0.29977  -0.29549  -0.29198
  Beta  occ. eigenvalues --   -0.28400  -0.27617  -0.27255  -0.26122  -0.25590
  Beta  occ. eigenvalues --   -0.24842  -0.24320  -0.23758  -0.22542  -0.21559
  Beta  occ. eigenvalues --   -0.21278  -0.16643  -0.16568  -0.15705  -0.13587
  Beta  occ. eigenvalues --   -0.13446  -0.11085  -0.09623  -0.07465
  Beta virt. eigenvalues --    0.06325   0.07429   0.07707   0.07808   0.08367
  Beta virt. eigenvalues --    0.08876   0.09575   0.10141   0.10703   0.10986
  Beta virt. eigenvalues --    0.11534   0.12300   0.12415   0.12636   0.13009

 Mulliken charges and spin densities:
               1          2
     1  C   -0.247052  -0.330408
     2  C   -1.194833   0.388025
     3  C    0.488456  -0.074686
     4  N   -0.074306   0.299157
     5  C    0.019259   0.181752
     6  C   -0.335377   0.008463
     7  N   -0.133695   0.337765
     8  C   -0.433682   0.028068
     9  N    0.304784  -0.020693
    10  C   -0.626372  -0.033198
    11  C    0.109459   0.014558
    12  C   -0.306971  -0.036044
    13  C    0.235489   0.033213
    14  C   -0.648281  -0.009518
    15  C   -0.137499  -0.009710
    16  C   -0.448563   0.000880
    17  C   -0.319074   0.011869
    18  C    0.198804  -0.000776
    19  O   -0.241497   0.013917
    20  H    0.136880   0.005504
    21  H   -0.004322   0.132515
    22  H    0.080548   0.046402
    23  H    0.142999   0.014474
    24  H    0.100199  -0.008076
    25  H    0.107825  -0.006652
    26  H    0.123074  -0.011151
    27  H    0.291481  -0.019682
    28  H    0.113945   0.007863
    29  H    0.166601   0.008892
    30  H    0.112449   0.019189
    31  H    0.157181   0.003261
    32  H    0.136227   0.004953
    33  H    0.130468   0.008829
    34  H    0.146413   0.005796
    35  H    0.123857  -0.000106
    36  H    0.153808   0.002350
    37  H    0.198000  -0.000508
    38  H    0.373320  -0.016485
 Sum of Mulliken charges =  -1.00000   1.00000

 Dipole moment (field-independent basis, Debye):
    X=             -8.5115    Y=              2.8453    Z=             -0.6185  Tot=              8.9957
 Quadrupole moment (field-independent basis, Debye-Ang):
   XX=           -168.9526   YY=           -143.5690   ZZ=           -127.2131
   XY=             16.1163   XZ=              6.2117   YZ=             -6.5185

 Summary of Natural Population Analysis:

                                       Natural Population
                Natural  -----------------------------------------------
    Atom  No    Charge         Core      Valence    Rydberg      Total
 -----------------------------------------------------------------------
      C    1   -0.27782      0.99965     2.27339    0.00478     3.27782
      C    2   -0.01913      0.99958     2.00657    0.01298     3.01913
      C    3    0.09262      0.99952     1.89258    0.01528     2.90738
      N    4   -0.17835      0.99964     2.66488    0.01382     3.67835
      C    5    0.01810      0.99959     1.96735    0.01495     2.98190
      C    6   -0.01534      0.99960     1.99777    0.01797     3.01534
      N    7   -0.12158      0.99971     2.61014    0.01173     3.62158
      C    8   -0.00115      0.99954     1.98384    0.01777     3.00115
      N    9   -0.35079      0.99974     2.83831    0.01275     3.85079
      C   10   -0.09518      0.99958     2.08451    0.01110     3.09518
      C   11    0.12194      0.99950     1.86299    0.01557     2.87806
      C   12   -0.28505      0.99962     2.27998    0.00545     3.28505
      C   13   -0.01394      0.99947     2.00230    0.01217     3.01394
      C   14   -0.10200      0.99952     2.09502    0.00746     3.10200
      C   15   -0.10416      0.99958     2.09544    0.00914     3.10416
      C   16   -0.11215      0.99957     2.10346    0.00912     3.11215
      C   17   -0.09806      0.99957     2.08961    0.00888     3.09806
      C   18   -0.09692      0.99951     2.08912    0.00829     3.09692
      O   19   -0.40273      0.99989     3.39547    0.00738     4.40273
      H   20    0.09662      0.00000     0.40222    0.00117     0.40338
      H   21    0.09496      0.00000     0.40325    0.00179     0.40504
      H   22    0.10049      0.00000     0.39864    0.00087     0.39951
      H   23    0.08808      0.00000     0.41047    0.00145     0.41192
      H   24    0.07930      0.00000     0.41968    0.00103     0.42070
      H   25    0.07935      0.00000     0.41952    0.00113     0.42065
      H   26    0.07780      0.00000     0.42102    0.00118     0.42220
      H   27    0.18140      0.00000     0.31529    0.00331     0.31860
      H   28    0.08717      0.00000     0.41189    0.00094     0.41283
      H   29    0.10092      0.00000     0.39788    0.00120     0.39908
      H   30    0.09408      0.00000     0.40487    0.00106     0.40592
      H   31    0.10048      0.00000     0.39870    0.00082     0.39952
      H   32    0.10516      0.00000     0.39365    0.00119     0.39484
      H   33    0.09938      0.00000     0.39925    0.00136     0.40062
      H   34    0.09604      0.00000     0.40296    0.00099     0.40396
      H   35    0.09594      0.00000     0.40312    0.00093     0.40406
      H   36    0.09707      0.00000     0.40201    0.00093     0.40293
      H   37    0.11389      0.00000     0.38502    0.00109     0.38611
      H   38    0.25357      0.00000     0.24302    0.00341     0.24643
 =======================================================================
   * Total *    0.00000     18.99235    49.76520    0.24246    69.00000

 Normal termination of Gaussian 16 at Sat Dec 12 11:44:38 2020.
