 Gaussian 16, Revision A.03,

 -----------------------------------------------------------
 # opt freq B3LYP/6-31G(d) empiricaldispersion=gd3bj scf=xqc
 -----------------------------------------------------------

 ------------------------------
 CID_119015865_JID_673_neutraal
 ------------------------------
 Symbolic Z-matrix:
 Charge =  0 Multiplicity = 1

 SCF Done:  E(RB3LYP) =  -435.235079195     A.U. after   15 cycles
 SCF Done:  E(RB3LYP) =  -435.238033182     A.U. after   13 cycles
 SCF Done:  E(RB3LYP) =  -435.239331759     A.U. after   12 cycles
 SCF Done:  E(RB3LYP) =  -435.240397934     A.U. after   12 cycles
 SCF Done:  E(RB3LYP) =  -435.240660166     A.U. after   11 cycles
 SCF Done:  E(RB3LYP) =  -435.240768678     A.U. after   12 cycles
 SCF Done:  E(RB3LYP) =  -435.240784109     A.U. after   10 cycles
 SCF Done:  E(RB3LYP) =  -435.240790807     A.U. after   10 cycles
 SCF Done:  E(RB3LYP) =  -435.240794000     A.U. after    9 cycles
 SCF Done:  E(RB3LYP) =  -435.240794818     A.U. after    9 cycles
 SCF Done:  E(RB3LYP) =  -435.240795129     A.U. after    8 cycles
 Optimization completed.
    -- Stationary point found.
 Normal termination of Gaussian 16 at Tue Dec  8 12:42:37 2020.

 --------------------------------------------------------------------
 #N Geom=AllCheck Guess=TCheck SCRF=Check GenChk RB3LYP/6-31G(d) Freq
 --------------------------------------------------------------------

 Structure from the checkpoint file:  "JID_673.chk"
 ------------------------------
 CID_119015865_JID_673_neutraal
 ------------------------------
 Charge =  0 Multiplicity = 1

 SCF Done:  E(RB3LYP) =  -435.240795129     A.U. after    1 cycles

  Exact polarizability: 121.101  -1.999 103.733   0.001   0.531  38.651
 Approx polarizability: 207.735  -1.815 170.129   1.257   0.046  58.487

                      1                      2                      3
                      A                      A                      A
 Frequencies --    105.8021               150.4785               169.7553
 Red. masses --      4.2066                 7.2692                 1.8350
 Frc consts  --      0.0277                 0.0970                 0.0312
 IR Inten    --      2.0018                 5.9603                 7.8211

                      4                      5                      6
                      A                      A                      A
 Frequencies --    188.2176               268.8220               318.2366
 Red. masses --      1.6508                 3.3962                 2.8642
 Frc consts  --      0.0345                 0.1446                 0.1709
 IR Inten    --      0.3977                 4.4684                 0.6935

                      7                      8                      9
                      A                      A                      A
 Frequencies --    390.8510               419.3346               430.6127
 Red. masses --      1.3657                 3.9526                 3.0885
 Frc consts  --      0.1229                 0.4095                 0.3374
 IR Inten    --     53.1306                30.8140                23.3766

                     10                     11                     12
                      A                      A                      A
 Frequencies --    454.9126               528.8536               546.4362
 Red. masses --      7.3277                 2.9183                 5.0369
 Frc consts  --      0.8935                 0.4809                 0.8861
 IR Inten    --      1.4939                35.1562                15.6677

                     13                     14                     15
                      A                      A                      A
 Frequencies --    573.8499               595.6363               667.0035
 Red. masses --      1.7495                 3.6159                 5.8103
 Frc consts  --      0.3394                 0.7558                 1.5230
 IR Inten    --    163.3441                24.1921                34.5734

                     16                     17                     18
                      A                      A                      A
 Frequencies --    688.4224               775.6538               828.4104
 Red. masses --      4.9799                 5.1962                 1.3481
 Frc consts  --      1.3905                 1.8419                 0.5451
 IR Inten    --      7.7071                11.4621                23.6526

                     19                     20                     21
                      A                      A                      A
 Frequencies --    843.3341               940.8495               970.2976
 Red. masses --      6.0987                 2.3491                 1.3502
 Frc consts  --      2.5556                 1.2252                 0.7489
 IR Inten    --      6.2778                 4.5623                 0.6033

                     22                     23                     24
                      A                      A                      A
 Frequencies --   1059.9586              1071.8251              1105.6221
 Red. masses --      1.7936                 1.4802                 2.1215
 Frc consts  --      1.1873                 1.0019                 1.5279
 IR Inten    --      9.9143                 0.8517                17.9595

                     25                     26                     27
                      A                      A                      A
 Frequencies --   1174.8998              1228.5515              1287.5646
 Red. masses --      1.7120                 2.9265                 2.2913
 Frc consts  --      1.3924                 2.6025                 2.2381
 IR Inten    --      1.5714                 8.4384                 4.7227

                     28                     29                     30
                      A                      A                      A
 Frequencies --   1340.0177              1367.5700              1446.4988
 Red. masses --      5.0399                 2.4045                 1.3162
 Frc consts  --      5.3320                 2.6495                 1.6226
 IR Inten    --     17.0211                 7.9695                15.0437

                     31                     32                     33
                      A                      A                      A
 Frequencies --   1483.9900              1505.7667              1516.0136
 Red. masses --      2.9775                 1.7583                 1.0531
 Frc consts  --      3.8634                 2.3488                 1.4260
 IR Inten    --    140.8940                 9.4625                 8.3713

                     34                     35                     36
                      A                      A                      A
 Frequencies --   1535.1997              1618.9336              1638.4070
 Red. masses --      1.4821                 5.4952                 4.5491
 Frc consts  --      2.0580                 8.4858                 7.1948
 IR Inten    --      3.8642                33.5043                57.9211

                     37                     38                     39
                      A                      A                      A
 Frequencies --   1675.3917              2352.9858              3029.1411
 Red. masses --      1.3581                12.6839                 1.0457
 Frc consts  --      2.2460                41.3754                 5.6530
 IR Inten    --    222.4121                14.4187                22.2900

                     40                     41                     42
                      A                      A                      A
 Frequencies --   3082.5492              3152.6851              3183.7828
 Red. masses --      1.0950                 1.0974                 1.0902
 Frc consts  --      6.1304                 6.4264                 6.5110
 IR Inten    --     14.3843                 3.6709                24.2365

                     43                     44                     45
                      A                      A                      A
 Frequencies --   3238.1930              3574.4331              3686.6712
 Red. masses --      1.0942                 1.0469                 1.1004
 Frc consts  --      6.7603                 7.8806                 8.8119
 IR Inten    --      3.7415                39.0555                25.0378

 - Thermochemistry -
 -------------------
 Temperature   298.150 Kelvin.  Pressure   1.00000 Atm.
 Atom     1 has atomic number  6 and mass  12.00000

 Molecular mass:   133.06400 amu.
 Principal axes and moments of inertia in atomic units:
                           1         2         3
     Eigenvalues --   787.383151519.312652294.06430
           X            0.99972  -0.02349  -0.00315
           Y            0.02350   0.99972   0.00317
           Z            0.00307  -0.00324   0.99999
 This molecule is an asymmetric top.
 Rotational symmetry number  1.
 Warning -- assumption of classical behavior for rotation
           may cause significant error
 Rotational temperatures (Kelvin)      0.11000     0.05701     0.03776
 Rotational constants (GHZ):           2.29207     1.18787     0.78670
 Zero-point vibrational energy     348187.6 (Joules/Mol)
                                   83.21884 (Kcal/Mol)
 Warning -- explicit consideration of  14 degrees of freedom as
           vibrations may cause significant error
 Vibrational temperatures:    152.23   216.51   244.24   270.80   386.77
          (Kelvin)            457.87   562.35   603.33   619.56   654.52
                              760.90   786.20   825.64   856.99   959.67
                              990.49  1115.99  1191.90  1213.37  1353.67
                             1396.04  1525.04  1542.12  1590.74  1690.42
                             1767.61  1852.52  1927.99  1967.63  2081.19
                             2135.13  2166.46  2181.21  2208.81  2329.28
                             2357.30  2410.51  3385.42  4358.26  4435.10
                             4536.01  4580.75  4659.04  5142.81  5304.30

 Zero-point correction=                           0.132618 (Hartree/Particle)
 Thermal correction to Energy=                    0.141479
 Thermal correction to Enthalpy=                  0.142423
 Thermal correction to Gibbs Free Energy=         0.099126
 Sum of electronic and zero-point Energies=           -435.108177
 Sum of electronic and thermal Energies=              -435.099316
 Sum of electronic and thermal Enthalpies=            -435.098372
 Sum of electronic and thermal Free Energies=         -435.141669

                     E (Thermal)             CV                S
                      KCal/Mol        Cal/Mol-Kelvin    Cal/Mol-Kelvin
 Total                   88.779             33.754             91.126
 Electronic               0.000              0.000              0.000
 Translational            0.889              2.981             40.570
 Rotational               0.889              2.981             29.397
 Vibrational             87.002             27.793             21.160
 Vibration     1          0.605              1.945              3.345
 Vibration     2          0.618              1.902              2.666
 Vibration     3          0.625              1.880              2.438
 Vibration     4          0.633              1.856              2.245
 Vibration     5          0.673              1.730              1.604
 Vibration     6          0.705              1.639              1.319
 Vibration     7          0.759              1.490              0.997
 Vibration     8          0.782              1.428              0.894
 Vibration     9          0.792              1.404              0.857
 Vibration    10          0.813              1.350              0.781
 Vibration    11          0.884              1.186              0.590
 Vibration    12          0.902              1.147              0.552
 Vibration    13          0.930              1.088              0.497
 Vibration    14          0.953              1.041              0.457

 Optimization completed.
    -- Stationary point found.
 Normal termination of Gaussian 16 at Tue Dec  8 13:04:42 2020.

 ----------------------------------------------------------------------
 # B3LYP/6-311++G(d,p) empiricaldispersion=gd3bj scf=xqc pop=npa geom=c
 heck
 ----------------------------------------------------------------------

 --------------------------------------
 CID_119015865_JID_673_Energie_neutraal
 --------------------------------------
 Structure from the checkpoint file:  "JID_673.chk"
 Charge =  0 Multiplicity = 1

 SCF Done:  E(RB3LYP) =  -435.363228016     A.U. after   16 cycles
 Normal termination of Gaussian 16 at Tue Dec  8 13:05:43 2020.

 ----------------------------------------------------------------------
 # B3LYP/6-311++G(d,p) empiricaldispersion=gd3bj scf=xqc pop=npa geom=c
 heck
 ----------------------------------------------------------------------

 ------------------------------------
 CID_119015865_JID_673_Energie_kation
 ------------------------------------
 Structure from the checkpoint file:  "JID_673.chk"
 Charge =  1 Multiplicity = 2

 SCF Done:  E(UB3LYP) =  -435.047808944     A.U. after   21 cycles
 Normal termination of Gaussian 16 at Tue Dec  8 13:12:13 2020.
 Gaussian 16:  ES64L-G16RevA.03 25-Dec-2016

 ----------------------------------------------------------------------
 # B3LYP/6-311++G(d,p) empiricaldispersion=gd3bj scf=xqc pop=npa geom=c
 heck
 ----------------------------------------------------------------------

 -----------------------------------
 CID_119015865_JID_673_Energie_anion
 -----------------------------------
 Structure from the checkpoint file:  "JID_673.chk"
 Charge = -1 Multiplicity = 2

                         Standard orientation:
 ---------------------------------------------------------------------
 Center     Atomic      Atomic             Coordinates (Angstroms)
 Number     Number       Type             X           Y           Z
 ---------------------------------------------------------------------
      1          6           0       -0.243934   -2.112100    0.024286
      2          6           0        0.072918   -0.643654    0.003143
      3          6           0       -0.906446    0.355205   -0.003402
      4          6           0       -0.546532    1.714985   -0.000158
      5          6           0        0.807079    2.016691    0.005623
      6          7           0        1.775345    1.093892   -0.001540
      7          6           0        1.419540   -0.197249    0.000265
      8          7           0        2.453609   -1.110523    0.053391
      9          6           0       -2.296989   -0.000102   -0.007501
     10          7           0       -3.424297   -0.285136   -0.012205
     11          1           0        0.104667   -2.610922   -0.891383
     12          1           0       -1.318111   -2.291239    0.105053
     13          1           0        0.252045   -2.602851    0.871007
     14          1           0       -1.303242    2.489986   -0.002955
     15          1           0        1.139493    3.052490    0.009541
     16          1           0        3.359654   -0.706606   -0.146853
     17          1           0        2.299084   -2.021136   -0.355469
 ---------------------------------------------------------------------

 SCF Done:  E(UB3LYP) =  -435.371536332     A.U. after   29 cycles

 The electronic state is 2-A.
 Alpha  occ. eigenvalues --  -14.18655 -14.13671 -14.13011 -10.08430 -10.04283
 Alpha  occ. eigenvalues --  -10.03904 -10.03869 -10.03207 -10.02221 -10.01757
 Alpha  occ. eigenvalues --   -0.81451  -0.74704  -0.73982  -0.66762  -0.61255
 Alpha  occ. eigenvalues --   -0.55695  -0.50084  -0.46481  -0.40705  -0.39254
 Alpha  occ. eigenvalues --   -0.32782  -0.32039  -0.29954  -0.29484  -0.27338
 Alpha  occ. eigenvalues --   -0.25930  -0.25290  -0.22463  -0.21529  -0.20640
 Alpha  occ. eigenvalues --   -0.17320  -0.17142  -0.12278  -0.10887  -0.07844
 Alpha  occ. eigenvalues --    0.05376
 Alpha virt. eigenvalues --    0.07914   0.10286   0.10666   0.12587   0.12792
 Alpha virt. eigenvalues --    0.13216   0.14235   0.15512   0.15941   0.17187
 Alpha virt. eigenvalues --    0.17638   0.18714   0.18919   0.19285   0.20073

  Beta  occ. eigenvalues --  -14.18655 -14.13289 -14.12517 -10.08446 -10.04227
  Beta  occ. eigenvalues --  -10.03909 -10.03885 -10.02833 -10.01968 -10.01731
  Beta  occ. eigenvalues --   -0.81129  -0.74288  -0.73457  -0.66065  -0.60873
  Beta  occ. eigenvalues --   -0.55419  -0.49319  -0.46311  -0.40458  -0.39129
  Beta  occ. eigenvalues --   -0.32590  -0.31827  -0.29476  -0.29195  -0.27158
  Beta  occ. eigenvalues --   -0.25770  -0.24448  -0.22209  -0.20115  -0.20023
  Beta  occ. eigenvalues --   -0.17008  -0.16393  -0.10306  -0.09930  -0.06712
  Beta virt. eigenvalues --    0.08072   0.10258   0.10671   0.11705   0.12641
  Beta virt. eigenvalues --    0.12758   0.13253   0.14551   0.15462   0.15948
  Beta virt. eigenvalues --    0.17266   0.17594   0.18665   0.19065   0.19295

 Mulliken charges and spin densities:
               1          2
     1  C   -0.626946  -0.277505
     2  C    0.149052   0.242828
     3  C    2.096260   0.294650
     4  C   -0.386551   0.102670
     5  C   -0.204731   0.017799
     6  N   -0.202219   0.223946
     7  C   -0.553347   0.021754
     8  N   -0.314960   0.007502
     9  C   -1.432685  -0.134602
    10  N   -0.345784   0.199661
    11  H   -0.000472   0.132620
    12  H    0.164092  -0.008806
    13  H    0.126189   0.014440
    14  H    0.114413   0.000777
    15  H    0.116783  -0.006504
    16  H    0.183973   0.058190
    17  H    0.116934   0.110580
 Sum of Mulliken charges =  -1.00000   1.00000

 Dipole moment (field-independent basis, Debye):
    X=              3.7853    Y=             -1.0474    Z=             -0.2265  Tot=              3.9340
 Quadrupole moment (field-independent basis, Debye-Ang):
   XX=           -101.3498   YY=            -70.3659   ZZ=            -68.2434
   XY=             -5.8898   XZ=             -1.4034   YZ=             -0.3988

 Summary of Natural Population Analysis:

                                       Natural Population
                Natural  -----------------------------------------------
    Atom  No    Charge         Core      Valence    Rydberg      Total
 -----------------------------------------------------------------------
      C    1   -0.30202      0.99965     2.29595    0.00643     3.30202
      C    2    0.00423      0.99946     1.98719    0.00911     2.99577
      C    3   -0.01572      0.99938     2.00570    0.01064     3.01572
      C    4   -0.11906      0.99953     2.11167    0.00786     3.11906
      C    5    0.02679      0.99960     1.95934    0.01426     2.97321
      N    6   -0.20301      0.99966     2.69101    0.01234     3.70301
      C    7    0.18588      0.99951     1.79718    0.01743     2.81412
      N    8   -0.40994      0.99971     2.89945    0.01079     3.90994
      C    9    0.14491      0.99965     1.83619    0.01926     2.85509
      N   10   -0.15929      0.99978     2.64822    0.01128     3.65929
      H   11    0.09604      0.00000     0.40243    0.00153     0.40396
      H   12    0.11005      0.00000     0.38880    0.00116     0.38995
      H   13    0.09904      0.00000     0.39981    0.00115     0.40096
      H   14    0.09675      0.00000     0.40231    0.00094     0.40325
      H   15    0.07755      0.00000     0.42109    0.00136     0.42245
      H   16    0.18517      0.00000     0.31112    0.00371     0.31483
      H   17    0.18263      0.00000     0.31571    0.00166     0.31737
 =======================================================================
   * Total *   -0.00000      9.99594    24.87318    0.13088    35.00000

 Normal termination of Gaussian 16 at Tue Dec  8 13:23:54 2020.
