 Gaussian 16, Revision A.03,

 -----------------------------------------------------------
 # opt freq B3LYP/6-31G(d) empiricaldispersion=gd3bj scf=xqc
 -----------------------------------------------------------

 ------------------------------
 CID_45098420_JID_1530_neutraal
 ------------------------------
 Symbolic Z-matrix:
 Charge =  0 Multiplicity = 1

 SCF Done:  E(RB3LYP) =  -483.188248117     A.U. after   13 cycles
 SCF Done:  E(RB3LYP) =  -483.192373267     A.U. after   11 cycles
 SCF Done:  E(RB3LYP) =  -483.192832101     A.U. after   10 cycles
 SCF Done:  E(RB3LYP) =  -483.193130408     A.U. after   10 cycles
 SCF Done:  E(RB3LYP) =  -483.193301858     A.U. after   10 cycles
 SCF Done:  E(RB3LYP) =  -483.193468825     A.U. after   10 cycles
 SCF Done:  E(RB3LYP) =  -483.193514162     A.U. after    9 cycles
 SCF Done:  E(RB3LYP) =  -483.193524875     A.U. after    9 cycles
 SCF Done:  E(RB3LYP) =  -483.193530365     A.U. after    9 cycles
 SCF Done:  E(RB3LYP) =  -483.193531456     A.U. after    7 cycles
 SCF Done:  E(RB3LYP) =  -483.193531849     A.U. after    7 cycles
 SCF Done:  E(RB3LYP) =  -483.193531898     A.U. after    6 cycles
 Optimization completed.
    -- Stationary point found.
 Normal termination of Gaussian 16 at Tue Dec  8 20:20:08 2020.

 --------------------------------------------------------------------
 #N Geom=AllCheck Guess=TCheck SCRF=Check GenChk RB3LYP/6-31G(d) Freq
 --------------------------------------------------------------------

 Structure from the checkpoint file:  "JID_1530.chk"
 ------------------------------
 CID_45098420_JID_1530_neutraal
 ------------------------------
 Charge =  0 Multiplicity = 1

 SCF Done:  E(RB3LYP) =  -483.193531898     A.U. after    1 cycles

  Exact polarizability: 107.166  -3.600  95.883   0.766   3.087  91.840
 Approx polarizability: 137.088  -3.635 139.053  -1.971   2.797 136.369

                      1                      2                      3
                      A                      A                      A
 Frequencies --     52.7099               114.4155               177.9928
 Red. masses --      3.2100                 2.0599                 2.3038
 Frc consts  --      0.0053                 0.0159                 0.0430
 IR Inten    --      0.5143                 0.0199                 0.4413

                      4                      5                      6
                      A                      A                      A
 Frequencies --    193.4221               210.4217               243.8638
 Red. masses --      3.2206                 2.4600                 1.4573
 Frc consts  --      0.0710                 0.0642                 0.0511
 IR Inten    --      1.6294                 2.5459                 3.3051

                      7                      8                      9
                      A                      A                      A
 Frequencies --    266.4429               277.4637               334.5348
 Red. masses --      1.1030                 1.3928                 2.3197
 Frc consts  --      0.0461                 0.0632                 0.1530
 IR Inten    --     95.2121                 2.0089                 0.1262

                     10                     11                     12
                      A                      A                      A
 Frequencies --    348.4300               377.4496               424.3033
 Red. masses --      3.7685                 2.9942                 2.3195
 Frc consts  --      0.2696                 0.2513                 0.2460
 IR Inten    --      7.3278                 9.7908                 1.7789

                     13                     14                     15
                      A                      A                      A
 Frequencies --    474.0687               491.6913               602.9868
 Red. masses --      2.6025                 3.5733                 2.0448
 Frc consts  --      0.3446                 0.5090                 0.4380
 IR Inten    --      1.3297                 5.0097                 0.3934

                     16                     17                     18
                      A                      A                      A
 Frequencies --    629.1171               703.9963               735.6414
 Red. masses --      3.5960                 2.8485                 2.9586
 Frc consts  --      0.8386                 0.8318                 0.9433
 IR Inten    --      6.0677                 1.3387                 2.6115

                     19                     20                     21
                      A                      A                      A
 Frequencies --    784.2658               847.9333               863.4340
 Red. masses --      1.2523                 1.7817                 2.2543
 Frc consts  --      0.4538                 0.7548                 0.9902
 IR Inten    --      0.7062                 6.8588                16.6530

                     22                     23                     24
                      A                      A                      A
 Frequencies --    886.5602               909.4374               920.0011
 Red. masses --      2.7154                 2.5872                 2.2472
 Frc consts  --      1.2575                 1.2608                 1.1206
 IR Inten    --      7.8273                 2.7439                 3.3310

                     25                     26                     27
                      A                      A                      A
 Frequencies --    965.8062               982.3008               993.1210
 Red. masses --      2.1636                 1.5486                 2.2571
 Frc consts  --      1.1891                 0.8804                 1.3116
 IR Inten    --      4.4860                 7.4117                 3.4990

                     28                     29                     30
                      A                      A                      A
 Frequencies --   1031.3295              1040.5014              1053.9328
 Red. masses --      2.0197                 2.2264                 1.6777
 Frc consts  --      1.2657                 1.4202                 1.0980
 IR Inten    --     13.2079                 8.8760                15.4181

                     31                     32                     33
                      A                      A                      A
 Frequencies --   1061.3342              1093.6891              1131.6586
 Red. masses --      2.0244                 1.7554                 1.7864
 Frc consts  --      1.3435                 1.2372                 1.3479
 IR Inten    --     14.1690                21.8155                34.2308

                     34                     35                     36
                      A                      A                      A
 Frequencies --   1148.0959              1160.3963              1180.4782
 Red. masses --      2.3991                 1.6525                 1.6139
 Frc consts  --      1.8632                 1.3110                 1.3251
 IR Inten    --      3.2928                37.6204                15.0020

                     37                     38                     39
                      A                      A                      A
 Frequencies --   1207.8152              1221.9369              1234.1598
 Red. masses --      1.2484                 1.7912                 1.4216
 Frc consts  --      1.0730                 1.5758                 1.2757
 IR Inten    --      2.0810                17.6480                11.9246

                     40                     41                     42
                      A                      A                      A
 Frequencies --   1250.7945              1271.2730              1278.8642
 Red. masses --      1.6476                 1.9593                 1.7635
 Frc consts  --      1.5187                 1.8656                 1.6993
 IR Inten    --     12.6227                21.0447                13.3983

                     43                     44                     45
                      A                      A                      A
 Frequencies --   1290.8514              1296.1995              1314.2846
 Red. masses --      1.6272                 1.2228                 1.3373
 Frc consts  --      1.5975                 1.2104                 1.3610
 IR Inten    --     11.9148                 2.1065                 4.4191

                     46                     47                     48
                      A                      A                      A
 Frequencies --   1336.0126              1341.9903              1353.3138
 Red. masses --      1.5942                 1.3931                 1.4408
 Frc consts  --      1.6766                 1.4782                 1.5547
 IR Inten    --      6.8121                 0.3480                 2.2156

                     49                     50                     51
                      A                      A                      A
 Frequencies --   1362.7142              1378.0256              1402.0977
 Red. masses --      1.3668                 1.7414                 1.5301
 Frc consts  --      1.4954                 1.9483                 1.7723
 IR Inten    --      2.5559                 0.3852                14.0030

                     52                     53                     54
                      A                      A                      A
 Frequencies --   1447.3141              1488.3013              1507.5701
 Red. masses --      1.2157                 1.1682                 1.0953
 Frc consts  --      1.5003                 1.5246                 1.4667
 IR Inten    --     45.2728                 1.2776                 0.4331

                     55                     56                     57
                      A                      A                      A
 Frequencies --   1509.5906              1514.1714              1517.4100
 Red. masses --      1.1022                 1.0712                 1.0704
 Frc consts  --      1.4799                 1.4470                 1.4521
 IR Inten    --     10.9590                 9.6964                 3.6098

                     58                     59                     60
                      A                      A                      A
 Frequencies --   1527.6968              1542.3548              1547.8342
 Red. masses --      1.0701                 1.0598                 1.0996
 Frc consts  --      1.4714                 1.4854                 1.5521
 IR Inten    --      2.9614                 6.4060                 2.4228

                     61                     62                     63
                      A                      A                      A
 Frequencies --   1568.2947              2882.3059              2912.8771
 Red. masses --      1.0884                 1.0758                 1.0650
 Frc consts  --      1.5772                 5.2659                 5.3242
 IR Inten    --      4.9167                90.0556               120.8351

                     64                     65                     66
                      A                      A                      A
 Frequencies --   3032.9279              3056.6586              3059.6265
 Red. masses --      1.0685                 1.0829                 1.0597
 Frc consts  --      5.7908                 5.9613                 5.8450
 IR Inten    --     27.5657                37.7259                23.5351

                     67                     68                     69
                      A                      A                      A
 Frequencies --   3065.2304              3068.9089              3075.8721
 Red. masses --      1.0647                 1.0732                 1.0666
 Frc consts  --      5.8939                 5.9550                 5.9457
 IR Inten    --     35.0919                58.2947                28.8559

                     70                     71                     72
                      A                      A                      A
 Frequencies --   3088.7577              3091.8037              3109.4973
 Red. masses --      1.0822                 1.0827                 1.1018
 Frc consts  --      6.0834                 6.0979                 6.2768
 IR Inten    --     11.0962                29.5238                26.6873

                     73                     74                     75
                      A                      A                      A
 Frequencies --   3111.9792              3118.0798              3128.8422
 Red. masses --      1.0872                 1.0984                 1.1043
 Frc consts  --      6.2036                 6.2918                 6.3694
 IR Inten    --     33.8902                40.6421                54.5250

                     76                     77                     78
                      A                      A                      A
 Frequencies --   3133.9245              3141.6393              3738.3915
 Red. masses --      1.1027                 1.0960                 1.0657
 Frc consts  --      6.3810                 6.3736                 8.7750
 IR Inten    --     25.0294                20.4417                 6.3979

 - Thermochemistry -
 -------------------
 Temperature   298.150 Kelvin.  Pressure   1.00000 Atm.
 Atom     1 has atomic number  6 and mass  12.00000

 Molecular mass:   155.13101 amu.
 Principal axes and moments of inertia in atomic units:
                           1         2         3
     Eigenvalues --  1090.917611846.742302071.63892
           X            0.99968  -0.02299   0.01023
           Y            0.02192   0.99527   0.09465
           Z           -0.01236  -0.09440   0.99546
 This molecule is an asymmetric top.
 Rotational symmetry number  1.
 Warning -- assumption of classical behavior for rotation
           may cause significant error
 Rotational temperatures (Kelvin)      0.07940     0.04690     0.04181
 Rotational constants (GHZ):           1.65433     0.97726     0.87117
 Zero-point vibrational energy     671352.8 (Joules/Mol)
                                  160.45717 (Kcal/Mol)
 Warning -- explicit consideration of  15 degrees of freedom as
           vibrations may cause significant error
 Vibrational temperatures:     75.84   164.62   256.09   278.29   302.75
          (Kelvin)            350.87   383.35   399.21   481.32   501.31
                              543.07   610.48   682.08   707.43   867.56
                              905.16  1012.89  1058.42  1128.38  1219.99
                             1242.29  1275.56  1308.48  1323.68  1389.58
                             1413.31  1428.88  1483.85  1497.05  1516.37
                             1527.02  1573.57  1628.20  1651.85  1669.55
                             1698.44  1737.78  1758.09  1775.68  1799.61
                             1829.08  1840.00  1857.25  1864.94  1890.96
                             1922.22  1930.82  1947.12  1960.64  1982.67
                             2017.31  2082.36  2141.33  2169.06  2171.96
                             2178.55  2183.21  2198.01  2219.10  2226.99
                             2256.43  4147.00  4190.98  4363.71  4397.85
                             4402.12  4410.18  4415.48  4425.49  4444.03
                             4448.42  4473.87  4477.44  4486.22  4501.71
                             4509.02  4520.12  5378.71

 Zero-point correction=                           0.255705 (Hartree/Particle)
 Thermal correction to Energy=                    0.266476
 Thermal correction to Enthalpy=                  0.267420
 Thermal correction to Gibbs Free Energy=         0.220002
 Sum of electronic and zero-point Energies=           -482.937827
 Sum of electronic and thermal Energies=              -482.927056
 Sum of electronic and thermal Enthalpies=            -482.926112
 Sum of electronic and thermal Free Energies=         -482.973530

                     E (Thermal)             CV                S
                      KCal/Mol        Cal/Mol-Kelvin    Cal/Mol-Kelvin
 Total                  167.216             42.895             99.800
 Electronic               0.000              0.000              0.000
 Translational            0.889              2.981             41.027
 Rotational               0.889              2.981             29.813
 Vibrational            165.439             36.934             28.960
 Vibration     1          0.596              1.977              4.713
 Vibration     2          0.607              1.937              3.193
 Vibration     3          0.628              1.869              2.349
 Vibration     4          0.635              1.849              2.195
 Vibration     5          0.643              1.825              2.040
 Vibration     6          0.659              1.773              1.775
 Vibration     7          0.672              1.735              1.619
 Vibration     8          0.678              1.715              1.549
 Vibration     9          0.716              1.607              1.238
 Vibration    10          0.726              1.578              1.173
 Vibration    11          0.748              1.518              1.049
 Vibration    12          0.786              1.417              0.877
 Vibration    13          0.831              1.308              0.726
 Vibration    14          0.847              1.268              0.679
 Vibration    15          0.961              1.025              0.445

                           ! Non-Optimized Parameters !
 Normal termination of Gaussian 16 at Tue Dec  8 20:27:59 2020.

 ----------------------------------------------------------------------
 # B3LYP/6-311++G(d,p) empiricaldispersion=gd3bj scf=xqc pop=npa geom=c
 heck
 ----------------------------------------------------------------------

 --------------------------------------
 CID_45098420_JID_1530_Energie_neutraal
 --------------------------------------
 Structure from the checkpoint file:  "JID_1530.chk"
 Charge =  0 Multiplicity = 1

 SCF Done:  E(RB3LYP) =  -483.335420387     A.U. after   14 cycles
 Normal termination of Gaussian 16 at Tue Dec  8 20:31:33 2020.

 ----------------------------------------------------------------------
 # B3LYP/6-311++G(d,p) empiricaldispersion=gd3bj scf=xqc pop=npa geom=c
 heck
 ----------------------------------------------------------------------

 ------------------------------------
 CID_45098420_JID_1530_Energie_kation
 ------------------------------------
 Structure from the checkpoint file:  "JID_1530.chk"
 Charge =  1 Multiplicity = 2

 SCF Done:  E(UB3LYP) =  -483.052720231     A.U. after   18 cycles
 Normal termination of Gaussian 16 at Tue Dec  8 20:37:49 2020.
 Gaussian 16:  ES64L-G16RevA.03 25-Dec-2016

 ----------------------------------------------------------------------
 # B3LYP/6-311++G(d,p) empiricaldispersion=gd3bj scf=xqc pop=npa geom=c
 heck
 ----------------------------------------------------------------------

 -----------------------------------
 CID_45098420_JID_1530_Energie_anion
 -----------------------------------
 Structure from the checkpoint file:  "JID_1530.chk"
 Charge = -1 Multiplicity = 2

                         Standard orientation:
 ---------------------------------------------------------------------
 Center     Atomic      Atomic             Coordinates (Angstroms)
 Number     Number       Type             X           Y           Z
 ---------------------------------------------------------------------
      1          6           0        0.108259    2.100678    0.757847
      2          7           0       -0.363753    1.114335   -0.188662
      3          6           0       -1.815409    1.133301   -0.361735
      4          6           0       -2.146826   -0.251350   -0.919733
      5          6           0       -1.175007   -1.140471   -0.136438
      6          6           0        0.121379   -0.301087   -0.112437
      7          6           0        1.054089   -0.619642    1.080293
      8          6           0        2.501579   -0.315458    0.602454
      9          6           0        2.381630    0.034441   -0.901962
     10          6           0        1.043165   -0.582192   -1.323695
     11          8           0       -1.671670   -1.440526    1.169227
     12          1           0       -0.191719    3.097024    0.411360
     13          1           0        1.198483    2.092770    0.824661
     14          1           0       -0.299694    1.976756    1.781963
     15          1           0       -2.123700    1.953721   -1.021643
     16          1           0       -2.344564    1.293407    0.602118
     17          1           0       -3.188019   -0.547341   -0.768197
     18          1           0       -1.919994   -0.294096   -1.990771
     19          1           0       -1.013565   -2.116406   -0.600927
     20          1           0        0.779513   -0.072700    1.985553
     21          1           0        0.940558   -1.680177    1.321796
     22          1           0        3.140235   -1.193510    0.746772
     23          1           0        2.960603    0.500275    1.170970
     24          1           0        3.228765   -0.329114   -1.492453
     25          1           0        2.331194    1.120610   -1.038538
     26          1           0        1.154534   -1.667616   -1.456925
     27          1           0        0.641351   -0.159506   -2.248759
     28          1           0       -1.811503   -0.599549    1.632280
 ---------------------------------------------------------------------

 SCF Done:  E(UB3LYP) =  -483.318438358     A.U. after   27 cycles

 The electronic state is 2-A.
 Alpha  occ. eigenvalues --  -19.01544 -14.18896 -10.11359 -10.09477 -10.08318
 Alpha  occ. eigenvalues --  -10.07364 -10.06144 -10.05656 -10.05486 -10.05398
 Alpha  occ. eigenvalues --  -10.05290  -0.91997  -0.81952  -0.71886  -0.67132
 Alpha  occ. eigenvalues --   -0.61625  -0.60199  -0.56636  -0.52491  -0.48891
 Alpha  occ. eigenvalues --   -0.46246  -0.43488  -0.40392  -0.38193  -0.37507
 Alpha  occ. eigenvalues --   -0.35128  -0.34557  -0.32247  -0.31286  -0.31053
 Alpha  occ. eigenvalues --   -0.28764  -0.28396  -0.26155  -0.25240  -0.24044
 Alpha  occ. eigenvalues --   -0.23347  -0.23007  -0.22747  -0.22133  -0.21914
 Alpha  occ. eigenvalues --   -0.21195  -0.16749  -0.09716   0.04882
 Alpha virt. eigenvalues --    0.07101   0.07677   0.08284   0.09340   0.09646
 Alpha virt. eigenvalues --    0.09792   0.10285   0.11249   0.12184   0.12548
 Alpha virt. eigenvalues --    0.12754   0.13356   0.13640   0.14153   0.14995

  Beta  occ. eigenvalues --  -19.01516 -14.18887 -10.11352 -10.09478 -10.08283
  Beta  occ. eigenvalues --  -10.07319 -10.06131 -10.05634 -10.05469 -10.05378
  Beta  occ. eigenvalues --  -10.05278  -0.91937  -0.81927  -0.71858  -0.67096
  Beta  occ. eigenvalues --   -0.61584  -0.60158  -0.56565  -0.52426  -0.48833
  Beta  occ. eigenvalues --   -0.46187  -0.43425  -0.40336  -0.38156  -0.37469
  Beta  occ. eigenvalues --   -0.35070  -0.34505  -0.32210  -0.31248  -0.31013
  Beta  occ. eigenvalues --   -0.28728  -0.28357  -0.26117  -0.25210  -0.24000
  Beta  occ. eigenvalues --   -0.23309  -0.22971  -0.22708  -0.22100  -0.21881
  Beta  occ. eigenvalues --   -0.21167  -0.16720  -0.09664
  Beta virt. eigenvalues --    0.07147   0.08055   0.08323   0.08981   0.09899
  Beta virt. eigenvalues --    0.10148   0.10447   0.10780   0.11584   0.12662
  Beta virt. eigenvalues --    0.12984   0.13237   0.13753   0.14060   0.14500

 Mulliken charges and spin densities:
               1          2
     1  C    1.200629  -1.525988
     2  N   -0.065865   0.317182
     3  C    0.812552  -0.962961
     4  C   -0.087314  -0.477476
     5  C   -0.209806   0.221432
     6  C   -1.297565   1.061833
     7  C    0.014415  -0.440270
     8  C    0.743005  -1.155138
     9  C   -0.074067  -0.247295
    10  C    0.408073  -0.798585
    11  O   -0.157578   0.002406
    12  H   -0.360263   0.518591
    13  H   -0.005904   0.148395
    14  H   -0.525771   0.650556
    15  H   -0.481620   0.653269
    16  H   -0.062379   0.173436
    17  H   -0.243498   0.427409
    18  H    0.099209   0.040793
    19  H    0.022203   0.183548
    20  H    0.100136   0.062368
    21  H   -0.190456   0.399683
    22  H    0.021202   0.105161
    23  H   -0.305053   0.456574
    24  H   -0.413320   0.582415
    25  H    0.091061   0.057696
    26  H   -0.018969   0.136119
    27  H   -0.073259   0.218139
    28  H    0.060200   0.190707
 Sum of Mulliken charges =  -1.00000   1.00000

 Dipole moment (field-independent basis, Debye):
    X=              0.2066    Y=             -3.0528    Z=             -1.4920  Tot=              3.4042
 Quadrupole moment (field-independent basis, Debye-Ang):
   XX=           -120.7062   YY=           -114.1557   ZZ=           -107.4777
   XY=              4.0222   XZ=              2.4556   YZ=              0.5158

 Summary of Natural Population Analysis:

                                       Natural Population
                Natural  -----------------------------------------------
    Atom  No    Charge         Core      Valence    Rydberg      Total
 -----------------------------------------------------------------------
      C    1   -0.17539      0.99963     2.16591    0.00984     3.17539
      N    2   -0.29547      0.99969     2.78072    0.01506     3.79547
      C    3   -0.08257      0.99962     2.07052    0.01243     3.08257
      C    4   -0.20623      0.99961     2.19797    0.00865     3.20623
      C    5    0.06639      0.99946     1.91896    0.01520     2.93361
      C    6    0.06878      0.99952     1.91524    0.01646     2.93122
      C    7   -0.20281      0.99958     2.19325    0.00998     3.20281
      C    8   -0.19364      0.99965     2.18641    0.00759     3.19364
      C    9   -0.19323      0.99964     2.18561    0.00798     3.19323
      C   10   -0.19091      0.99957     2.18128    0.01006     3.19091
      O   11   -0.37228      0.99990     3.36603    0.00635     4.37228
      H   12    0.09797      0.00000     0.40047    0.00156     0.40203
      H   13    0.09693      0.00000     0.40131    0.00176     0.40307
      H   14    0.07994      0.00000     0.41764    0.00242     0.42006
      H   15    0.09868      0.00000     0.39935    0.00197     0.40132
      H   16    0.07667      0.00000     0.42084    0.00249     0.42333
      H   17    0.10494      0.00000     0.39415    0.00091     0.39506
      H   18    0.10127      0.00000     0.39750    0.00122     0.39873
      H   19    0.08994      0.00000     0.40891    0.00115     0.41006
      H   20    0.10764      0.00000     0.39110    0.00125     0.39236
      H   21    0.10713      0.00000     0.39160    0.00126     0.39287
      H   22    0.09607      0.00000     0.40276    0.00117     0.40393
      H   23    0.09824      0.00000     0.40050    0.00125     0.40176
      H   24    0.09847      0.00000     0.40036    0.00117     0.40153
      H   25    0.09804      0.00000     0.40036    0.00160     0.40196
      H   26    0.09166      0.00000     0.40709    0.00125     0.40834
      H   27    0.10444      0.00000     0.39401    0.00155     0.39556
      H   28    0.22930      0.00000     0.26675    0.00395     0.27070
 =======================================================================
   * Total *   -0.00000     10.99587    31.85660    0.14753    43.00000

 Normal termination of Gaussian 16 at Tue Dec  8 20:46:54 2020.
