 Gaussian 16, Revision A.03,

 -----------------------------------------------------------
 # opt freq B3LYP/6-31G(d) empiricaldispersion=gd3bj scf=xqc
 -----------------------------------------------------------

 -------------------------------
 CID_116197788_JID_5162_neutraal
 -------------------------------
 Symbolic Z-matrix:
 Charge =  0 Multiplicity = 1

 SCF Done:  E(RB3LYP) =  -1448.38698444     A.U. after   15 cycles
 SCF Done:  E(RB3LYP) =  -1448.39164691     A.U. after   12 cycles
 SCF Done:  E(RB3LYP) =  -1448.39244796     A.U. after   12 cycles
 SCF Done:  E(RB3LYP) =  -1448.39241464     A.U. after   12 cycles
 SCF Done:  E(RB3LYP) =  -1448.39273954     A.U. after   12 cycles
 SCF Done:  E(RB3LYP) =  -1448.39288646     A.U. after   12 cycles
 SCF Done:  E(RB3LYP) =  -1448.39293247     A.U. after   12 cycles
 SCF Done:  E(RB3LYP) =  -1448.39301525     A.U. after   11 cycles
 SCF Done:  E(RB3LYP) =  -1448.39303438     A.U. after   11 cycles
 SCF Done:  E(RB3LYP) =  -1448.39303917     A.U. after   11 cycles
 SCF Done:  E(RB3LYP) =  -1448.39304191     A.U. after   11 cycles
 SCF Done:  E(RB3LYP) =  -1448.39304494     A.U. after   10 cycles
 SCF Done:  E(RB3LYP) =  -1448.39304926     A.U. after   10 cycles
 SCF Done:  E(RB3LYP) =  -1448.39304996     A.U. after    9 cycles
 SCF Done:  E(RB3LYP) =  -1448.39305043     A.U. after    8 cycles
 SCF Done:  E(RB3LYP) =  -1448.39305061     A.U. after    8 cycles
 Optimization completed.
    -- Stationary point found.
 Normal termination of Gaussian 16 at Thu Dec 10 14:52:44 2020.

 --------------------------------------------------------------------
 #N Geom=AllCheck Guess=TCheck SCRF=Check GenChk RB3LYP/6-31G(d) Freq
 --------------------------------------------------------------------

 Structure from the checkpoint file:  "JID_5162.chk"
 -------------------------------
 CID_116197788_JID_5162_neutraal
 -------------------------------
 Charge =  0 Multiplicity = 1

 SCF Done:  E(RB3LYP) =  -1448.39305061     A.U. after    1 cycles

  Exact polarizability: 165.402  -3.219 139.492   4.065   3.126 119.151
 Approx polarizability: 205.084   3.134 210.966   7.802   8.662 200.162

                      1                      2                      3
                      A                      A                      A
 Frequencies --     18.7995                29.5031                39.5857
 Red. masses --      5.1615                 3.7095                 5.8411
 Frc consts  --      0.0011                 0.0019                 0.0054
 IR Inten    --      1.4120                 1.2687                 1.2124

                      4                      5                      6
                      A                      A                      A
 Frequencies --     53.2023                56.1199                70.9344
 Red. masses --      4.3706                 4.4607                 4.3504
 Frc consts  --      0.0073                 0.0083                 0.0129
 IR Inten    --      0.7068                 1.6465                 1.9199

                      7                      8                      9
                      A                      A                      A
 Frequencies --    111.5065               151.2290               155.7253
 Red. masses --      2.9948                 3.5251                 4.8115
 Frc consts  --      0.0219                 0.0475                 0.0687
 IR Inten    --     11.2733                 3.0026                 2.6245

                     10                     11                     12
                      A                      A                      A
 Frequencies --    174.5301               196.0100               209.2618
 Red. masses --      3.8483                 1.7129                 1.2145
 Frc consts  --      0.0691                 0.0388                 0.0313
 IR Inten    --      0.7758                14.7513                 8.9152

                     13                     14                     15
                      A                      A                      A
 Frequencies --    231.2302               252.0175               278.0878
 Red. masses --      2.1911                 3.5172                 3.4296
 Frc consts  --      0.0690                 0.1316                 0.1563
 IR Inten    --     13.7338                 1.7941                 3.3928

                     16                     17                     18
                      A                      A                      A
 Frequencies --    284.7818               291.0561               304.7438
 Red. masses --      1.6313                 1.4506                 2.2265
 Frc consts  --      0.0779                 0.0724                 0.1218
 IR Inten    --     17.1840                 6.6905                 3.0622

                     19                     20                     21
                      A                      A                      A
 Frequencies --    330.0408               344.9550               361.5553
 Red. masses --      3.4870                 2.5569                 3.9080
 Frc consts  --      0.2238                 0.1793                 0.3010
 IR Inten    --      1.0997                13.6044                 4.9701

                     22                     23                     24
                      A                      A                      A
 Frequencies --    388.7814               417.4941               427.4678
 Red. masses --      2.3995                 2.5821                 2.6139
 Frc consts  --      0.2137                 0.2652                 0.2814
 IR Inten    --      4.4323                11.6582                 4.7559

                     25                     26                     27
                      A                      A                      A
 Frequencies --    488.1284               503.6308               514.4983
 Red. masses --      3.7846                 3.0246                 2.9976
 Frc consts  --      0.5313                 0.4520                 0.4675
 IR Inten    --     12.0028                47.5288                 0.7723

                     28                     29                     30
                      A                      A                      A
 Frequencies --    567.9419               610.2607               653.7452
 Red. masses --      3.8574                 2.3632                 4.4740
 Frc consts  --      0.7331                 0.5185                 1.1266
 IR Inten    --     17.2487                99.0805                13.4230

                     31                     32                     33
                      A                      A                      A
 Frequencies --    681.1052               716.4525               767.6053
 Red. masses --      3.1791                 3.7191                 1.6015
 Frc consts  --      0.8689                 1.1248                 0.5560
 IR Inten    --     43.0758                 9.5860                 5.3479

                     34                     35                     36
                      A                      A                      A
 Frequencies --    808.1160               848.9474               867.4064
 Red. masses --      2.1121                 1.6494                 1.3273
 Frc consts  --      0.8127                 0.7004                 0.5884
 IR Inten    --      4.6305                65.3674               131.6973

                     37                     38                     39
                      A                      A                      A
 Frequencies --    871.3930               892.3981               907.1122
 Red. masses --      2.7961                 1.7579                 2.1379
 Frc consts  --      1.2509                 0.8248                 1.0365
 IR Inten    --     61.5382                60.3625                48.8822

                     40                     41                     42
                      A                      A                      A
 Frequencies --    958.3461               965.2849               977.2975
 Red. masses --      1.6852                 1.4632                 1.4949
 Frc consts  --      0.9119                 0.8033                 0.8412
 IR Inten    --      3.0386                 1.0284                16.3363

                     43                     44                     45
                      A                      A                      A
 Frequencies --    988.7229               992.9518              1063.8689
 Red. masses --      1.8402                 1.6728                 1.7478
 Frc consts  --      1.0599                 0.9717                 1.1655
 IR Inten    --     44.4181                 2.2282                35.7907

                     46                     47                     48
                      A                      A                      A
 Frequencies --   1070.4283              1083.6421              1084.3289
 Red. masses --      1.8365                 1.6897                 2.2608
 Frc consts  --      1.2398                 1.1691                 1.5661
 IR Inten    --     14.9125                14.0445                29.3784

                     49                     50                     51
                      A                      A                      A
 Frequencies --   1099.3516              1108.0785              1129.6478
 Red. masses --      3.9630                 3.2020                 2.6519
 Frc consts  --      2.8219                 2.3164                 1.9938
 IR Inten    --    107.4293                60.0476                60.6539

                     52                     53                     54
                      A                      A                      A
 Frequencies --   1157.5573              1178.3427              1219.9734
 Red. masses --      1.3094                 2.2905                 1.2172
 Frc consts  --      1.0338                 1.8738                 1.0674
 IR Inten    --      3.5101                20.7946                 2.7875

                     55                     56                     57
                      A                      A                      A
 Frequencies --   1228.5289              1232.5163              1269.1853
 Red. masses --      1.3389                 1.3431                 1.6456
 Frc consts  --      1.1906                 1.2021                 1.5618
 IR Inten    --     33.8112                 3.5408                30.3603

                     58                     59                     60
                      A                      A                      A
 Frequencies --   1310.3744              1322.7908              1349.6658
 Red. masses --      1.8481                 1.6395                 1.3246
 Frc consts  --      1.8697                 1.6902                 1.4217
 IR Inten    --     42.6677                37.2823                 2.2153

                     61                     62                     63
                      A                      A                      A
 Frequencies --   1351.3003              1355.4517              1364.7550
 Red. masses --      1.4833                 1.4648                 1.2253
 Frc consts  --      1.5958                 1.5856                 1.3447
 IR Inten    --     39.6016                39.4532                 3.7683

                     64                     65                     66
                      A                      A                      A
 Frequencies --   1365.8074              1402.6374              1412.2384
 Red. masses --      1.1766                 1.4029                 1.4353
 Frc consts  --      1.2932                 1.6262                 1.6866
 IR Inten    --      0.6774                 6.9910                 2.5267

                     67                     68                     69
                      A                      A                      A
 Frequencies --   1439.4533              1445.8325              1461.8724
 Red. masses --      1.2502                 1.4436                 1.2447
 Frc consts  --      1.5262                 1.7780                 1.5673
 IR Inten    --      7.8195                10.8794                72.3782

                     70                     71                     72
                      A                      A                      A
 Frequencies --   1477.9384              1482.0545              1491.6020
 Red. masses --      1.0542                 1.0918                 1.0794
 Frc consts  --      1.3567                 1.4130                 1.4149
 IR Inten    --      6.5275                 5.2152                 4.8532

                     73                     74                     75
                      A                      A                      A
 Frequencies --   1499.8612              1507.6105              1519.2966
 Red. masses --      1.0614                 1.0838                 1.0882
 Frc consts  --      1.4069                 1.4514                 1.4800
 IR Inten    --     17.2417                 5.4444                 8.3992

                     76                     77                     78
                      A                      A                      A
 Frequencies --   1523.2219              1535.4878              1545.7892
 Red. masses --      1.0520                 1.0530                 1.0813
 Frc consts  --      1.4381                 1.4628                 1.5223
 IR Inten    --     11.7384                 3.3378                 3.6572

                     79                     80                     81
                      A                      A                      A
 Frequencies --   1702.1768              2964.2916              3056.0189
 Red. masses --      1.0883                 1.0727                 1.0449
 Frc consts  --      1.8579                 5.5535                 5.7497
 IR Inten    --     30.8889               116.6391                22.7301

                     82                     83                     84
                      A                      A                      A
 Frequencies --   3056.1226              3066.4544              3069.7186
 Red. masses --      1.0593                 1.0676                 1.0296
 Frc consts  --      5.8294                 5.9148                 5.7161
 IR Inten    --      5.8071                10.8937                 7.0198

                     85                     86                     87
                      A                      A                      A
 Frequencies --   3080.3216              3081.0535              3084.5174
 Red. masses --      1.0642                 1.0816                 1.0601
 Frc consts  --      5.9495                 6.0496                 5.9426
 IR Inten    --     15.8833                48.9980                 0.8082

                     88                     89                     90
                      A                      A                      A
 Frequencies --   3090.9856              3108.1828              3117.8559
 Red. masses --      1.0842                 1.0961                 1.1019
 Frc consts  --      6.1031                 6.2392                 6.3110
 IR Inten    --      2.6855                11.0948                38.5333

                     91                     92                     93
                      A                      A                      A
 Frequencies --   3123.5443              3137.2014              3145.1451
 Red. masses --      1.1011                 1.1054                 1.1014
 Frc consts  --      6.3298                 6.4099                 6.4192
 IR Inten    --     22.9089                 7.3314                24.4749

                     94                     95                     96
                      A                      A                      A
 Frequencies --   3157.2371              3167.6232              3177.7983
 Red. masses --      1.1039                 1.1061                 1.1061
 Frc consts  --      6.4833                 6.5391                 6.5812
 IR Inten    --      3.3462                 4.0742                 4.5033

                     97                     98                     99
                      A                      A                      A
 Frequencies --   3471.8530              3519.2193              3554.0893
 Red. masses --      1.0500                 1.0749                 1.0921
 Frc consts  --      7.4571                 7.8436                 8.1277
 IR Inten    --      1.6134                30.8174                 0.6465

 - Thermochemistry -
 -------------------
 Temperature   298.150 Kelvin.  Pressure   1.00000 Atm.
 Atom     1 has atomic number  6 and mass  12.00000

 Molecular mass:   256.09154 amu.
 Principal axes and moments of inertia in atomic units:
                           1         2         3
     Eigenvalues --  2351.366617048.799878244.39724
           X            0.99995  -0.00751  -0.00728
           Y            0.00758   0.99993   0.00910
           Z            0.00721  -0.00916   0.99993
 This molecule is an asymmetric top.
 Rotational symmetry number  1.
 Warning -- assumption of classical behavior for rotation
           may cause significant error
 Rotational temperatures (Kelvin)      0.03684     0.01229     0.01051
 Rotational constants (GHZ):           0.76753     0.25604     0.21891
 Zero-point vibrational energy     782249.3 (Joules/Mol)
                                  186.96206 (Kcal/Mol)
 Warning -- explicit consideration of  29 degrees of freedom as
           vibrations may cause significant error
 Vibrational temperatures:     27.05    42.45    56.95    76.55    80.74
          (Kelvin)            102.06   160.43   217.58   224.05   251.11
                              282.01   301.08   332.69   362.60   400.11
                              409.74   418.76   438.46   474.86   496.31
                              520.20   559.37   600.68   615.03   702.31
                              724.61   740.25   817.14   878.03   940.59
                              979.96  1030.82  1104.41  1162.70  1221.45
                             1248.00  1253.74  1283.96  1305.13  1378.85
                             1388.83  1406.11  1422.55  1428.64  1530.67
                             1540.11  1559.12  1560.11  1581.72  1594.28
                             1625.31  1665.47  1695.37  1755.27  1767.58
                             1773.32  1826.07  1885.34  1903.20  1941.87
                             1944.22  1950.19  1963.58  1965.09  2018.08
                             2031.90  2071.05  2080.23  2103.31  2126.42
                             2132.35  2146.08  2157.97  2169.12  2185.93
                             2191.58  2209.22  2224.05  2449.05  4264.95
                             4396.93  4397.08  4411.94  4416.64  4431.90
                             4432.95  4437.93  4447.24  4471.98  4485.90
                             4494.08  4513.73  4525.16  4542.56  4557.50
                             4572.14  4995.22  5063.37  5113.54

 Zero-point correction=                           0.297943 (Hartree/Particle)
 Thermal correction to Energy=                    0.316726
 Thermal correction to Enthalpy=                  0.317670
 Thermal correction to Gibbs Free Energy=         0.248926
 Sum of electronic and zero-point Energies=          -1448.095108
 Sum of electronic and thermal Energies=             -1448.076325
 Sum of electronic and thermal Enthalpies=           -1448.075381
 Sum of electronic and thermal Free Energies=        -1448.144125

                     E (Thermal)             CV                S
                      KCal/Mol        Cal/Mol-Kelvin    Cal/Mol-Kelvin
 Total                  198.748             68.239            144.684
 Electronic               0.000              0.000              0.000
 Translational            0.889              2.981             42.521
 Rotational               0.889              2.981             33.280
 Vibrational            196.971             62.278             68.883
 Vibration     1          0.593              1.986              6.757
 Vibration     2          0.593              1.984              5.863
 Vibration     3          0.594              1.981              5.280
 Vibration     4          0.596              1.976              4.695
 Vibration     5          0.596              1.975              4.589
 Vibration     6          0.598              1.968              4.127
 Vibration     7          0.607              1.940              3.243
 Vibration     8          0.619              1.901              2.657
 Vibration     9          0.620              1.896              2.601
 Vibration    10          0.627              1.874              2.386
 Vibration    11          0.636              1.845              2.170
 Vibration    12          0.642              1.827              2.050
 Vibration    13          0.653              1.793              1.869
 Vibration    14          0.664              1.759              1.716
 Vibration    15          0.679              1.714              1.545
 Vibration    16          0.683              1.702              1.505
 Vibration    17          0.687              1.690              1.468
 Vibration    18          0.696              1.665              1.391
 Vibration    19          0.713              1.615              1.260
 Vibration    20          0.723              1.586              1.189
 Vibration    21          0.736              1.551              1.115
 Vibration    22          0.757              1.494              1.005
 Vibration    23          0.781              1.432              0.901
 Vibration    24          0.789              1.410              0.867
 Vibration    25          0.844              1.276              0.688
 Vibration    26          0.859              1.242              0.649
 Vibration    27          0.870              1.218              0.623
 Vibration    28          0.924              1.101              0.508
 Vibration    29          0.969              1.010              0.432

                           ! Non-Optimized Parameters !
 Normal termination of Gaussian 16 at Thu Dec 10 15:06:02 2020.

 ----------------------------------------------------------------------
 # B3LYP/6-311++G(d,p) empiricaldispersion=gd3bj scf=xqc pop=npa geom=c
 heck
 ----------------------------------------------------------------------

 ---------------------------------------
 CID_116197788_JID_5162_Energie_neutraal
 ---------------------------------------
 Structure from the checkpoint file:  "JID_5162.chk"
 Charge =  0 Multiplicity = 1

 SCF Done:  E(RB3LYP) =  -1448.65512333     A.U. after   16 cycles
 Normal termination of Gaussian 16 at Thu Dec 10 15:14:47 2020.

 ----------------------------------------------------------------------
 # B3LYP/6-311++G(d,p) empiricaldispersion=gd3bj scf=xqc pop=npa geom=c
 heck
 ----------------------------------------------------------------------

 -------------------------------------
 CID_116197788_JID_5162_Energie_kation
 -------------------------------------
 Structure from the checkpoint file:  "JID_5162.chk"
 Charge =  1 Multiplicity = 2

 SCF Done:  E(UB3LYP) =  -1448.34792801     A.U. after   32 cycles
 Normal termination of Gaussian 16 at Thu Dec 10 15:34:03 2020.
 Gaussian 16:  ES64L-G16RevA.03 25-Dec-2016

 ----------------------------------------------------------------------
 # B3LYP/6-311++G(d,p) empiricaldispersion=gd3bj scf=xqc pop=npa geom=c
 heck
 ----------------------------------------------------------------------

 ------------------------------------
 CID_116197788_JID_5162_Energie_anion
 ------------------------------------
 Structure from the checkpoint file:  "JID_5162.chk"
 Charge = -1 Multiplicity = 2

                         Standard orientation:
 ---------------------------------------------------------------------
 Center     Atomic      Atomic             Coordinates (Angstroms)
 Number     Number       Type             X           Y           Z
 ---------------------------------------------------------------------
      1          6           0       -0.845140    2.194444    0.679172
      2          6           0       -0.847430    0.683575    0.924146
      3          6           0       -2.253446    0.064920    0.981253
      4         16           0       -3.157339    0.179558   -0.636778
      5          8           0       -4.082437   -1.011073   -0.729883
      6          6           0       -4.198823    1.629222   -0.214617
      7          7           0        0.015922    0.051927   -0.091557
      8         16           0        0.694032   -1.467269    0.234564
      9          8           0        0.101798   -2.000408    1.469215
     10          8           0        0.644731   -2.206677   -1.030374
     11          6           0        2.424912   -1.092717    0.627312
     12          6           0        3.305608   -0.773256   -0.581878
     13          6           0        3.045238    0.567339   -1.282700
     14          6           0        3.171255    1.792872   -0.374889
     15          7           0        4.513688    1.881794    0.213266
     16          1           0       -1.214529    2.435384   -0.323959
     17          1           0        0.171005    2.588976    0.760059
     18          1           0       -1.481148    2.704942    1.410560
     19          1           0       -0.379276    0.483203    1.892721
     20          1           0       -2.176574   -1.010188    1.159840
     21          1           0       -2.857413    0.512527    1.777328
     22          1           0       -4.829632    1.367308    0.639623
     23          1           0       -3.573997    2.496299    0.012397
     24          1           0       -4.827430    1.836347   -1.083570
     25          1           0       -0.405022    0.015380   -1.018801
     26          1           0        2.393314   -0.291673    1.372000
     27          1           0        2.764136   -2.003824    1.130241
     28          1           0        4.346202   -0.798828   -0.234470
     29          1           0        3.201601   -1.589352   -1.303889
     30          1           0        3.774022    0.664922   -2.095160
     31          1           0        2.048718    0.564008   -1.735317
     32          1           0        3.017666    2.691342   -0.983610
     33          1           0        2.356236    1.781939    0.370485
     34          1           0        4.630296    2.782920    0.672581
     35          1           0        4.621694    1.182562    0.945954
 ---------------------------------------------------------------------

 SCF Done:  E(UB3LYP) =  -1448.65421782     A.U. after   27 cycles

 The electronic state is 2-A.
 Alpha  occ. eigenvalues --  -88.97741 -88.86519 -19.03546 -19.03403 -18.99711
 Alpha  occ. eigenvalues --  -14.25980 -14.19941 -10.14694 -10.12583 -10.11560
 Alpha  occ. eigenvalues --  -10.11518 -10.09858 -10.09668 -10.08338 -10.07946
 Alpha  occ. eigenvalues --   -8.03972  -7.94228  -6.00274  -6.00221  -6.00009
 Alpha  occ. eigenvalues --   -5.90493  -5.90376  -5.89819  -1.03582  -0.92896
 Alpha  occ. eigenvalues --   -0.92766  -0.85018  -0.79174  -0.73299  -0.71815
 Alpha  occ. eigenvalues --   -0.68007  -0.65268  -0.62916  -0.58553  -0.55481
 Alpha  occ. eigenvalues --   -0.53738  -0.50451  -0.48394  -0.44879  -0.42125
 Alpha  occ. eigenvalues --   -0.41330  -0.40413  -0.39300  -0.38807  -0.38430
 Alpha  occ. eigenvalues --   -0.37039  -0.36395  -0.35729  -0.35480  -0.33779
 Alpha  occ. eigenvalues --   -0.32977  -0.32387  -0.31926  -0.31265  -0.30583
 Alpha  occ. eigenvalues --   -0.29279  -0.28075  -0.27440  -0.26858  -0.26645
 Alpha  occ. eigenvalues --   -0.26017  -0.24943  -0.23904  -0.22896  -0.21834
 Alpha  occ. eigenvalues --   -0.19639  -0.18621  -0.15228  -0.15014   0.03358
 Alpha virt. eigenvalues --    0.05328   0.06906   0.07027   0.07707   0.08306
 Alpha virt. eigenvalues --    0.08770   0.09629   0.09958   0.10162   0.10606
 Alpha virt. eigenvalues --    0.10685   0.10824   0.11696   0.11829   0.12640

  Beta  occ. eigenvalues --  -88.97738 -88.86514 -19.03538 -19.03400 -18.99700
  Beta  occ. eigenvalues --  -14.25972 -14.19891 -10.14681 -10.12550 -10.11524
  Beta  occ. eigenvalues --  -10.11508 -10.09831 -10.09658 -10.08284 -10.07944
  Beta  occ. eigenvalues --   -8.03968  -7.94223  -6.00270  -6.00218  -6.00006
  Beta  occ. eigenvalues --   -5.90490  -5.90367  -5.89812  -1.03564  -0.92875
  Beta  occ. eigenvalues --   -0.92749  -0.84997  -0.79094  -0.73262  -0.71783
  Beta  occ. eigenvalues --   -0.67965  -0.65218  -0.62856  -0.58498  -0.55412
  Beta  occ. eigenvalues --   -0.53685  -0.50407  -0.48346  -0.44845  -0.42094
  Beta  occ. eigenvalues --   -0.41306  -0.40375  -0.39256  -0.38768  -0.38394
  Beta  occ. eigenvalues --   -0.37015  -0.36345  -0.35683  -0.35442  -0.33717
  Beta  occ. eigenvalues --   -0.32930  -0.32348  -0.31889  -0.31222  -0.30541
  Beta  occ. eigenvalues --   -0.29241  -0.28029  -0.27414  -0.26838  -0.26624
  Beta  occ. eigenvalues --   -0.25990  -0.24917  -0.23894  -0.22885  -0.21814
  Beta  occ. eigenvalues --   -0.19623  -0.18586  -0.15177  -0.14976
  Beta virt. eigenvalues --    0.05857   0.06258   0.07346   0.07572   0.08082
  Beta virt. eigenvalues --    0.08560   0.09247   0.09741   0.10264   0.10465
  Beta virt. eigenvalues --    0.10735   0.10935   0.11169   0.11868   0.12166

 Mulliken charges and spin densities:
               1          2
     1  C    1.286261  -2.090865
     2  C   -0.626755   0.706081
     3  C   -0.597133  -0.155429
     4  S    0.639484  -0.060988
     5  O   -0.440275   0.010879
     6  C    0.038836  -0.647517
     7  N   -0.119741   0.033426
     8  S    0.117768   0.049860
     9  O   -0.153776   0.023710
    10  O   -0.160104  -0.011341
    11  C   -0.289331  -0.315254
    12  C   -0.166376  -0.303642
    13  C   -0.020834   0.138898
    14  C    0.544202  -1.015576
    15  N   -0.403826   0.032652
    16  H    0.034143   0.132498
    17  H   -0.445758   0.614847
    18  H   -0.430222   0.611471
    19  H   -0.163744   0.457383
    20  H    0.298799  -0.016871
    21  H    0.057502   0.118350
    22  H   -0.034914   0.232196
    23  H   -0.377780   0.528249
    24  H   -0.000464   0.191436
    25  H    0.304590  -0.051142
    26  H   -0.148184   0.390960
    27  H    0.027870   0.211717
    28  H    0.014873   0.152437
    29  H    0.220295  -0.013955
    30  H    0.131560   0.040098
    31  H    0.055094   0.055422
    32  H   -0.087806   0.250679
    33  H    0.094636   0.028107
    34  H   -0.181700   0.433533
    35  H   -0.017189   0.237691
 Sum of Mulliken charges =  -1.00000   1.00000

 Dipole moment (field-independent basis, Debye):
    X=             -0.5700    Y=             -2.7729    Z=             -3.0182  Tot=              4.1381
 Quadrupole moment (field-independent basis, Debye-Ang):
   XX=           -193.6757   YY=           -169.4313   ZZ=           -143.0073
   XY=            -17.8921   XZ=             -7.3620   YZ=            -11.6596

 Summary of Natural Population Analysis:

                                       Natural Population
                Natural  -----------------------------------------------
    Atom  No    Charge         Core      Valence    Rydberg      Total
 -----------------------------------------------------------------------
      C    1   -0.28960      0.99963     2.28179    0.00818     3.28960
      C    2   -0.02963      0.99958     2.01202    0.01802     3.02963
      C    3   -0.28164      0.99955     2.26974    0.01234     3.28164
      S    4    0.57706      4.99945     2.36939    0.05409     7.42294
      O    5   -0.48001      0.99993     3.47373    0.00635     4.48001
      C    6   -0.37840      0.99962     2.37082    0.00796     3.37840
      N    7   -0.44545      0.99974     2.93265    0.01306     3.94545
      S    8    1.09345      4.99929     1.80787    0.09939     6.90655
      O    9   -0.46633      0.99991     3.46100    0.00543     4.46633
      O   10   -0.46505      0.99991     3.45991    0.00524     4.46505
      C   11   -0.28619      0.99957     2.27467    0.01195     3.28619
      C   12   -0.20538      0.99961     2.19577    0.01000     3.20538
      C   13   -0.19248      0.99962     2.18455    0.00831     3.19248
      C   14   -0.09327      0.99963     2.08173    0.01191     3.09327
      N   15   -0.42559      0.99977     2.91541    0.01041     3.92559
      H   16    0.09555      0.00000     0.40234    0.00211     0.40445
      H   17    0.11187      0.00000     0.38613    0.00199     0.38813
      H   18    0.10677      0.00000     0.39062    0.00260     0.39323
      H   19    0.11275      0.00000     0.38531    0.00194     0.38725
      H   20    0.12750      0.00000     0.37136    0.00115     0.37250
      H   21    0.10925      0.00000     0.38941    0.00134     0.39075
      H   22    0.10997      0.00000     0.38882    0.00121     0.39003
      H   23    0.11260      0.00000     0.38492    0.00248     0.38740
      H   24    0.10927      0.00000     0.38950    0.00124     0.39073
      H   25    0.19736      0.00000     0.29922    0.00342     0.30264
      H   26    0.11887      0.00000     0.37926    0.00187     0.38113
      H   27    0.11738      0.00000     0.38166    0.00096     0.38262
      H   28    0.10553      0.00000     0.39340    0.00108     0.39447
      H   29    0.10896      0.00000     0.38999    0.00105     0.39104
      H   30    0.09943      0.00000     0.39940    0.00116     0.40057
      H   31    0.09954      0.00000     0.39904    0.00142     0.40046
      H   32    0.09193      0.00000     0.40700    0.00107     0.40807
      H   33    0.08177      0.00000     0.41530    0.00293     0.41823
      H   34    0.17962      0.00000     0.31784    0.00254     0.32038
      H   35    0.17260      0.00000     0.32476    0.00264     0.32740
 =======================================================================
   * Total *   -0.00000     22.99482    45.68632    0.31886    69.00000

 Normal termination of Gaussian 16 at Thu Dec 10 15:54:11 2020.
