 Gaussian 16, Revision A.03,

 -----------------------------------------------------------
 # opt freq B3LYP/6-31G(d) empiricaldispersion=gd3bj scf=xqc
 -----------------------------------------------------------

 ------------------------------
 CID_18418095_JID_8217_neutraal
 ------------------------------
 Symbolic Z-matrix:
 Charge =  0 Multiplicity = 1

 SCF Done:  E(RB3LYP) =  -1316.68878337     A.U. after   15 cycles
 SCF Done:  E(RB3LYP) =  -1316.67799388     A.U. after   14 cycles
 SCF Done:  E(RB3LYP) =  -1316.69325436     A.U. after   13 cycles
 SCF Done:  E(RB3LYP) =  -1316.69450514     A.U. after   13 cycles
 SCF Done:  E(RB3LYP) =  -1316.69325854     A.U. after   13 cycles
 SCF Done:  E(RB3LYP) =  -1316.69534992     A.U. after   13 cycles
 SCF Done:  E(RB3LYP) =  -1316.69431419     A.U. after   14 cycles
 SCF Done:  E(RB3LYP) =  -1316.69831425     A.U. after   13 cycles
 SCF Done:  E(RB3LYP) =  -1316.69853643     A.U. after   13 cycles
 SCF Done:  E(RB3LYP) =  -1316.69877073     A.U. after   12 cycles
 SCF Done:  E(RB3LYP) =  -1316.69918124     A.U. after   10 cycles
 SCF Done:  E(RB3LYP) =  -1316.69918303     A.U. after    8 cycles
 SCF Done:  E(RB3LYP) =  -1316.69918337     A.U. after    8 cycles
 SCF Done:  E(RB3LYP) =  -1316.69918349     A.U. after    7 cycles
 Optimization completed.
    -- Stationary point found.
 Normal termination of Gaussian 16 at Fri Dec 11 19:45:56 2020.

 --------------------------------------------------------------------
 #N Geom=AllCheck Guess=TCheck SCRF=Check GenChk RB3LYP/6-31G(d) Freq
 --------------------------------------------------------------------

 Structure from the checkpoint file:  "JID_8217.chk"
 ------------------------------
 CID_18418095_JID_8217_neutraal
 ------------------------------
 Charge =  0 Multiplicity = 1

 SCF Done:  E(RB3LYP) =  -1316.69918349     A.U. after    1 cycles

  Exact polarizability: 142.743   2.568 137.310   3.096  -2.355 127.762
 Approx polarizability: 192.693   3.671 207.051   4.361 -15.717 206.701

                      1                      2                      3
                      A                      A                      A
 Frequencies --     30.4088                39.5225                48.7677
 Red. masses --      7.9204                 5.2838                 8.5834
 Frc consts  --      0.0043                 0.0049                 0.0120
 IR Inten    --      1.2312                 0.9585                 1.5619

                      4                      5                      6
                      A                      A                      A
 Frequencies --     51.8951                74.8445                92.3130
 Red. masses --      4.2217                 5.9524                 3.6786
 Frc consts  --      0.0067                 0.0196                 0.0185
 IR Inten    --      0.1170                 0.0241                 3.5402

                      7                      8                      9
                      A                      A                      A
 Frequencies --     96.5880               113.2443               138.6624
 Red. masses --      2.6062                 5.8333                 3.9898
 Frc consts  --      0.0143                 0.0441                 0.0452
 IR Inten    --      2.9262                 0.1633                 1.7190

                     10                     11                     12
                      A                      A                      A
 Frequencies --    171.7202               191.8181               204.3492
 Red. masses --      5.4463                 2.5152                 4.8488
 Frc consts  --      0.0946                 0.0545                 0.1193
 IR Inten    --      3.1213                 0.6494                 0.7635

                     13                     14                     15
                      A                      A                      A
 Frequencies --    222.7178               228.8816               249.5402
 Red. masses --      4.7210                 3.1161                 3.3746
 Frc consts  --      0.1380                 0.0962                 0.1238
 IR Inten    --      1.4058                 0.7464                 0.7315

                     16                     17                     18
                      A                      A                      A
 Frequencies --    258.8185               284.8275               285.0607
 Red. masses --      2.7224                 1.0504                 3.2995
 Frc consts  --      0.1074                 0.0502                 0.1580
 IR Inten    --      4.8709                 0.9199                 3.3949

                     19                     20                     21
                      A                      A                      A
 Frequencies --    344.8458               359.3363               361.3570
 Red. masses --      3.0709                 3.5105                 4.3764
 Frc consts  --      0.2152                 0.2671                 0.3367
 IR Inten    --      0.1682                 0.7448                 3.7191

                     22                     23                     24
                      A                      A                      A
 Frequencies --    365.5856               400.9170               438.8674
 Red. masses --      4.0990                 2.8410                 4.8182
 Frc consts  --      0.3228                 0.2691                 0.5468
 IR Inten    --      6.1851                 2.0769                42.1904

                     25                     26                     27
                      A                      A                      A
 Frequencies --    474.9911               484.4354               506.6468
 Red. masses --      7.4750                 4.0330                 1.9329
 Frc consts  --      0.9936                 0.5576                 0.2923
 IR Inten    --      3.4093                25.6584                 6.9773

                     28                     29                     30
                      A                      A                      A
 Frequencies --    538.6332               563.1267               589.4569
 Red. masses --      2.8956                 1.5727                 2.8324
 Frc consts  --      0.4950                 0.2938                 0.5798
 IR Inten    --      3.8055                79.7658                50.1114

                     31                     32                     33
                      A                      A                      A
 Frequencies --    591.0325               616.3263               625.9789
 Red. masses --      3.1795                 3.1626                 2.8979
 Frc consts  --      0.6544                 0.7078                 0.6690
 IR Inten    --    142.0622                 1.8311                47.4069

                     34                     35                     36
                      A                      A                      A
 Frequencies --    633.6487               687.4028               696.8146
 Red. masses --      1.5247                 1.5869                 3.3367
 Frc consts  --      0.3607                 0.4418                 0.9546
 IR Inten    --    110.9129                80.9531                 9.1434

                     37                     38                     39
                      A                      A                      A
 Frequencies --    775.5200               783.6877               791.7490
 Red. masses --      2.6554                 2.4861                 2.0148
 Frc consts  --      0.9410                 0.8996                 0.7441
 IR Inten    --     49.3017                21.6028                 6.8052

                     40                     41                     42
                      A                      A                      A
 Frequencies --    830.3695               851.3807               870.3219
 Red. masses --      5.7941                 3.8071                 1.8852
 Frc consts  --      2.3538                 1.6259                 0.8413
 IR Inten    --    152.9208                27.8988                 8.6727

                     43                     44                     45
                      A                      A                      A
 Frequencies --    918.5338               949.3644               964.5980
 Red. masses --      2.7224                 2.3112                 2.1277
 Frc consts  --      1.3533                 1.2273                 1.1664
 IR Inten    --      5.2787                 9.0435                 3.5952

                     46                     47                     48
                      A                      A                      A
 Frequencies --    986.3971              1026.7854              1055.5571
 Red. masses --      2.3515                 1.4639                 2.6378
 Frc consts  --      1.3480                 0.9093                 1.7317
 IR Inten    --     14.7276                 6.7647                 3.8351

                     49                     50                     51
                      A                      A                      A
 Frequencies --   1067.2527              1093.9609              1109.6626
 Red. masses --      2.1629                 2.6452                 2.0612
 Frc consts  --      1.4515                 1.8651                 1.4954
 IR Inten    --     12.0395                 3.7409                85.7390

                     52                     53                     54
                      A                      A                      A
 Frequencies --   1127.5455              1132.6411              1153.1234
 Red. masses --      1.7489                 4.2691                 3.2840
 Frc consts  --      1.3101                 3.2268                 2.5728
 IR Inten    --     44.3003                96.3526                53.8918

                     55                     56                     57
                      A                      A                      A
 Frequencies --   1163.6820              1180.2111              1187.4872
 Red. masses --      2.1575                 2.6116                 2.6495
 Frc consts  --      1.7214                 2.1433                 2.2013
 IR Inten    --     39.8517               219.6732                53.0291

                     58                     59                     60
                      A                      A                      A
 Frequencies --   1235.3371              1257.6433              1276.6562
 Red. masses --      1.2053                 1.3580                 1.2163
 Frc consts  --      1.0837                 1.2655                 1.1680
 IR Inten    --      6.1564                44.9351               102.5167

                     61                     62                     63
                      A                      A                      A
 Frequencies --   1289.0895              1297.0249              1328.0608
 Red. masses --      1.3232                 1.2278                 1.3048
 Frc consts  --      1.2955                 1.2170                 1.3559
 IR Inten    --     12.5021                 6.4771                20.3905

                     64                     65                     66
                      A                      A                      A
 Frequencies --   1331.3757              1342.9119              1353.4821
 Red. masses --      1.5027                 1.2932                 1.7106
 Frc consts  --      1.5694                 1.3741                 1.8463
 IR Inten    --      7.7708                 4.2977                10.6140

                     67                     68                     69
                      A                      A                      A
 Frequencies --   1354.5925              1371.6980              1385.3422
 Red. masses --      1.2783                 2.3274                 1.4626
 Frc consts  --      1.3819                 2.5801                 1.6538
 IR Inten    --      4.6272               159.0641                10.3896

                     70                     71                     72
                      A                      A                      A
 Frequencies --   1409.0405              1414.6430              1422.2563
 Red. masses --      1.4363                 1.3967                 1.4201
 Frc consts  --      1.6801                 1.6468                 1.6925
 IR Inten    --      9.7957                 6.5465                16.7194

                     73                     74                     75
                      A                      A                      A
 Frequencies --   1444.5272              1448.2657              1455.6584
 Red. masses --      1.8562                 1.2762                 1.2232
 Frc consts  --      2.2820                 1.5771                 1.5271
 IR Inten    --     42.7867                17.4351                 5.1096

                     76                     77                     78
                      A                      A                      A
 Frequencies --   1489.6543              1516.2947              1524.0644
 Red. masses --      1.0855                 1.0525                 1.0439
 Frc consts  --      1.4192                 1.4257                 1.4286
 IR Inten    --     16.6374                 2.7699                 7.0228

                     79                     80                     81
                      A                      A                      A
 Frequencies --   1528.5638              1531.4302              1535.4660
 Red. masses --      1.0714                 1.0673                 1.0596
 Frc consts  --      1.4749                 1.4748                 1.4719
 IR Inten    --     18.6895                 5.9547                 4.9282

                     82                     83                     84
                      A                      A                      A
 Frequencies --   1543.4689              1841.3654              1868.1028
 Red. masses --      1.0475                 9.4487                 9.7820
 Frc consts  --      1.4702                18.8756                20.1130
 IR Inten    --     12.9489               161.7558               291.7214

                     85                     86                     87
                      A                      A                      A
 Frequencies --   3032.6650              3060.3580              3060.8180
 Red. masses --      1.0715                 1.0369                 1.0682
 Frc consts  --      5.8060                 5.7216                 5.8964
 IR Inten    --     21.1940                17.2794                 9.1690

                     88                     89                     90
                      A                      A                      A
 Frequencies --   3072.9825              3087.6501              3090.1723
 Red. masses --      1.0409                 1.0713                 1.0763
 Frc consts  --      5.7912                 6.0173                 6.0554
 IR Inten    --     12.9572                 4.4987                 2.6318

                     91                     92                     93
                      A                      A                      A
 Frequencies --   3093.3778              3107.4258              3111.2059
 Red. masses --      1.0836                 1.0911                 1.0857
 Frc consts  --      6.1094                 6.2072                 6.1920
 IR Inten    --      3.7670                12.0513                 8.7926

                     94                     95                     96
                      A                      A                      A
 Frequencies --   3117.0684              3127.9280              3129.8232
 Red. masses --      1.0900                 1.1026                 1.1025
 Frc consts  --      6.2399                 6.3562                 6.3630
 IR Inten    --     10.8957                24.4329                29.2250

                     97                     98                     99
                      A                      A                      A
 Frequencies --   3135.5842              3144.9052              3172.9969
 Red. masses --      1.0990                 1.0974                 1.1031
 Frc consts  --      6.3663                 6.3948                 6.5436
 IR Inten    --     37.9184                 7.3548                 5.2331

                    100                    101                    102
                      A                      A                      A
 Frequencies --   3537.1566              3666.2079              3686.0642
 Red. masses --      1.0662                 1.0640                 1.0640
 Frc consts  --      7.8597                 8.4259                 8.5180
 IR Inten    --    369.1931                70.3674                55.8446

 - Thermochemistry -
 -------------------
 Temperature   298.150 Kelvin.  Pressure   1.00000 Atm.
 Atom     1 has atomic number  6 and mass  12.00000

 Molecular mass:   282.07732 amu.
 Principal axes and moments of inertia in atomic units:
                           1         2         3
     Eigenvalues --  3209.340386867.238527484.20386
           X            0.99989   0.00290   0.01431
           Y           -0.00338   0.99944   0.03314
           Z           -0.01421  -0.03319   0.99935
 This molecule is an asymmetric top.
 Rotational symmetry number  1.
 Warning -- assumption of classical behavior for rotation
           may cause significant error
 Rotational temperatures (Kelvin)      0.02699     0.01261     0.01157
 Rotational constants (GHZ):           0.56234     0.26280     0.24114
 Zero-point vibrational energy     773467.2 (Joules/Mol)
                                  184.86310 (Kcal/Mol)
 Warning -- explicit consideration of  32 degrees of freedom as
           vibrations may cause significant error
 Vibrational temperatures:     43.75    56.86    70.17    74.67   107.68
          (Kelvin)            132.82   138.97   162.93   199.50   247.07
                              275.98   294.01   320.44   329.31   359.03
                              372.38   409.80   410.14   496.16   517.00
                              519.91   526.00   576.83   631.43   683.41
                              696.99   728.95   774.97   810.21   848.10
                              850.36   886.76   900.64   911.68   989.02
                             1002.56  1115.80  1127.55  1139.15  1194.72
                             1224.95  1252.20  1321.57  1365.92  1387.84
                             1419.21  1477.32  1518.71  1535.54  1573.97
                             1596.56  1622.29  1629.62  1659.09  1674.28
                             1698.06  1708.53  1777.37  1809.47  1836.82
                             1854.71  1866.13  1910.78  1915.55  1932.15
                             1947.36  1948.96  1973.57  1993.20  2027.29
                             2035.36  2046.31  2078.35  2083.73  2094.37
                             2143.28  2181.61  2192.79  2199.26  2203.39
                             2209.19  2220.71  2649.31  2687.78  4363.33
                             4403.17  4403.83  4421.34  4442.44  4446.07
                             4450.68  4470.89  4476.33  4484.77  4500.39
                             4503.12  4511.41  4524.82  4565.23  5089.18
                             5274.86  5303.42

 Zero-point correction=                           0.294598 (Hartree/Particle)
 Thermal correction to Energy=                    0.314250
 Thermal correction to Enthalpy=                  0.315194
 Thermal correction to Gibbs Free Energy=         0.245762
 Sum of electronic and zero-point Energies=          -1316.404585
 Sum of electronic and thermal Energies=             -1316.384933
 Sum of electronic and thermal Enthalpies=           -1316.383989
 Sum of electronic and thermal Free Energies=        -1316.453421

                     E (Thermal)             CV                S
                      KCal/Mol        Cal/Mol-Kelvin    Cal/Mol-Kelvin
 Total                  197.195             72.804            146.132
 Electronic               0.000              0.000              0.000
 Translational            0.889              2.981             42.809
 Rotational               0.889              2.981             33.467
 Vibrational            195.417             66.843             69.857
 Vibration     1          0.594              1.984              5.803
 Vibration     2          0.594              1.981              5.283
 Vibration     3          0.595              1.978              4.867
 Vibration     4          0.596              1.977              4.744
 Vibration     5          0.599              1.966              4.022
 Vibration     6          0.602              1.955              3.610
 Vibration     7          0.603              1.952              3.522
 Vibration     8          0.607              1.938              3.213
 Vibration     9          0.614              1.915              2.822
 Vibration    10          0.626              1.877              2.417
 Vibration    11          0.634              1.851              2.210
 Vibration    12          0.640              1.834              2.094
 Vibration    13          0.648              1.806              1.937
 Vibration    14          0.652              1.797              1.888
 Vibration    15          0.662              1.764              1.734
 Vibration    16          0.668              1.748              1.670
 Vibration    17          0.683              1.702              1.505
 Vibration    18          0.683              1.701              1.503
 Vibration    19          0.723              1.586              1.190
 Vibration    20          0.734              1.556              1.125
 Vibration    21          0.736              1.552              1.116
 Vibration    22          0.739              1.543              1.098
 Vibration    23          0.767              1.468              0.959
 Vibration    24          0.799              1.385              0.830
 Vibration    25          0.832              1.306              0.724
 Vibration    26          0.841              1.285              0.698
 Vibration    27          0.862              1.235              0.642
 Vibration    28          0.894              1.165              0.568
 Vibration    29          0.919              1.111              0.518
 Vibration    30          0.947              1.054              0.468
 Vibration    31          0.948              1.051              0.465
 Vibration    32          0.976              0.997              0.422

                           ! Non-Optimized Parameters !
 Normal termination of Gaussian 16 at Fri Dec 11 20:04:40 2020.

 ----------------------------------------------------------------------
 # B3LYP/6-311++G(d,p) empiricaldispersion=gd3bj scf=xqc pop=npa geom=c
 heck
 ----------------------------------------------------------------------

 --------------------------------------
 CID_18418095_JID_8217_Energie_neutraal
 --------------------------------------
 Structure from the checkpoint file:  "JID_8217.chk"
 Charge =  0 Multiplicity = 1

 SCF Done:  E(RB3LYP) =  -1317.02041475     A.U. after   16 cycles
 Normal termination of Gaussian 16 at Fri Dec 11 20:13:23 2020.

 ----------------------------------------------------------------------
 # B3LYP/6-311++G(d,p) empiricaldispersion=gd3bj scf=xqc pop=npa geom=c
 heck
 ----------------------------------------------------------------------

 ------------------------------------
 CID_18418095_JID_8217_Energie_kation
 ------------------------------------
 Structure from the checkpoint file:  "JID_8217.chk"
 Charge =  1 Multiplicity = 2

 SCF Done:  E(UB3LYP) =  -1316.65380299     A.U. after   33 cycles
 SCF Done:  E(UB3LYP) =  -1316.65380299     a.u. after    1 cycles
 Normal termination of Gaussian 16 at Fri Dec 11 20:40:20 2020.
 Gaussian 16:  ES64L-G16RevA.03 25-Dec-2016

 ----------------------------------------------------------------------
 # B3LYP/6-311++G(d,p) empiricaldispersion=gd3bj scf=xqc pop=npa geom=c
 heck
 ----------------------------------------------------------------------

 -----------------------------------
 CID_18418095_JID_8217_Energie_anion
 -----------------------------------
 Structure from the checkpoint file:  "JID_8217.chk"
 Charge = -1 Multiplicity = 2

                         Standard orientation:
 ---------------------------------------------------------------------
 Center     Atomic      Atomic             Coordinates (Angstroms)
 Number     Number       Type             X           Y           Z
 ---------------------------------------------------------------------
      1          6           0        1.227042    3.248855   -0.276797
      2          6           0        0.416343    2.447297    0.747842
      3          6           0        0.400395    0.927559    0.465094
      4          6           0        1.843897    0.371653    0.694157
      5          6           0        2.101232   -0.482710    1.936603
      6         16           0        2.508476   -0.456286   -0.794883
      7          8           0        2.048058    0.284265   -1.971786
      8          8           0        3.922592   -0.727489   -0.577215
      9          8           0        1.774272   -1.914261   -0.774625
     10          6           0       -0.688513    0.184474    1.284277
     11          6           0       -2.089515    0.864792    1.270612
     12          6           0       -2.701760    1.155888   -0.104111
     13          6           0       -3.480534   -0.004413   -0.685625
     14          8           0       -3.782046   -1.026607   -0.107642
     15          8           0       -3.850536    0.248385   -1.961098
     16          6           0       -0.894802   -1.266291    0.893723
     17          8           0       -1.073460   -2.181004    1.655664
     18          8           0       -0.942150   -1.457884   -0.475028
     19          1           0        2.285691    2.972106   -0.296722
     20          1           0        1.171896    4.319010   -0.051718
     21          1           0        0.837817    3.089610   -1.287934
     22          1           0        0.797947    2.625005    1.763687
     23          1           0       -0.605257    2.836035    0.735286
     24          1           0        0.162317    0.812976   -0.596484
     25          1           0        2.526790    1.225208    0.739565
     26          1           0        1.511850   -1.401173    1.947682
     27          1           0        3.158434   -0.753912    1.981682
     28          1           0        1.860538    0.096225    2.834298
     29          1           0        0.826369   -1.770844   -0.996464
     30          1           0       -0.391828    0.145225    2.335201
     31          1           0       -2.777471    0.227017    1.833832
     32          1           0       -2.005891    1.799382    1.829762
     33          1           0       -3.411031    1.990040   -0.025915
     34          1           0       -1.959276    1.473072   -0.842679
     35          1           0       -4.373768   -0.521411   -2.253877
     36          1           0       -1.327289   -2.348865   -0.591888
 ---------------------------------------------------------------------

 SCF Done:  E(UB3LYP) =  -1317.01975760     A.U. after   33 cycles
 SCF Done:  E(UB3LYP) =  -1317.01975760     a.u. after    1 cycles

 The electronic state is 2-A.
 Alpha  occ. eigenvalues --  -88.98896 -19.09476 -19.08485 -19.08182 -19.04025
 Alpha  occ. eigenvalues --  -19.04020 -19.03444 -19.02728 -10.22053 -10.21946
 Alpha  occ. eigenvalues --  -10.14083 -10.11377 -10.11334 -10.09882 -10.09461
 Alpha  occ. eigenvalues --  -10.09434 -10.08904 -10.07760  -8.05044  -6.01443
 Alpha  occ. eigenvalues --   -6.01248  -6.01041  -1.06300  -1.03054  -1.02280
 Alpha  occ. eigenvalues --   -0.95516  -0.94233  -0.93396  -0.93370  -0.77179
 Alpha  occ. eigenvalues --   -0.72489  -0.68925  -0.66871  -0.61052  -0.59505
 Alpha  occ. eigenvalues --   -0.58061  -0.54561  -0.52607  -0.50744  -0.47862
 Alpha  occ. eigenvalues --   -0.46374  -0.42862  -0.42451  -0.42002  -0.41183
 Alpha  occ. eigenvalues --   -0.40460  -0.39743  -0.39317  -0.37942  -0.36864
 Alpha  occ. eigenvalues --   -0.36643  -0.35472  -0.34774  -0.33704  -0.33271
 Alpha  occ. eigenvalues --   -0.32661  -0.32074  -0.31868  -0.29979  -0.29383
 Alpha  occ. eigenvalues --   -0.28578  -0.28326  -0.27942  -0.27183  -0.26841
 Alpha  occ. eigenvalues --   -0.26294  -0.25295  -0.25151  -0.24634  -0.23789
 Alpha  occ. eigenvalues --   -0.23711  -0.22710  -0.22049  -0.19889  -0.19715
 Alpha  occ. eigenvalues --    0.03414
 Alpha virt. eigenvalues --    0.05410   0.06336   0.06418   0.07363   0.07792
 Alpha virt. eigenvalues --    0.08376   0.09100   0.09968   0.10181   0.10610
 Alpha virt. eigenvalues --    0.10762   0.11905   0.12341   0.12481   0.13111

  Beta  occ. eigenvalues --  -88.98891 -19.09440 -19.08462 -19.08138 -19.04017
  Beta  occ. eigenvalues --  -19.04015 -19.03390 -19.02711 -10.21963 -10.21937
  Beta  occ. eigenvalues --  -10.14074 -10.11379 -10.11328 -10.09845 -10.09429
  Beta  occ. eigenvalues --  -10.09416 -10.08869 -10.07747  -8.05037  -6.01434
  Beta  occ. eigenvalues --   -6.01243  -6.01036  -1.06269  -1.02954  -1.02215
  Beta  occ. eigenvalues --   -0.95467  -0.94145  -0.93379  -0.93317  -0.77142
  Beta  occ. eigenvalues --   -0.72438  -0.68886  -0.66791  -0.61011  -0.59450
  Beta  occ. eigenvalues --   -0.57938  -0.54509  -0.52511  -0.50663  -0.47777
  Beta  occ. eigenvalues --   -0.46341  -0.42823  -0.42387  -0.41938  -0.41106
  Beta  occ. eigenvalues --   -0.40423  -0.39696  -0.39273  -0.37901  -0.36834
  Beta  occ. eigenvalues --   -0.36514  -0.35437  -0.34690  -0.33633  -0.33220
  Beta  occ. eigenvalues --   -0.32615  -0.32033  -0.31816  -0.29947  -0.29349
  Beta  occ. eigenvalues --   -0.28529  -0.28285  -0.27905  -0.27126  -0.26800
  Beta  occ. eigenvalues --   -0.26227  -0.25266  -0.25066  -0.24545  -0.23753
  Beta  occ. eigenvalues --   -0.23649  -0.22694  -0.22027  -0.19845  -0.19658
  Beta virt. eigenvalues --    0.05845   0.06490   0.06948   0.07174   0.07703
  Beta virt. eigenvalues --    0.08486   0.08634   0.09477   0.10090   0.10312
  Beta virt. eigenvalues --    0.10776   0.11197   0.12143   0.12596   0.12629

 Mulliken charges and spin densities:
               1          2
     1  C    0.017255  -0.747571
     2  C   -0.507431   0.176401
     3  C   -0.830021   0.499747
     4  C   -0.829298  -0.122525
     5  C   -0.214958  -0.386676
     6  S    0.371382  -0.142211
     7  O   -0.153064   0.016184
     8  O   -0.119365  -0.005244
     9  O   -0.060517  -0.001189
    10  C    2.112769  -0.637923
    11  C   -0.158297  -0.585119
    12  C    0.353366  -0.508147
    13  C    0.413186  -0.625570
    14  O   -0.290561   0.008640
    15  O   -0.144144   0.049434
    16  C   -0.558292  -0.226441
    17  O   -0.165085   0.053161
    18  O   -0.193026   0.036909
    19  H    0.182611  -0.034299
    20  H   -0.196730   0.358620
    21  H    0.097555   0.060995
    22  H   -0.377715   0.564924
    23  H    0.060412   0.098459
    24  H    0.198244   0.084600
    25  H    0.142882   0.113521
    26  H    0.198182   0.046591
    27  H    0.140910   0.051992
    28  H   -0.037303   0.190687
    29  H    0.221813   0.078474
    30  H    0.202118   0.107744
    31  H    0.191032   0.034162
    32  H   -0.477920   0.673018
    33  H   -0.698680   0.924344
    34  H    0.296104  -0.012042
    35  H   -0.245225   0.529706
    36  H    0.057810   0.276646
 Sum of Mulliken charges =  -1.00000   1.00000

 Dipole moment (field-independent basis, Debye):
    X=              3.6275    Y=             -1.2039    Z=              0.3963  Tot=              3.8425
 Quadrupole moment (field-independent basis, Debye-Ang):
   XX=           -192.4691   YY=           -164.8934   ZZ=           -156.9498
   XY=              7.4870   XZ=              3.8531   YZ=             -3.6601

 Summary of Natural Population Analysis:

                                       Natural Population
                Natural  -----------------------------------------------
    Atom  No    Charge         Core      Valence    Rydberg      Total
 -----------------------------------------------------------------------
      C    1   -0.28390      0.99966     2.27879    0.00545     3.28390
      C    2   -0.19018      0.99961     2.18097    0.00960     3.19018
      C    3   -0.12582      0.99955     2.11285    0.01342     3.12582
      C    4   -0.19716      0.99953     2.18201    0.01562     3.19716
      C    5   -0.30092      0.99963     2.29394    0.00735     3.30092
      S    6    1.12767      4.99929     1.77123    0.10182     6.87233
      O    7   -0.45737      0.99990     3.45211    0.00536     4.45737
      O    8   -0.45506      0.99990     3.44960    0.00556     4.45506
      O    9   -0.44412      0.99990     3.43816    0.00606     4.44412
      C   10   -0.15525      0.99951     2.14249    0.01325     3.15525
      C   11   -0.18801      0.99961     2.17764    0.01076     3.18801
      C   12   -0.24654      0.99956     2.23742    0.00956     3.24654
      C   13    0.41417      0.99972     1.56090    0.02521     2.58583
      O   14   -0.31301      0.99987     3.30696    0.00618     4.31301
      O   15   -0.34246      0.99987     3.33619    0.00640     4.34246
      C   16    0.42702      0.99966     1.54695    0.02637     2.57298
      O   17   -0.28880      0.99986     3.28309    0.00584     4.28880
      O   18   -0.37152      0.99988     3.36325    0.00839     4.37152
      H   19    0.09417      0.00000     0.40487    0.00096     0.40583
      H   20    0.10101      0.00000     0.39830    0.00068     0.39899
      H   21    0.10219      0.00000     0.39697    0.00084     0.39781
      H   22    0.09676      0.00000     0.40172    0.00152     0.40324
      H   23    0.10524      0.00000     0.39294    0.00182     0.39476
      H   24    0.11650      0.00000     0.38024    0.00326     0.38350
      H   25    0.11735      0.00000     0.38117    0.00148     0.38265
      H   26    0.11186      0.00000     0.38713    0.00101     0.38814
      H   27    0.11276      0.00000     0.38642    0.00082     0.38724
      H   28    0.10751      0.00000     0.39155    0.00094     0.39249
      H   29    0.25372      0.00000     0.24183    0.00445     0.24628
      H   30    0.11674      0.00000     0.38167    0.00159     0.38326
      H   31    0.11468      0.00000     0.38399    0.00133     0.38532
      H   32    0.11061      0.00000     0.38714    0.00224     0.38939
      H   33    0.12378      0.00000     0.37412    0.00210     0.37622
      H   34    0.11477      0.00000     0.38361    0.00162     0.38523
      H   35    0.24250      0.00000     0.24830    0.00920     0.25750
      H   36    0.24912      0.00000     0.24728    0.00360     0.25088
 =======================================================================
   * Total *   -0.00000     21.99451    52.68380    0.32169    75.00000

 Normal termination of Gaussian 16 at Fri Dec 11 21:06:54 2020.
