 Gaussian 16, Revision A.03,

 -----------------------------------------------------------
 # opt freq B3LYP/6-31G(d) empiricaldispersion=gd3bj scf=xqc
 -----------------------------------------------------------

 ------------------------------
 CID_80555752_JID_2624_neutraal
 ------------------------------
 Symbolic Z-matrix:
 Charge =  0 Multiplicity = 1

 SCF Done:  E(RB3LYP) =  -501.350060713     A.U. after   14 cycles
 SCF Done:  E(RB3LYP) =  -501.368216091     A.U. after   12 cycles
 SCF Done:  E(RB3LYP) =  -501.367881192     A.U. after   13 cycles
 SCF Done:  E(RB3LYP) =  -501.366962902     A.U. after   12 cycles
 SCF Done:  E(RB3LYP) =  -501.365291320     A.U. after   12 cycles
 SCF Done:  E(RB3LYP) =  -501.368678155     A.U. after    9 cycles
 SCF Done:  E(RB3LYP) =  -501.369881170     A.U. after   12 cycles
 SCF Done:  E(RB3LYP) =  -501.369933045     A.U. after   12 cycles
 SCF Done:  E(RB3LYP) =  -501.369783392     A.U. after   10 cycles
 SCF Done:  E(RB3LYP) =  -501.370088741     A.U. after   11 cycles
 SCF Done:  E(RB3LYP) =  -501.370200950     A.U. after   11 cycles
 SCF Done:  E(RB3LYP) =  -501.370202850     A.U. after    8 cycles
 SCF Done:  E(RB3LYP) =  -501.370204936     A.U. after    8 cycles
 SCF Done:  E(RB3LYP) =  -501.370205380     A.U. after    8 cycles
 SCF Done:  E(RB3LYP) =  -501.370205413     A.U. after    7 cycles
 Optimization completed.
    -- Stationary point found.
 Normal termination of Gaussian 16 at Wed Dec  9 17:56:55 2020.

 --------------------------------------------------------------------
 #N Geom=AllCheck Guess=TCheck SCRF=Check GenChk RB3LYP/6-31G(d) Freq
 --------------------------------------------------------------------

 Structure from the checkpoint file:  "JID_2624.chk"
 ------------------------------
 CID_80555752_JID_2624_neutraal
 ------------------------------
 Charge =  0 Multiplicity = 1

 SCF Done:  E(RB3LYP) =  -501.370205413     A.U. after    1 cycles

  Exact polarizability: 123.377   0.229 122.705   2.475  -1.364  88.493
 Approx polarizability: 146.921  -1.538 186.882   1.674  -2.605 137.032

                      1                      2                      3
                      A                      A                      A
 Frequencies --     27.8905                44.4411                82.0736
 Red. masses --      4.5955                 3.5350                 3.3233
 Frc consts  --      0.0021                 0.0041                 0.0132
 IR Inten    --      0.3038                 0.3224                 1.0645

                      4                      5                      6
                      A                      A                      A
 Frequencies --    119.5493               154.8381               205.0245
 Red. masses --      3.4812                 3.1651                 3.2204
 Frc consts  --      0.0293                 0.0447                 0.0798
 IR Inten    --      0.2436                 0.7607                 0.0983

                      7                      8                      9
                      A                      A                      A
 Frequencies --    215.4222               273.4748               291.2476
 Red. masses --      2.3610                 2.1987                 2.7832
 Frc consts  --      0.0646                 0.0969                 0.1391
 IR Inten    --      0.9319                 1.9913                 0.9981

                     10                     11                     12
                      A                      A                      A
 Frequencies --    324.1684               357.1853               360.6886
 Red. masses --      2.0229                 2.7137                 2.4412
 Frc consts  --      0.1252                 0.2040                 0.1871
 IR Inten    --      2.4015                 4.7910                 2.6736

                     13                     14                     15
                      A                      A                      A
 Frequencies --    429.3431               440.1375               499.0215
 Red. masses --      1.8947                 3.8502                 2.2181
 Frc consts  --      0.2058                 0.4395                 0.3254
 IR Inten    --      1.6613                 5.9449                 5.5597

                     16                     17                     18
                      A                      A                      A
 Frequencies --    533.6127               598.4657               608.4893
 Red. masses --      3.4676                 1.2499                 1.8797
 Frc consts  --      0.5817                 0.2638                 0.4101
 IR Inten    --      2.1841                38.0643                22.4453

                     19                     20                     21
                      A                      A                      A
 Frequencies --    622.3337               638.7310               753.8242
 Red. masses --      1.4618                 1.9885                 1.7396
 Frc consts  --      0.3336                 0.4780                 0.5824
 IR Inten    --     32.0607                30.8012                40.6136

                     22                     23                     24
                      A                      A                      A
 Frequencies --    794.1267               814.5147               850.0258
 Red. masses --      1.5496                 2.4531                 2.0697
 Frc consts  --      0.5758                 0.9589                 0.8811
 IR Inten    --     72.5500                31.2276                 0.2651

                     25                     26                     27
                      A                      A                      A
 Frequencies --    858.3950               874.9624               886.7960
 Red. masses --      2.4673                 1.7838                 1.9632
 Frc consts  --      1.0712                 0.8046                 0.9096
 IR Inten    --      0.9201                27.0650                 2.3624

                     28                     29                     30
                      A                      A                      A
 Frequencies --    913.1142               936.8594               968.7200
 Red. masses --      1.9216                 1.6163                 1.9610
 Frc consts  --      0.9440                 0.8358                 1.0842
 IR Inten    --     18.5090                18.2822                 2.2652

                     31                     32                     33
                      A                      A                      A
 Frequencies --   1016.4845              1028.2253              1054.8480
 Red. masses --      1.7570                 2.2956                 2.1973
 Frc consts  --      1.0696                 1.4300                 1.4405
 IR Inten    --      5.0337                 6.2157                 3.5837

                     34                     35                     36
                      A                      A                      A
 Frequencies --   1074.3463              1088.9631              1100.7669
 Red. masses --      1.6511                 1.9586                 1.7372
 Frc consts  --      1.1228                 1.3684                 1.2402
 IR Inten    --      2.8762                 4.4063                 3.7298

                     37                     38                     39
                      A                      A                      A
 Frequencies --   1124.8658              1153.4064              1173.5452
 Red. masses --      2.1472                 2.5131                 2.1813
 Frc consts  --      1.6008                 1.9698                 1.7700
 IR Inten    --      5.2009                17.6365                20.8771

                     40                     41                     42
                      A                      A                      A
 Frequencies --   1179.2177              1201.1613              1219.6420
 Red. masses --      2.9560                 1.2823                 1.2908
 Frc consts  --      2.4219                 1.0900                 1.1313
 IR Inten    --     28.8348                 8.8660                 3.1462

                     43                     44                     45
                      A                      A                      A
 Frequencies --   1234.8962              1250.8216              1303.2079
 Red. masses --      1.2353                 1.1664                 1.1997
 Frc consts  --      1.1099                 1.0752                 1.2004
 IR Inten    --      0.3392                 3.7482                 8.9721

                     46                     47                     48
                      A                      A                      A
 Frequencies --   1325.7849              1329.3995              1350.8942
 Red. masses --      1.2238                 1.2832                 1.3931
 Frc consts  --      1.2674                 1.3362                 1.4979
 IR Inten    --      2.2915                12.3252                 1.5066

                     49                     50                     51
                      A                      A                      A
 Frequencies --   1361.8380              1366.9955              1388.3705
 Red. masses --      1.2999                 1.3685                 1.4192
 Frc consts  --      1.4204                 1.5068                 1.6118
 IR Inten    --      8.0318                 4.8308                 9.4542

                     52                     53                     54
                      A                      A                      A
 Frequencies --   1392.4915              1404.8325              1418.0217
 Red. masses --      1.4376                 1.3824                 1.3116
 Frc consts  --      1.6423                 1.6075                 1.5538
 IR Inten    --     24.7820                 0.9780                 5.3780

                     55                     56                     57
                      A                      A                      A
 Frequencies --   1426.5413              1448.9665              1494.3362
 Red. masses --      1.3313                 1.4546                 1.0970
 Frc consts  --      1.5963                 1.7993                 1.4433
 IR Inten    --      1.5762                 4.6695                 4.0580

                     58                     59                     60
                      A                      A                      A
 Frequencies --   1500.1148              1507.2139              1513.6066
 Red. masses --      1.2696                 1.1003                 1.0934
 Frc consts  --      1.6833                 1.4727                 1.4759
 IR Inten    --      1.8771                 3.3665                 6.4287

                     61                     62                     63
                      A                      A                      A
 Frequencies --   1521.7542              1527.7307              1530.3465
 Red. masses --      1.1000                 1.2133                 1.1183
 Frc consts  --      1.5008                 1.6684                 1.5430
 IR Inten    --      8.0533                41.1490                 1.5798

                     64                     65                     66
                      A                      A                      A
 Frequencies --   1543.0080              1548.3268              2236.0922
 Red. masses --      1.0983                 1.0871                 5.9889
 Frc consts  --      1.5406                 1.5355                17.6433
 IR Inten    --      6.4084                 5.1385                 1.9686

                     67                     68                     69
                      A                      A                      A
 Frequencies --   2911.4855              2920.1043              2961.9501
 Red. masses --      1.0743                 1.0733                 1.0717
 Frc consts  --      5.3655                 5.3923                 5.5398
 IR Inten    --     45.8216               131.6340                52.2901

                     70                     71                     72
                      A                      A                      A
 Frequencies --   3024.1648              3030.4271              3043.3589
 Red. masses --      1.0665                 1.0726                 1.0769
 Frc consts  --      5.7468                 5.8035                 5.8766
 IR Inten    --     22.3812                35.8548                63.3839

                     73                     74                     75
                      A                      A                      A
 Frequencies --   3045.4793              3052.9781              3059.2949
 Red. masses --      1.0638                 1.0678                 1.0836
 Frc consts  --      5.8134                 5.8639                 5.9754
 IR Inten    --      7.6371                14.4096                59.7985

                     76                     77                     78
                      A                      A                      A
 Frequencies --   3066.6716              3079.7774              3087.3923
 Red. masses --      1.0962                 1.0873                 1.1029
 Frc consts  --      6.0739                 6.0763                 6.1942
 IR Inten    --     57.5008                62.3209                13.4023

                     79                     80                     81
                      A                      A                      A
 Frequencies --   3088.5697              3096.0788              3122.0434
 Red. masses --      1.0875                 1.1032                 1.0931
 Frc consts  --      6.1124                 6.2303                 6.2774
 IR Inten    --     23.5733                52.8836                32.6662

                     82                     83                     84
                      A                      A                      A
 Frequencies --   3496.0543              3499.3838              3502.3392
 Red. masses --      1.1580                 1.0745                 1.0747
 Frc consts  --      8.3392                 7.7523                 7.7670
 IR Inten    --     50.5393                 3.0520                 1.5019

 - Thermochemistry -
 -------------------
 Temperature   298.150 Kelvin.  Pressure   1.00000 Atm.
 Atom     1 has atomic number  6 and mass  12.00000

 Molecular mass:   166.14700 amu.
 Principal axes and moments of inertia in atomic units:
                           1         2         3
     Eigenvalues --  1036.828763623.323644263.48941
           X            0.99996  -0.00885   0.00180
           Y            0.00885   0.99995  -0.00416
           Z           -0.00177   0.00418   0.99999
 This molecule is an asymmetric top.
 Rotational symmetry number  1.
 Warning -- assumption of classical behavior for rotation
           may cause significant error
 Rotational temperatures (Kelvin)      0.08354     0.02390     0.02032
 Rotational constants (GHZ):           1.74064     0.49809     0.42330
 Zero-point vibrational energy     717197.7 (Joules/Mol)
                                  171.41437 (Kcal/Mol)
 Warning -- explicit consideration of  18 degrees of freedom as
           vibrations may cause significant error
 Vibrational temperatures:     40.13    63.94   118.09   172.00   222.78
          (Kelvin)            294.98   309.94   393.47   419.04   466.41
                              513.91   518.95   617.73   633.26   717.98
                              767.75   861.06   875.48   895.40   918.99
                             1084.58  1142.57  1171.90  1223.00  1235.04
                             1258.88  1275.90  1313.77  1347.93  1393.77
                             1462.49  1479.39  1517.69  1545.74  1566.77
                             1583.76  1618.43  1659.49  1688.47  1696.63
                             1728.20  1754.79  1776.74  1799.65  1875.03
                             1907.51  1912.71  1943.64  1959.38  1966.80
                             1997.56  2003.48  2021.24  2040.22  2052.47
                             2084.74  2150.02  2158.33  2168.54  2177.74
                             2189.46  2198.06  2201.83  2220.04  2227.70
                             3217.24  4188.98  4201.38  4261.59  4351.10
                             4360.11  4378.71  4381.77  4392.55  4401.64
                             4412.26  4431.11  4442.07  4443.76  4454.57
                             4491.92  5030.04  5034.83  5039.08

 Zero-point correction=                           0.273166 (Hartree/Particle)
 Thermal correction to Energy=                    0.285571
 Thermal correction to Enthalpy=                  0.286515
 Thermal correction to Gibbs Free Energy=         0.233761
 Sum of electronic and zero-point Energies=           -501.097039
 Sum of electronic and thermal Energies=              -501.084635
 Sum of electronic and thermal Enthalpies=            -501.083691
 Sum of electronic and thermal Free Energies=         -501.136444

                     E (Thermal)             CV                S
                      KCal/Mol        Cal/Mol-Kelvin    Cal/Mol-Kelvin
 Total                  179.198             47.886            111.029
 Electronic               0.000              0.000              0.000
 Translational            0.889              2.981             41.231
 Rotational               0.889              2.981             31.149
 Vibrational            177.421             41.925             38.648
 Vibration     1          0.593              1.984              5.974
 Vibration     2          0.595              1.980              5.051
 Vibration     3          0.600              1.961              3.841
 Vibration     4          0.609              1.933              3.108
 Vibration     5          0.620              1.897              2.612
 Vibration     6          0.640              1.833              2.088
 Vibration     7          0.645              1.818              1.997
 Vibration     8          0.676              1.722              1.574
 Vibration     9          0.687              1.690              1.467
 Vibration    10          0.709              1.627              1.289
 Vibration    11          0.732              1.560              1.134
 Vibration    12          0.735              1.553              1.119
 Vibration    13          0.791              1.406              0.861
 Vibration    14          0.800              1.383              0.826
 Vibration    15          0.854              1.252              0.661
 Vibration    16          0.889              1.176              0.579
 Vibration    17          0.956              1.035              0.452
 Vibration    18          0.967              1.014              0.435

 Optimization completed.
    -- Stationary point found.
 Normal termination of Gaussian 16 at Wed Dec  9 18:05:36 2020.

 ----------------------------------------------------------------------
 # B3LYP/6-311++G(d,p) empiricaldispersion=gd3bj scf=xqc pop=npa geom=c
 heck
 ----------------------------------------------------------------------

 --------------------------------------
 CID_80555752_JID_2624_Energie_neutraal
 --------------------------------------
 Structure from the checkpoint file:  "JID_2624.chk"
 Charge =  0 Multiplicity = 1

 SCF Done:  E(RB3LYP) =  -501.518758850     A.U. after   14 cycles
 Normal termination of Gaussian 16 at Wed Dec  9 18:09:28 2020.

 ----------------------------------------------------------------------
 # B3LYP/6-311++G(d,p) empiricaldispersion=gd3bj scf=xqc pop=npa geom=c
 heck
 ----------------------------------------------------------------------

 ------------------------------------
 CID_80555752_JID_2624_Energie_kation
 ------------------------------------
 Structure from the checkpoint file:  "JID_2624.chk"
 Charge =  1 Multiplicity = 2

 SCF Done:  E(UB3LYP) =  -501.229922337     A.U. after   21 cycles
 Normal termination of Gaussian 16 at Wed Dec  9 18:17:58 2020.
 Gaussian 16:  ES64L-G16RevA.03 25-Dec-2016

 ----------------------------------------------------------------------
 # B3LYP/6-311++G(d,p) empiricaldispersion=gd3bj scf=xqc pop=npa geom=c
 heck
 ----------------------------------------------------------------------

 -----------------------------------
 CID_80555752_JID_2624_Energie_anion
 -----------------------------------
 Structure from the checkpoint file:  "JID_2624.chk"
 Charge = -1 Multiplicity = 2

                         Standard orientation:
 ---------------------------------------------------------------------
 Center     Atomic      Atomic             Coordinates (Angstroms)
 Number     Number       Type             X           Y           Z
 ---------------------------------------------------------------------
      1          6           0        3.359202    2.013927    0.003612
      2          6           0        3.424932    0.807440    0.005828
      3          6           0        3.436077   -0.656290    0.011601
      4          6           0        2.033633   -1.231630    0.275138
      5          7           0        1.137552   -0.874979   -0.812456
      6          6           0       -0.254119   -1.274220   -0.633463
      7          6           0       -0.982318   -0.743100    0.624945
      8          6           0       -2.488076   -1.071105    0.572425
      9          6           0       -3.234513   -0.202015   -0.453711
     10          6           0       -2.914573    1.281469   -0.250484
     11          7           0       -1.464386    1.480895   -0.288971
     12          6           0       -0.804896    0.771012    0.807746
     13          1           0        3.332624    3.079568   -0.001371
     14          1           0        3.793449   -1.026428   -0.957338
     15          1           0        4.131745   -1.018907    0.778930
     16          1           0        2.101868   -2.326363    0.323070
     17          1           0        1.702924   -0.886042    1.270766
     18          1           0        1.179624    0.130165   -0.971101
     19          1           0       -0.788353   -0.944666   -1.528051
     20          1           0       -0.297089   -2.372598   -0.620709
     21          1           0       -0.556286   -1.235290    1.509463
     22          1           0       -2.638559   -2.135649    0.349916
     23          1           0       -2.922028   -0.894669    1.566631
     24          1           0       -2.949791   -0.486001   -1.473064
     25          1           0       -4.316055   -0.362462   -0.366298
     26          1           0       -3.373636    1.882716   -1.043422
     27          1           0       -3.354131    1.613031    0.712566
     28          1           0       -1.253295    2.474211   -0.229585
     29          1           0       -1.213982    1.054683    1.798302
     30          1           0        0.256718    1.040352    0.809467
 ---------------------------------------------------------------------

 SCF Done:  E(UB3LYP) =  -501.503446359     A.U. after   33 cycles
 SCF Done:  E(UB3LYP) =  -501.503446359     a.u. after    1 cycles

 The electronic state is 2-A.
 Alpha  occ. eigenvalues --  -14.19384 -14.19227 -10.10140 -10.10046 -10.08671
 Alpha  occ. eigenvalues --  -10.08387 -10.08297 -10.08283 -10.06946 -10.06559
 Alpha  occ. eigenvalues --  -10.06448 -10.06356  -0.81501  -0.80187  -0.70500
 Alpha  occ. eigenvalues --   -0.68519  -0.65363  -0.63046  -0.56889  -0.53435
 Alpha  occ. eigenvalues --   -0.53105  -0.49914  -0.43916  -0.43268  -0.41399
 Alpha  occ. eigenvalues --   -0.39519  -0.37673  -0.37591  -0.35185  -0.34319
 Alpha  occ. eigenvalues --   -0.32577  -0.31373  -0.31082  -0.29949  -0.29230
 Alpha  occ. eigenvalues --   -0.27764  -0.27188  -0.25151  -0.24538  -0.23229
 Alpha  occ. eigenvalues --   -0.21167  -0.20711  -0.18303  -0.18099  -0.12911
 Alpha  occ. eigenvalues --   -0.12181   0.04420
 Alpha virt. eigenvalues --    0.06366   0.06592   0.07908   0.08177   0.08661
 Alpha virt. eigenvalues --    0.09368   0.10129   0.10351   0.10691   0.11199
 Alpha virt. eigenvalues --    0.11908   0.12370   0.12632   0.12960   0.13488

  Beta  occ. eigenvalues --  -14.19379 -14.19204 -10.10120 -10.10025 -10.08648
  Beta  occ. eigenvalues --  -10.08380 -10.08286 -10.08279 -10.06917 -10.06555
  Beta  occ. eigenvalues --  -10.06432 -10.06346  -0.81479  -0.80162  -0.70475
  Beta  occ. eigenvalues --   -0.68488  -0.65330  -0.63016  -0.56852  -0.53378
  Beta  occ. eigenvalues --   -0.53055  -0.49872  -0.43860  -0.43217  -0.41330
  Beta  occ. eigenvalues --   -0.39496  -0.37649  -0.37554  -0.35154  -0.34285
  Beta  occ. eigenvalues --   -0.32548  -0.31329  -0.31055  -0.29909  -0.29195
  Beta  occ. eigenvalues --   -0.27737  -0.27153  -0.25127  -0.24510  -0.23201
  Beta  occ. eigenvalues --   -0.21134  -0.20675  -0.18272  -0.18076  -0.12870
  Beta  occ. eigenvalues --   -0.12152
  Beta virt. eigenvalues --    0.06587   0.07190   0.07621   0.08297   0.08809
  Beta virt. eigenvalues --    0.09268   0.09578   0.10477   0.10789   0.10989
  Beta virt. eigenvalues --    0.11555   0.12190   0.12503   0.12851   0.13022

 Mulliken charges and spin densities:
               1          2
     1  C   -4.132533   2.708238
     2  C    4.308643  -2.946136
     3  C    0.657213  -1.321923
     4  C    0.140016  -0.260339
     5  N   -0.011938   0.002330
     6  C   -0.529953  -0.170764
     7  C   -0.122470   0.818029
     8  C    0.175157  -0.819555
     9  C   -0.138165  -0.143574
    10  C    0.673797  -1.005454
    11  N   -0.341132   0.221756
    12  C    0.304050  -0.938761
    13  H   -1.151989   1.306033
    14  H    0.152483   0.026486
    15  H   -0.218776   0.398508
    16  H   -0.367391   0.519553
    17  H    0.033491   0.060341
    18  H    0.301853  -0.109598
    19  H    0.052114   0.118707
    20  H    0.057618   0.104715
    21  H   -0.184252   0.403107
    22  H   -0.320412   0.455121
    23  H    0.039413   0.108223
    24  H    0.267055  -0.150322
    25  H   -0.307988   0.467936
    26  H   -0.425784   0.586370
    27  H   -0.068200   0.186611
    28  H   -0.100325   0.361333
    29  H   -0.523488   0.635195
    30  H    0.781893  -0.622165
 Sum of Mulliken charges =  -1.00000   1.00000

 Dipole moment (field-independent basis, Debye):
    X=              0.0719    Y=             -3.0292    Z=             -1.4844  Tot=              3.3741
 Quadrupole moment (field-independent basis, Debye-Ang):
   XX=           -147.4212   YY=           -128.7004   ZZ=           -107.7641
   XY=             -2.8298   XZ=             -0.0835   YZ=              2.4166

 Summary of Natural Population Analysis:

                                       Natural Population
                Natural  -----------------------------------------------
    Atom  No    Charge         Core      Valence    Rydberg      Total
 -----------------------------------------------------------------------
      C    1   -0.12178      0.99926     2.11847    0.00405     3.12178
      C    2   -0.00540      0.99938     1.99782    0.00819     3.00540
      C    3   -0.23335      0.99956     2.22400    0.00978     3.23335
      C    4   -0.07908      0.99963     2.06795    0.01151     3.07908
      N    5   -0.34322      0.99975     2.83288    0.01060     3.84322
      C    6   -0.08448      0.99960     2.07249    0.01239     3.08448
      C    7   -0.12414      0.99958     2.11374    0.01081     3.12414
      C    8   -0.18879      0.99961     2.17977    0.00941     3.18879
      C    9   -0.19466      0.99962     2.18657    0.00847     3.19466
      C   10   -0.08591      0.99962     2.07483    0.01146     3.08591
      N   11   -0.34465      0.99974     2.83239    0.01252     3.84465
      C   12   -0.09155      0.99960     2.07927    0.01268     3.09155
      H   13    0.11358      0.00000     0.38427    0.00215     0.38642
      H   14    0.11301      0.00000     0.38544    0.00155     0.38699
      H   15    0.11376      0.00000     0.38479    0.00146     0.38624
      H   16    0.09320      0.00000     0.40533    0.00147     0.40680
      H   17    0.08173      0.00000     0.41631    0.00196     0.41827
      H   18    0.17835      0.00000     0.31765    0.00400     0.32165
      H   19    0.09810      0.00000     0.40038    0.00151     0.40190
      H   20    0.08934      0.00000     0.40961    0.00105     0.41066
      H   21    0.09867      0.00000     0.39951    0.00182     0.40133
      H   22    0.09831      0.00000     0.40060    0.00109     0.40169
      H   23    0.09757      0.00000     0.40097    0.00146     0.40243
      H   24    0.09430      0.00000     0.40437    0.00133     0.40570
      H   25    0.09882      0.00000     0.40017    0.00101     0.40118
      H   26    0.09477      0.00000     0.40401    0.00122     0.40523
      H   27    0.07628      0.00000     0.42169    0.00203     0.42372
      H   28    0.17785      0.00000     0.31882    0.00333     0.32215
      H   29    0.08076      0.00000     0.41748    0.00176     0.41924
      H   30    0.09862      0.00000     0.39915    0.00222     0.40138
 =======================================================================
   * Total *   -0.00000     11.99496    33.85076    0.15428    46.00000

 Normal termination of Gaussian 16 at Wed Dec  9 18:29:40 2020.
