 Gaussian 16, Revision A.03,

 -----------------------------------------------------------
 # opt freq B3LYP/6-31G(d) empiricaldispersion=gd3bj scf=xqc
 -----------------------------------------------------------

 -------------------------------
 CID_143378485_JID_5891_neutraal
 -------------------------------
 Symbolic Z-matrix:
 Charge =  0 Multiplicity = 1

 SCF Done:  E(RB3LYP) =  -619.327388528     A.U. after   14 cycles
 SCF Done:  E(RB3LYP) =  -619.329204328     A.U. after   13 cycles
 SCF Done:  E(RB3LYP) =  -619.328645113     A.U. after   13 cycles
 SCF Done:  E(RB3LYP) =  -619.331912118     A.U. after   12 cycles
 SCF Done:  E(RB3LYP) =  -619.333121510     A.U. after   12 cycles
 SCF Done:  E(RB3LYP) =  -619.334076210     A.U. after   12 cycles
 SCF Done:  E(RB3LYP) =  -619.334357782     A.U. after   11 cycles
 SCF Done:  E(RB3LYP) =  -619.334562254     A.U. after   11 cycles
 SCF Done:  E(RB3LYP) =  -619.334683496     A.U. after   11 cycles
 SCF Done:  E(RB3LYP) =  -619.334831757     A.U. after   12 cycles
 SCF Done:  E(RB3LYP) =  -619.335090538     A.U. after   11 cycles
 SCF Done:  E(RB3LYP) =  -619.335091985     A.U. after    9 cycles
 SCF Done:  E(RB3LYP) =  -619.335091434     A.U. after    9 cycles
 SCF Done:  E(RB3LYP) =  -619.335092433     A.U. after    9 cycles
 SCF Done:  E(RB3LYP) =  -619.335092461     A.U. after    6 cycles
 SCF Done:  E(RB3LYP) =  -619.335092466     A.U. after    7 cycles
 Optimization completed.
    -- Stationary point found.
 Normal termination of Gaussian 16 at Thu Dec 10 17:52:58 2020.

 --------------------------------------------------------------------
 #N Geom=AllCheck Guess=TCheck SCRF=Check GenChk RB3LYP/6-31G(d) Freq
 --------------------------------------------------------------------

 Structure from the checkpoint file:  "JID_5891.chk"
 -------------------------------
 CID_143378485_JID_5891_neutraal
 -------------------------------
 Charge =  0 Multiplicity = 1

 SCF Done:  E(RB3LYP) =  -619.335092466     A.U. after    1 cycles

  Exact polarizability: 279.244  21.889 143.540  12.880  -8.035 106.142
 Approx polarizability: 377.188  53.451 211.579  17.802 -13.746 160.578

                      1                      2                      3
                      A                      A                      A
 Frequencies --     12.6939                36.9030                39.0087
 Red. masses --      4.1483                 2.9443                 3.2659
 Frc consts  --      0.0004                 0.0024                 0.0029
 IR Inten    --      0.0571                 0.1250                 0.3837

                      4                      5                      6
                      A                      A                      A
 Frequencies --     48.1218                95.9457               103.9629
 Red. masses --      3.2746                 2.4637                 3.1277
 Frc consts  --      0.0045                 0.0134                 0.0199
 IR Inten    --      0.2790                 0.6284                 0.2473

                      7                      8                      9
                      A                      A                      A
 Frequencies --    125.7535               134.2511               143.2352
 Red. masses --      2.9593                 2.5497                 2.6831
 Frc consts  --      0.0276                 0.0271                 0.0324
 IR Inten    --      0.5339                 0.2252                 0.0651

                     10                     11                     12
                      A                      A                      A
 Frequencies --    166.5510               188.9225               212.3166
 Red. masses --      2.7676                 2.4169                 2.1005
 Frc consts  --      0.0452                 0.0508                 0.0558
 IR Inten    --      2.1639                 0.3403                 1.6907

                     13                     14                     15
                      A                      A                      A
 Frequencies --    225.4287               242.7325               262.8801
 Red. masses --      1.4797                 1.5303                 1.2381
 Frc consts  --      0.0443                 0.0531                 0.0504
 IR Inten    --      0.3159                 1.6231                39.4367

                     16                     17                     18
                      A                      A                      A
 Frequencies --    280.7432               286.4216               309.4618
 Red. masses --      2.3142                 1.8048                 2.3903
 Frc consts  --      0.1075                 0.0872                 0.1349
 IR Inten    --      0.9345                 3.1389                 2.6551

                     19                     20                     21
                      A                      A                      A
 Frequencies --    322.7324               344.7881               386.9516
 Red. masses --      1.7373                 2.4924                 2.3395
 Frc consts  --      0.1066                 0.1746                 0.2064
 IR Inten    --      4.9496                 5.9378                 1.3795

                     22                     23                     24
                      A                      A                      A
 Frequencies --    432.6838               448.1175               464.4948
 Red. masses --      2.8313                 2.3177                 2.7531
 Frc consts  --      0.3123                 0.2742                 0.3500
 IR Inten    --      1.1421                 0.9661                13.3927

                     25                     26                     27
                      A                      A                      A
 Frequencies --    528.5230               576.5229               636.4798
 Red. masses --      3.2929                 2.9446                 3.1414
 Frc consts  --      0.5419                 0.5767                 0.7498
 IR Inten    --      0.7815                 1.1145                 1.6835

                     28                     29                     30
                      A                      A                      A
 Frequencies --    680.4804               734.9268               744.8719
 Red. masses --      1.4049                 2.4908                 1.7370
 Frc consts  --      0.3833                 0.7926                 0.5678
 IR Inten    --     10.4235                15.7697                89.9141

                     31                     32                     33
                      A                      A                      A
 Frequencies --    776.5164               791.5709               816.4444
 Red. masses --      1.7144                 1.6388                 1.7227
 Frc consts  --      0.6091                 0.6050                 0.6766
 IR Inten    --      8.5947                26.2957                83.5692

                     34                     35                     36
                      A                      A                      A
 Frequencies --    855.9744               869.0301               888.4605
 Red. masses --      1.9475                 1.3299                 1.9121
 Frc consts  --      0.8407                 0.5917                 0.8893
 IR Inten    --      3.2417                61.9333                24.3934

                     37                     38                     39
                      A                      A                      A
 Frequencies --    910.7906               913.6196               921.0817
 Red. masses --      1.6364                 1.5868                 1.2845
 Frc consts  --      0.7998                 0.7804                 0.6421
 IR Inten    --     13.9300                20.8289                18.4474

                     40                     41                     42
                      A                      A                      A
 Frequencies --    927.6099               929.9532               970.2816
 Red. masses --      1.6668                 1.5849                 1.8303
 Frc consts  --      0.8450                 0.8075                 1.0152
 IR Inten    --     48.0773                27.5762                 7.9341

                     43                     44                     45
                      A                      A                      A
 Frequencies --    995.9244              1005.1964              1030.1099
 Red. masses --      1.4212                 1.2806                 1.1080
 Frc consts  --      0.8306                 0.7623                 0.6927
 IR Inten    --      6.3764                 3.6780                13.8618

                     46                     47                     48
                      A                      A                      A
 Frequencies --   1047.0997              1054.2897              1073.1440
 Red. masses --      1.6175                 2.6157                 2.6020
 Frc consts  --      1.0449                 1.7130                 1.7655
 IR Inten    --      7.4460                 6.5480                 7.0358

                     49                     50                     51
                      A                      A                      A
 Frequencies --   1093.8737              1105.2987              1136.3582
 Red. masses --      2.8269                 1.5944                 1.9527
 Frc consts  --      1.9930                 1.1476                 1.4856
 IR Inten    --      3.4497                 2.0361                 0.4213

                     52                     53                     54
                      A                      A                      A
 Frequencies --   1152.5347              1166.7466              1178.1476
 Red. masses --      2.0797                 2.6358                 1.5849
 Frc consts  --      1.6277                 2.1141                 1.2961
 IR Inten    --     52.0058                36.9426                 4.7131

                     55                     56                     57
                      A                      A                      A
 Frequencies --   1192.4435              1202.4930              1258.2693
 Red. masses --      1.9734                 1.7806                 1.3526
 Frc consts  --      1.6532                 1.5170                 1.2617
 IR Inten    --      2.6123                 0.1486                 2.4305

                     58                     59                     60
                      A                      A                      A
 Frequencies --   1274.3607              1304.7732              1312.8407
 Red. masses --      1.8522                 1.2387                 1.2042
 Frc consts  --      1.7722                 1.2424                 1.2229
 IR Inten    --      4.7365                 3.3192                 2.0395

                     61                     62                     63
                      A                      A                      A
 Frequencies --   1329.7001              1336.5279              1339.0060
 Red. masses --      1.2770                 1.2930                 1.2975
 Frc consts  --      1.3303                 1.3608                 1.3707
 IR Inten    --      3.9267                 4.7788                12.1749

                     64                     65                     66
                      A                      A                      A
 Frequencies --   1361.2376              1378.6016              1389.7786
 Red. masses --      1.1616                 1.2279                 1.3179
 Frc consts  --      1.2682                 1.3750                 1.4998
 IR Inten    --      8.1778                 0.9308                14.9023

                     67                     68                     69
                      A                      A                      A
 Frequencies --   1400.7877              1406.1227              1420.7559
 Red. masses --      1.2855                 1.4108                 1.3512
 Frc consts  --      1.4862                 1.6434                 1.6070
 IR Inten    --      4.7511                 3.0222                 3.7284

                     70                     71                     72
                      A                      A                      A
 Frequencies --   1434.9883              1442.6046              1443.7940
 Red. masses --      1.2573                 1.2730                 1.4802
 Frc consts  --      1.5255                 1.5609                 1.8180
 IR Inten    --      6.2127                10.2680                26.3617

                     73                     74                     75
                      A                      A                      A
 Frequencies --   1463.7116              1498.5110              1503.0634
 Red. masses --      1.3466                 1.4381                 1.1135
 Frc consts  --      1.6999                 1.9026                 1.4822
 IR Inten    --      4.0961                 1.2009                 1.4847

                     76                     77                     78
                      A                      A                      A
 Frequencies --   1508.4809              1516.1506              1526.0587
 Red. masses --      1.0981                 1.1597                 1.0629
 Frc consts  --      1.4722                 1.5707                 1.4584
 IR Inten    --      0.8034                21.5601                 8.2740

                     79                     80                     81
                      A                      A                      A
 Frequencies --   1530.4789              1533.5657              1543.1576
 Red. masses --      1.0709                 1.0486                 1.0912
 Frc consts  --      1.4779                 1.4530                 1.5310
 IR Inten    --      6.9214                 8.4562                12.6016

                     82                     83                     84
                      A                      A                      A
 Frequencies --   1546.7435              1553.8231              1640.8690
 Red. masses --      1.0572                 1.0851                 4.5718
 Frc consts  --      1.4901                 1.5436                 7.2524
 IR Inten    --      5.2596                 4.7814                 6.3175

                     85                     86                     87
                      A                      A                      A
 Frequencies --   1686.3875              1701.0469              1705.9143
 Red. masses --      1.1027                 4.4758                 5.5973
 Frc consts  --      1.8477                 7.6306                 9.5973
 IR Inten    --     30.1816                27.1134                 7.7685

                     88                     89                     90
                      A                      A                      A
 Frequencies --   2922.5795              2985.2420              3035.0621
 Red. masses --      1.0738                 1.0732                 1.0570
 Frc consts  --      5.4041                 5.6347                 5.7368
 IR Inten    --     65.4997                68.2762                37.9190

                     91                     92                     93
                      A                      A                      A
 Frequencies --   3038.2692              3038.8052              3040.1102
 Red. masses --      1.0509                 1.0579                 1.0377
 Frc consts  --      5.7156                 5.7559                 5.6509
 IR Inten    --     58.1300                12.8779                31.6718

                     94                     95                     96
                      A                      A                      A
 Frequencies --   3071.0132              3078.7412              3084.7282
 Red. masses --      1.0885                 1.0981                 1.0874
 Frc consts  --      6.0482                 6.1324                 6.0965
 IR Inten    --     29.5402                 7.7740                26.4498

                     97                     98                     99
                      A                      A                      A
 Frequencies --   3098.8530              3107.4228              3108.1081
 Red. masses --      1.0990                 1.1013                 1.0971
 Frc consts  --      6.2181                 6.2656                 6.2443
 IR Inten    --     27.1583                61.8130                11.8044

                    100                    101                    102
                      A                      A                      A
 Frequencies --   3109.4161              3113.7925              3115.6817
 Red. masses --      1.0853                 1.1018                 1.1015
 Frc consts  --      6.1827                 6.2943                 6.3002
 IR Inten    --     25.9438                58.1652                25.7201

                    103                    104                    105
                      A                      A                      A
 Frequencies --   3141.8822              3161.7270              3170.9029
 Red. masses --      1.0869                 1.0597                 1.0887
 Frc consts  --      6.3214                 6.2414                 6.4493
 IR Inten    --     13.1720                11.4067                 1.8544

                    106                    107                    108
                      A                      A                      A
 Frequencies --   3175.1695              3190.7929              3247.9337
 Red. masses --      1.0836                 1.0875                 1.1153
 Frc consts  --      6.4366                 6.5236                 6.9317
 IR Inten    --     21.1738                27.9306                18.2316

                    109                    110                    111
                      A                      A                      A
 Frequencies --   3462.2774              3508.7533              3551.2737
 Red. masses --      1.0494                 1.0731                 1.0931
 Frc consts  --      7.4117                 7.7839                 8.1221
 IR Inten    --      3.0414                 0.6359                 0.5575

 - Thermochemistry -
 -------------------
 Temperature   298.150 Kelvin.  Pressure   1.00000 Atm.
 Atom     1 has atomic number  6 and mass  12.00000

 Molecular mass:   208.19395 amu.
 Principal axes and moments of inertia in atomic units:
                           1         2         3
     Eigenvalues --  1401.684048204.654138961.16537
           X            0.99999  -0.00005   0.00447
           Y            0.00007   0.99999  -0.00448
           Z           -0.00447   0.00448   0.99998
 This molecule is an asymmetric top.
 Rotational symmetry number  1.
 Warning -- assumption of classical behavior for rotation
           may cause significant error
 Rotational temperatures (Kelvin)      0.06179     0.01056     0.00967
 Rotational constants (GHZ):           1.28755     0.21997     0.20140
 Zero-point vibrational energy     933521.2 (Joules/Mol)
                                  223.11691 (Kcal/Mol)
 Warning -- explicit consideration of  26 degrees of freedom as
           vibrations may cause significant error
 Vibrational temperatures:     18.26    53.10    56.12    69.24   138.04
          (Kelvin)            149.58   180.93   193.16   206.08   239.63
                              271.82   305.48   324.34   349.24   378.23
                              403.93   412.10   445.25   464.34   496.07
                              556.74   622.54   644.74   668.30   760.43
                              829.49   915.75   979.06  1057.40  1071.70
                             1117.23  1138.89  1174.68  1231.56  1250.34
                             1278.30  1310.42  1314.49  1325.23  1334.62
                             1338.00  1396.02  1432.91  1446.25  1482.10
                             1506.54  1516.89  1544.01  1573.84  1590.28
                             1634.97  1658.24  1678.69  1695.09  1715.66
                             1730.12  1810.37  1833.52  1877.28  1888.89
                             1913.14  1922.97  1926.53  1958.52  1983.50
                             1999.58  2015.42  2023.10  2044.15  2064.63
                             2075.59  2077.30  2105.95  2156.02  2162.57
                             2170.37  2181.40  2195.66  2202.02  2206.46
                             2220.26  2225.42  2235.60  2360.84  2426.34
                             2447.43  2454.43  4204.94  4295.10  4366.78
                             4371.39  4372.16  4374.04  4418.50  4429.62
                             4438.24  4458.56  4470.89  4471.87  4473.76
                             4480.05  4482.77  4520.47  4549.02  4562.22
                             4568.36  4590.84  4673.05  4981.44  5048.31
                             5109.49

 Zero-point correction=                           0.355559 (Hartree/Particle)
 Thermal correction to Energy=                    0.373845
 Thermal correction to Enthalpy=                  0.374789
 Thermal correction to Gibbs Free Energy=         0.307528
 Sum of electronic and zero-point Energies=           -618.979533
 Sum of electronic and thermal Energies=              -618.961248
 Sum of electronic and thermal Enthalpies=            -618.960304
 Sum of electronic and thermal Free Energies=         -619.027564

                     E (Thermal)             CV                S
                      KCal/Mol        Cal/Mol-Kelvin    Cal/Mol-Kelvin
 Total                  234.591             67.103            141.561
 Electronic               0.000              0.000              0.000
 Translational            0.889              2.981             41.904
 Rotational               0.889              2.981             32.999
 Vibrational            232.814             61.141             66.658
 Vibration     1          0.593              1.987              7.537
 Vibration     2          0.594              1.982              5.419
 Vibration     3          0.594              1.981              5.309
 Vibration     4          0.595              1.978              4.893
 Vibration     5          0.603              1.952              3.535
 Vibration     6          0.605              1.946              3.379
 Vibration     7          0.611              1.927              3.010
 Vibration     8          0.613              1.919              2.884
 Vibration     9          0.616              1.910              2.760
 Vibration    10          0.624              1.884              2.474
 Vibration    11          0.633              1.855              2.238
 Vibration    12          0.643              1.822              2.024
 Vibration    13          0.650              1.802              1.915
 Vibration    14          0.659              1.775              1.783
 Vibration    15          0.670              1.741              1.643
 Vibration    16          0.680              1.709              1.529
 Vibration    17          0.684              1.699              1.495
 Vibration    18          0.699              1.656              1.365
 Vibration    19          0.708              1.630              1.296
 Vibration    20          0.723              1.586              1.190
 Vibration    21          0.755              1.498              1.012
 Vibration    22          0.794              1.399              0.850
 Vibration    23          0.807              1.365              0.801
 Vibration    24          0.822              1.329              0.753
 Vibration    25          0.883              1.187              0.591
 Vibration    26          0.933              1.082              0.492

                           ! Non-Optimized Parameters !
 Normal termination of Gaussian 16 at Thu Dec 10 18:04:25 2020.

 ----------------------------------------------------------------------
 # B3LYP/6-311++G(d,p) empiricaldispersion=gd3bj scf=xqc pop=npa geom=c
 heck
 ----------------------------------------------------------------------

 ---------------------------------------
 CID_143378485_JID_5891_Energie_neutraal
 ---------------------------------------
 Structure from the checkpoint file:  "JID_5891.chk"
 Charge =  0 Multiplicity = 1

 SCF Done:  E(RB3LYP) =  -619.519864184     A.U. after   15 cycles
 Normal termination of Gaussian 16 at Thu Dec 10 18:09:54 2020.

 ----------------------------------------------------------------------
 # B3LYP/6-311++G(d,p) empiricaldispersion=gd3bj scf=xqc pop=npa geom=c
 heck
 ----------------------------------------------------------------------

 -------------------------------------
 CID_143378485_JID_5891_Energie_kation
 -------------------------------------
 Structure from the checkpoint file:  "JID_5891.chk"
 Charge =  1 Multiplicity = 2

 SCF Done:  E(UB3LYP) =  -619.257459547     A.U. after   20 cycles
 Normal termination of Gaussian 16 at Thu Dec 10 18:20:11 2020.
 Gaussian 16:  ES64L-G16RevA.03 25-Dec-2016

 ----------------------------------------------------------------------
 # B3LYP/6-311++G(d,p) empiricaldispersion=gd3bj scf=xqc pop=npa geom=c
 heck
 ----------------------------------------------------------------------

 ------------------------------------
 CID_143378485_JID_5891_Energie_anion
 ------------------------------------
 Structure from the checkpoint file:  "JID_5891.chk"
 Charge = -1 Multiplicity = 2

                         Standard orientation:
 ---------------------------------------------------------------------
 Center     Atomic      Atomic             Coordinates (Angstroms)
 Number     Number       Type             X           Y           Z
 ---------------------------------------------------------------------
      1          6           0        5.457343   -0.446277    0.307264
      2          6           0        4.402593   -1.364809   -0.317656
      3          6           0        2.975377   -0.826246   -0.195399
      4          7           0        2.811376    0.424962   -0.930178
      5          6           0        1.432593    0.879165   -1.069298
      6          6           0        0.645768    1.141599    0.248230
      7          6           0        1.368797    2.160297    1.141936
      8          6           0       -0.721563    1.640915   -0.114603
      9          6           0       -1.940442    1.062481   -0.096566
     10          6           0       -2.402594   -0.246077    0.361662
     11          6           0       -3.702912   -0.629630    0.223944
     12          6           0       -4.805226    0.096909   -0.376240
     13          6           0       -6.055029   -0.390888   -0.445240
     14          6           0       -1.464010   -1.246029    1.004445
     15          7           0       -0.546492   -1.821900    0.007148
     16          1           0        5.514564    0.513628   -0.218812
     17          1           0        6.454296   -0.898397    0.264200
     18          1           0        5.229081   -0.241839    1.361443
     19          1           0        4.629263   -1.517955   -1.379765
     20          1           0        4.444980   -2.348938    0.168371
     21          1           0        2.266489   -1.544544   -0.622489
     22          1           0        2.716766   -0.742041    0.878564
     23          1           0        3.372616    1.154988   -0.498241
     24          1           0        1.444400    1.799555   -1.669015
     25          1           0        0.880630    0.122248   -1.635282
     26          1           0        0.583574    0.189999    0.771740
     27          1           0        1.470447    3.129143    0.635187
     28          1           0        0.820092    2.328468    2.074764
     29          1           0        2.374357    1.811549    1.404191
     30          1           0       -0.703742    2.657456   -0.515344
     31          1           0       -2.737786    1.693420   -0.480703
     32          1           0       -3.972326   -1.613528    0.608943
     33          1           0       -4.611521    1.080615   -0.796522
     34          1           0       -6.863460    0.170517   -0.902913
     35          1           0       -6.305377   -1.370754   -0.044420
     36          1           0       -0.858311   -0.754033    1.774318
     37          1           0       -2.072790   -2.003942    1.523424
     38          1           0        0.021684   -2.546619    0.443506
     39          1           0       -1.096292   -2.278901   -0.718802
 ---------------------------------------------------------------------

 SCF Done:  E(UB3LYP) =  -619.522837512     A.U. after   28 cycles

 The electronic state is 2-A.
 Alpha  occ. eigenvalues --  -14.18899 -14.17762 -10.08399 -10.07239 -10.07173
 Alpha  occ. eigenvalues --  -10.07158 -10.07069 -10.05210 -10.04974 -10.03476
 Alpha  occ. eigenvalues --  -10.03310 -10.03001 -10.02870 -10.02150 -10.02014
 Alpha  occ. eigenvalues --   -0.79928  -0.76757  -0.69395  -0.67925  -0.66548
 Alpha  occ. eigenvalues --   -0.62913  -0.59144  -0.58563  -0.54942  -0.53280
 Alpha  occ. eigenvalues --   -0.49516  -0.47763  -0.44867  -0.43656  -0.39435
 Alpha  occ. eigenvalues --   -0.38953  -0.37198  -0.36303  -0.35412  -0.33866
 Alpha  occ. eigenvalues --   -0.33105  -0.32093  -0.31969  -0.30593  -0.30434
 Alpha  occ. eigenvalues --   -0.29056  -0.28550  -0.27968  -0.27589  -0.25112
 Alpha  occ. eigenvalues --   -0.25034  -0.24667  -0.24107  -0.23303  -0.23167
 Alpha  occ. eigenvalues --   -0.22338  -0.20622  -0.19835  -0.18809  -0.15343
 Alpha  occ. eigenvalues --   -0.13076  -0.11805  -0.08019   0.04096
 Alpha virt. eigenvalues --    0.06140   0.07273   0.07944   0.08738   0.09060
 Alpha virt. eigenvalues --    0.09363   0.10128   0.10334   0.10815   0.10916
 Alpha virt. eigenvalues --    0.11400   0.12119   0.12750   0.12833   0.13129

  Beta  occ. eigenvalues --  -14.18890 -14.17722 -10.08389 -10.07215 -10.07166
  Beta  occ. eigenvalues --  -10.07156 -10.07059 -10.05183 -10.04986 -10.03471
  Beta  occ. eigenvalues --  -10.03311 -10.02811 -10.02660 -10.01922 -10.01694
  Beta  occ. eigenvalues --   -0.79901  -0.76658  -0.69237  -0.67669  -0.66317
  Beta  occ. eigenvalues --   -0.62569  -0.58916  -0.58516  -0.54897  -0.52961
  Beta  occ. eigenvalues --   -0.49370  -0.47542  -0.44560  -0.43383  -0.39358
  Beta  occ. eigenvalues --   -0.38841  -0.37114  -0.36205  -0.35320  -0.33810
  Beta  occ. eigenvalues --   -0.33031  -0.32023  -0.31841  -0.30541  -0.30378
  Beta  occ. eigenvalues --   -0.28909  -0.28444  -0.27871  -0.27504  -0.25005
  Beta  occ. eigenvalues --   -0.24978  -0.24591  -0.24050  -0.23227  -0.23085
  Beta  occ. eigenvalues --   -0.22234  -0.20499  -0.18748  -0.18663  -0.14372
  Beta  occ. eigenvalues --   -0.12998  -0.11579  -0.06484
  Beta virt. eigenvalues --    0.06182   0.07487   0.07806   0.08694   0.08997
  Beta virt. eigenvalues --    0.09320   0.09470   0.10159   0.10268   0.10779
  Beta virt. eigenvalues --    0.10909   0.11449   0.12122   0.12710   0.12807

 Mulliken charges and spin densities:
               1          2
     1  C   -0.059082  -0.481766
     2  C   -0.402467  -0.025315
     3  C    0.024266  -0.235794
     4  N    0.030518   0.000970
     5  C   -0.972201   0.047260
     6  C    1.048056   0.060458
     7  C   -0.426745  -0.256694
     8  C   -0.462914   0.381506
     9  C   -1.671225  -0.130466
    10  C    1.890650   0.359474
    11  C   -0.681835  -0.028594
    12  C    0.433430  -0.012877
    13  C   -0.740364   0.299332
    14  C   -0.494513  -0.290126
    15  N   -0.237749  -0.080569
    16  H    0.044822   0.087477
    17  H   -0.046606   0.184853
    18  H    0.003610   0.129633
    19  H    0.119092   0.016846
    20  H   -0.076667   0.203181
    21  H    0.109466   0.081356
    22  H    0.010374   0.127268
    23  H    0.233494  -0.030489
    24  H    0.128925   0.005363
    25  H    0.184856  -0.002220
    26  H    0.130958  -0.049842
    27  H    0.087342   0.050026
    28  H    0.060789   0.075969
    29  H    0.015903   0.108767
    30  H    0.153978  -0.016963
    31  H   -0.008397  -0.000659
    32  H    0.050221  -0.028713
    33  H    0.113474   0.003507
    34  H    0.102457  -0.016430
    35  H    0.070041  -0.009354
    36  H    0.034540   0.117014
    37  H    0.014704   0.134915
    38  H    0.006078   0.193401
    39  H    0.178722   0.028297
 Sum of Mulliken charges =  -1.00000   1.00000

 Dipole moment (field-independent basis, Debye):
    X=              4.6721    Y=              0.8580    Z=             -0.3258  Tot=              4.7614
 Quadrupole moment (field-independent basis, Debye-Ang):
   XX=           -190.7407   YY=           -115.1346   ZZ=           -116.9345
   XY=              2.3883   XZ=             -1.7019   YZ=             -1.0784

 Summary of Natural Population Analysis:

                                       Natural Population
                Natural  -----------------------------------------------
    Atom  No    Charge         Core      Valence    Rydberg      Total
 -----------------------------------------------------------------------
      C    1   -0.28811      0.99967     2.28412    0.00432     3.28811
      C    2   -0.19346      0.99964     2.18473    0.00909     3.19346
      C    3   -0.09124      0.99962     2.07926    0.01235     3.09124
      N    4   -0.34172      0.99974     2.83095    0.01103     3.84172
      C    5   -0.07495      0.99961     2.06468    0.01066     3.07495
      C    6   -0.15061      0.99957     2.14098    0.01005     3.15061
      C    7   -0.28431      0.99966     2.27719    0.00747     3.28431
      C    8   -0.04794      0.99955     2.03817    0.01022     3.04794
      C    9   -0.10783      0.99951     2.09907    0.00925     3.10783
      C   10   -0.00494      0.99947     1.99500    0.01048     3.00494
      C   11   -0.05865      0.99949     2.05001    0.00915     3.05865
      C   12   -0.11415      0.99956     2.10566    0.00892     3.11415
      C   13   -0.13090      0.99960     2.12292    0.00838     3.13090
      C   14   -0.09710      0.99960     2.08535    0.01216     3.09710
      N   15   -0.42319      0.99977     2.91296    0.01046     3.92319
      H   16    0.09485      0.00000     0.40406    0.00109     0.40515
      H   17    0.09636      0.00000     0.40277    0.00087     0.40364
      H   18    0.09588      0.00000     0.40298    0.00114     0.40412
      H   19    0.09476      0.00000     0.40393    0.00131     0.40524
      H   20    0.09393      0.00000     0.40504    0.00103     0.40607
      H   21    0.10012      0.00000     0.39838    0.00151     0.39988
      H   22    0.07704      0.00000     0.42118    0.00177     0.42296
      H   23    0.16741      0.00000     0.32933    0.00326     0.33259
      H   24    0.08567      0.00000     0.41331    0.00102     0.41433
      H   25    0.10146      0.00000     0.39744    0.00109     0.39854
      H   26    0.10740      0.00000     0.38933    0.00327     0.39260
      H   27    0.09155      0.00000     0.40758    0.00087     0.40845
      H   28    0.10086      0.00000     0.39835    0.00079     0.39914
      H   29    0.09310      0.00000     0.40593    0.00097     0.40690
      H   30    0.08059      0.00000     0.41817    0.00124     0.41941
      H   31    0.08982      0.00000     0.40844    0.00174     0.41018
      H   32    0.08091      0.00000     0.41718    0.00190     0.41909
      H   33    0.08673      0.00000     0.41180    0.00147     0.41327
      H   34    0.08063      0.00000     0.41836    0.00100     0.41937
      H   35    0.07870      0.00000     0.42018    0.00111     0.42130
      H   36    0.08921      0.00000     0.40956    0.00124     0.41079
      H   37    0.07952      0.00000     0.41908    0.00140     0.42048
      H   38    0.16989      0.00000     0.32754    0.00257     0.33011
      H   39    0.17272      0.00000     0.32565    0.00163     0.32728
 =======================================================================
   * Total *   -0.00000     14.99408    42.82665    0.17928    58.00000

 Normal termination of Gaussian 16 at Thu Dec 10 18:32:58 2020.
