 Gaussian 16, Revision A.03,

 -----------------------------------------------------------
 # opt freq B3LYP/6-31G(d) empiricaldispersion=gd3bj scf=xqc
 -----------------------------------------------------------

 ------------------------------
 CID_63012851_JID_4327_neutraal
 ------------------------------
 Symbolic Z-matrix:
 Charge =  0 Multiplicity = 1

 SCF Done:  E(RB3LYP) =  -629.557704533     A.U. after   14 cycles
 SCF Done:  E(RB3LYP) =  -629.560686192     A.U. after   13 cycles
 SCF Done:  E(RB3LYP) =  -629.550667305     A.U. after   15 cycles
 SCF Done:  E(RB3LYP) =  -629.561770144     A.U. after   13 cycles
 SCF Done:  E(RB3LYP) =  -629.561173420     A.U. after   15 cycles
 SCF Done:  E(RB3LYP) =  -629.564837927     A.U. after   12 cycles
 SCF Done:  E(RB3LYP) =  -629.565303317     A.U. after   12 cycles
 SCF Done:  E(RB3LYP) =  -629.565911288     A.U. after   12 cycles
 SCF Done:  E(RB3LYP) =  -629.565961374     A.U. after   12 cycles
 SCF Done:  E(RB3LYP) =  -629.565975149     A.U. after   10 cycles
 SCF Done:  E(RB3LYP) =  -629.565978239     A.U. after    8 cycles
 SCF Done:  E(RB3LYP) =  -629.565978645     A.U. after    9 cycles
 SCF Done:  E(RB3LYP) =  -629.565979381     A.U. after    8 cycles
 SCF Done:  E(RB3LYP) =  -629.565979464     A.U. after    7 cycles
 Optimization completed.
    -- Stationary point found.
 Normal termination of Gaussian 16 at Thu Dec 10 09:26:34 2020.

 --------------------------------------------------------------------
 #N Geom=AllCheck Guess=TCheck SCRF=Check GenChk RB3LYP/6-31G(d) Freq
 --------------------------------------------------------------------

 Structure from the checkpoint file:  "JID_4327.chk"
 ------------------------------
 CID_63012851_JID_4327_neutraal
 ------------------------------
 Charge =  0 Multiplicity = 1

 SCF Done:  E(RB3LYP) =  -629.565979464     A.U. after    1 cycles

  Exact polarizability: 125.342   3.389 139.851  23.598   3.658  98.347
 Approx polarizability: 177.683   4.037 227.859  52.964   9.390 165.383

                      1                      2                      3
                      A                      A                      A
 Frequencies --     37.1957                61.3455                87.4684
 Red. masses --      6.1198                 4.1048                 4.2006
 Frc consts  --      0.0050                 0.0091                 0.0189
 IR Inten    --      1.7375                 1.2609                 0.7453

                      4                      5                      6
                      A                      A                      A
 Frequencies --    112.0691               134.1635               190.7643
 Red. masses --      3.8360                 3.5504                 3.1576
 Frc consts  --      0.0284                 0.0377                 0.0677
 IR Inten    --      0.3531                 3.9655                 5.0330

                      7                      8                      9
                      A                      A                      A
 Frequencies --    199.9076               234.6105               243.1918
 Red. masses --      3.6918                 2.0252                 1.6029
 Frc consts  --      0.0869                 0.0657                 0.0559
 IR Inten    --      5.9961                 3.3937                 4.5710

                     10                     11                     12
                      A                      A                      A
 Frequencies --    260.9993               335.4854               370.5503
 Red. masses --      4.0508                 3.0367                 1.5516
 Frc consts  --      0.1626                 0.2014                 0.1255
 IR Inten    --      0.7117                11.4136                18.5719

                     13                     14                     15
                      A                      A                      A
 Frequencies --    396.8515               411.1681               424.1664
 Red. masses --      1.7928                 2.3355                 2.7630
 Frc consts  --      0.1664                 0.2326                 0.2929
 IR Inten    --     14.8252                 8.2410                 1.7020

                     16                     17                     18
                      A                      A                      A
 Frequencies --    457.5587               490.8060               509.2868
 Red. masses --      3.1967                 1.2241                 4.0110
 Frc consts  --      0.3943                 0.1737                 0.6130
 IR Inten    --     16.2864                74.7428                 2.6339

                     19                     20                     21
                      A                      A                      A
 Frequencies --    555.0570               610.3749               635.3675
 Red. masses --      3.5880                 2.9409                 3.3198
 Frc consts  --      0.6513                 0.6455                 0.7896
 IR Inten    --     20.6791                66.6062                 2.3017

                     22                     23                     24
                      A                      A                      A
 Frequencies --    637.9232               698.0684               722.6324
 Red. masses --      6.0226                 3.2698                 1.7034
 Frc consts  --      1.4440                 0.9388                 0.5241
 IR Inten    --      0.1740                16.3485                20.0567

                     25                     26                     27
                      A                      A                      A
 Frequencies --    759.6508               792.6938               805.1996
 Red. masses --      2.6591                 1.7786                 2.2269
 Frc consts  --      0.9041                 0.6585                 0.8507
 IR Inten    --     35.7007               195.5810                83.5425

                     28                     29                     30
                      A                      A                      A
 Frequencies --    817.2145               838.3817               868.5860
 Red. masses --      3.1534                 2.3473                 1.2527
 Frc consts  --      1.2408                 0.9721                 0.5568
 IR Inten    --    120.8355                33.6108                 2.9238

                     31                     32                     33
                      A                      A                      A
 Frequencies --    900.8091               913.7268               940.8339
 Red. masses --      2.5973                 1.5971                 1.5812
 Frc consts  --      1.2418                 0.7856                 0.8247
 IR Inten    --      9.7203                 2.3707                 3.0692

                     34                     35                     36
                      A                      A                      A
 Frequencies --    974.3248               997.3510              1022.4090
 Red. masses --      1.3467                 1.2452                 6.0619
 Frc consts  --      0.7532                 0.7298                 3.7334
 IR Inten    --      0.2803                 0.2413                 0.1830

                     37                     38                     39
                      A                      A                      A
 Frequencies --   1025.4814              1058.2169              1063.9901
 Red. masses --      1.8566                 2.1519                 2.0523
 Frc consts  --      1.1503                 1.4198                 1.3689
 IR Inten    --      2.1502                 2.9110                22.6348

                     40                     41                     42
                      A                      A                      A
 Frequencies --   1084.9133              1099.3919              1128.0144
 Red. masses --      1.7309                 2.4120                 1.7113
 Frc consts  --      1.2004                 1.7176                 1.2829
 IR Inten    --      5.1656                 5.8399                 9.3702

                     43                     44                     45
                      A                      A                      A
 Frequencies --   1137.5801              1193.6636              1205.8673
 Red. masses --      1.9195                 1.0968                 1.9303
 Frc consts  --      1.4635                 0.9207                 1.6537
 IR Inten    --      4.2053                 0.0372                21.6215

                     46                     47                     48
                      A                      A                      A
 Frequencies --   1216.4888              1239.0712              1278.4195
 Red. masses --      1.1532                 2.7945                 1.9216
 Frc consts  --      1.0054                 2.5278                 1.8504
 IR Inten    --      1.5278                 6.7729                24.0474

                     49                     50                     51
                      A                      A                      A
 Frequencies --   1314.2494              1364.4349              1366.0150
 Red. masses --      1.4458                 3.3494                 1.8753
 Frc consts  --      1.4713                 3.6738                 2.0617
 IR Inten    --      9.5766                 4.6983                 9.2000

                     52                     53                     54
                      A                      A                      A
 Frequencies --   1373.1538              1401.3803              1415.8633
 Red. masses --      1.2713                 1.3381                 1.2015
 Frc consts  --      1.4123                 1.5483                 1.4191
 IR Inten    --      0.9645                11.1590                 9.7587

                     55                     56                     57
                      A                      A                      A
 Frequencies --   1438.4249              1439.6677              1502.4476
 Red. masses --      1.7260                 1.2547                 2.1295
 Frc consts  --      2.1041                 1.5321                 2.8322
 IR Inten    --    236.4968                10.3710                 9.2356

                     58                     59                     60
                      A                      A                      A
 Frequencies --   1512.2285              1524.5396              1533.8786
 Red. masses --      1.1176                 1.0599                 1.0577
 Frc consts  --      1.5059                 1.4514                 1.4663
 IR Inten    --      4.8793                 3.7258                 3.5928

                     61                     62                     63
                      A                      A                      A
 Frequencies --   1547.2821              1584.3343              1642.6942
 Red. masses --      2.2356                 1.1761                 5.4012
 Frc consts  --      3.1534                 1.7393                 8.5872
 IR Inten    --      9.8369                70.2028                 0.8075

                     64                     65                     66
                      A                      A                      A
 Frequencies --   1665.4822              1693.6425              1763.0746
 Red. masses --      5.5531                 1.1452                 6.3702
 Frc consts  --      9.0754                 1.9355                11.6667
 IR Inten    --      3.8155                77.1396               259.5425

                     67                     68                     69
                      A                      A                      A
 Frequencies --   3034.5668              3052.9873              3060.1992
 Red. masses --      1.0826                 1.0592                 1.0434
 Frc consts  --      5.8740                 5.8168                 5.7572
 IR Inten    --     24.1861                38.0272                38.7350

                     70                     71                     72
                      A                      A                      A
 Frequencies --   3101.2927              3124.3288              3142.2539
 Red. masses --      1.1025                 1.0993                 1.1011
 Frc consts  --      6.2477                 6.3221                 6.4058
 IR Inten    --     17.2286                31.2213                35.1393

                     73                     74                     75
                      A                      A                      A
 Frequencies --   3179.8297              3187.6152              3196.5738
 Red. masses --      1.0856                 1.0872                 1.0911
 Frc consts  --      6.4676                 6.5088                 6.5689
 IR Inten    --      3.3891                 1.1217                18.7482

                     76                     77                     78
                      A                      A                      A
 Frequencies --   3204.7892              3213.0784              3349.3663
 Red. masses --      1.0939                 1.0978                 1.0637
 Frc consts  --      6.6193                 6.6772                 7.0310
 IR Inten    --     28.1640                11.0806               150.8928

                     79                     80                     81
                      A                      A                      A
 Frequencies --   3468.3702              3539.7785              3638.0332
 Red. masses --      1.0761                 1.0517                 1.0928
 Frc consts  --      7.6271                 7.7639                 8.5214
 IR Inten    --      6.6001                22.1577                38.2582

 - Thermochemistry -
 -------------------
 Temperature   298.150 Kelvin.  Pressure   1.00000 Atm.
 Atom     1 has atomic number  6 and mass  12.00000

 Molecular mass:   193.12151 amu.
 Principal axes and moments of inertia in atomic units:
                           1         2         3
     Eigenvalues --  1799.802653258.064624037.51563
           X            0.99979   0.01956   0.00570
           Y           -0.01955   0.99980  -0.00300
           Z           -0.00576   0.00289   0.99998
 This molecule is an asymmetric top.
 Rotational symmetry number  1.
 Warning -- assumption of classical behavior for rotation
           may cause significant error
 Rotational temperatures (Kelvin)      0.04812     0.02658     0.02145
 Rotational constants (GHZ):           1.00274     0.55393     0.44699
 Zero-point vibrational energy     650500.2 (Joules/Mol)
                                  155.47329 (Kcal/Mol)
 Warning -- explicit consideration of  20 degrees of freedom as
           vibrations may cause significant error
 Vibrational temperatures:     53.52    88.26   125.85   161.24   193.03
          (Kelvin)            274.47   287.62   337.55   349.90   375.52
                              482.69   533.14   570.98   591.58   610.28
                              658.32   706.16   732.75   798.60   878.19
                              914.15   917.83  1004.36  1039.71  1092.97
                             1140.51  1158.50  1175.79  1206.24  1249.70
                             1296.06  1314.65  1353.65  1401.84  1434.97
                             1471.02  1475.44  1522.54  1530.84  1560.95
                             1581.78  1622.96  1636.72  1717.42  1734.97
                             1750.26  1782.75  1839.36  1890.91  1963.12
                             1965.39  1975.66  2016.27  2037.11  2069.57
                             2071.36  2161.69  2175.76  2193.47  2206.91
                             2226.19  2279.50  2363.47  2396.26  2436.77
                             2536.67  4366.06  4392.57  4402.94  4462.07
                             4495.21  4521.00  4575.07  4586.27  4599.16
                             4610.98  4622.90  4818.99  4990.21  5092.95
                             5234.32

 Zero-point correction=                           0.247762 (Hartree/Particle)
 Thermal correction to Energy=                    0.261256
 Thermal correction to Enthalpy=                  0.262201
 Thermal correction to Gibbs Free Energy=         0.207672
 Sum of electronic and zero-point Energies=           -629.318217
 Sum of electronic and thermal Energies=              -629.304723
 Sum of electronic and thermal Enthalpies=            -629.303779
 Sum of electronic and thermal Free Energies=         -629.358308

                     E (Thermal)             CV                S
                      KCal/Mol        Cal/Mol-Kelvin    Cal/Mol-Kelvin
 Total                  163.941             52.515            114.766
 Electronic               0.000              0.000              0.000
 Translational            0.889              2.981             41.680
 Rotational               0.889              2.981             31.538
 Vibrational            162.163             46.553             41.548
 Vibration     1          0.594              1.982              5.403
 Vibration     2          0.597              1.973              4.413
 Vibration     3          0.601              1.958              3.716
 Vibration     4          0.607              1.939              3.233
 Vibration     5          0.613              1.919              2.885
 Vibration     6          0.634              1.853              2.220
 Vibration     7          0.638              1.840              2.134
 Vibration     8          0.654              1.788              1.843
 Vibration     9          0.659              1.774              1.779
 Vibration    10          0.669              1.744              1.655
 Vibration    11          0.717              1.605              1.234
 Vibration    12          0.743              1.533              1.078
 Vibration    13          0.763              1.477              0.974
 Vibration    14          0.775              1.446              0.922
 Vibration    15          0.786              1.418              0.878
 Vibration    16          0.816              1.344              0.773
 Vibration    17          0.847              1.270              0.682
 Vibration    18          0.864              1.229              0.635
 Vibration    19          0.910              1.129              0.534
 Vibration    20          0.969              1.010              0.432

                           ! Non-Optimized Parameters !
 Normal termination of Gaussian 16 at Thu Dec 10 09:36:32 2020.

 ----------------------------------------------------------------------
 # B3LYP/6-311++G(d,p) empiricaldispersion=gd3bj scf=xqc pop=npa geom=c
 heck
 ----------------------------------------------------------------------

 --------------------------------------
 CID_63012851_JID_4327_Energie_neutraal
 --------------------------------------
 Structure from the checkpoint file:  "JID_4327.chk"
 Charge =  0 Multiplicity = 1

 SCF Done:  E(RB3LYP) =  -629.758388700     A.U. after   15 cycles
 Normal termination of Gaussian 16 at Thu Dec 10 09:40:58 2020.

 ----------------------------------------------------------------------
 # B3LYP/6-311++G(d,p) empiricaldispersion=gd3bj scf=xqc pop=npa geom=c
 heck
 ----------------------------------------------------------------------

 ------------------------------------
 CID_63012851_JID_4327_Energie_kation
 ------------------------------------
 Structure from the checkpoint file:  "JID_4327.chk"
 Charge =  1 Multiplicity = 2

 SCF Done:  E(UB3LYP) =  -629.455843113     A.U. after   28 cycles
 Normal termination of Gaussian 16 at Thu Dec 10 09:52:51 2020.
 Gaussian 16:  ES64L-G16RevA.03 25-Dec-2016

 ----------------------------------------------------------------------
 # B3LYP/6-311++G(d,p) empiricaldispersion=gd3bj scf=xqc pop=npa geom=c
 heck
 ----------------------------------------------------------------------

 -----------------------------------
 CID_63012851_JID_4327_Energie_anion
 -----------------------------------
 Structure from the checkpoint file:  "JID_4327.chk"
 Charge = -1 Multiplicity = 2

                         Standard orientation:
 ---------------------------------------------------------------------
 Center     Atomic      Atomic             Coordinates (Angstroms)
 Number     Number       Type             X           Y           Z
 ---------------------------------------------------------------------
      1          6           0        0.672245    2.457356   -0.978036
      2          6           0        0.979545    1.771178    0.362983
      3          6           0       -0.277980    1.599369    1.267396
      4          6           0       -1.246872    0.555590    0.777232
      5          6           0       -2.243348    0.868398   -0.158894
      6          6           0       -3.060401   -0.128269   -0.696578
      7          6           0       -2.897801   -1.456229   -0.297837
      8          6           0       -1.925731   -1.776563    0.652381
      9          6           0       -1.111662   -0.778393    1.185854
     10          7           0        1.747840    0.538892    0.282629
     11          6           0        1.535956   -0.439288   -0.515615
     12          7           0        0.644648   -0.597937   -1.571466
     13          7           0        2.348160   -1.584598   -0.349123
     14          8           0        3.401731   -1.365200    0.574545
     15          1           0       -0.111626    1.961760   -1.556512
     16          1           0        1.574023    2.491826   -1.596921
     17          1           0        0.341148    3.486421   -0.796603
     18          1           0        1.625443    2.467648    0.912295
     19          1           0        0.073666    1.328466    2.268333
     20          1           0       -0.771897    2.575767    1.346598
     21          1           0       -2.377975    1.901692   -0.468527
     22          1           0       -3.825229    0.133514   -1.422620
     23          1           0       -3.531701   -2.233182   -0.715706
     24          1           0       -1.798387   -2.805710    0.976368
     25          1           0       -0.340512   -1.034970    1.906149
     26          1           0        0.394214   -1.572694   -1.706866
     27          1           0       -0.197445   -0.044133   -1.478060
     28          1           0        2.786563   -1.841560   -1.234180
     29          1           0        3.217617   -0.426636    0.842290
 ---------------------------------------------------------------------

 SCF Done:  E(UB3LYP) =  -629.747268713     A.U. after   33 cycles
 SCF Done:  E(UB3LYP) =  -629.747268713     a.u. after    1 cycles

 The electronic state is 2-A.
 Alpha  occ. eigenvalues --  -19.04775 -14.27648 -14.23154 -14.19302 -10.17991
 Alpha  occ. eigenvalues --  -10.11064 -10.08124 -10.07670 -10.07612 -10.07446
 Alpha  occ. eigenvalues --  -10.07397 -10.07389 -10.07228 -10.06258  -0.98307
 Alpha  occ. eigenvalues --   -0.86542  -0.78886  -0.76134  -0.72811  -0.68801
 Alpha  occ. eigenvalues --   -0.64968  -0.64696  -0.58820  -0.54199  -0.50846
 Alpha  occ. eigenvalues --   -0.49848  -0.47464  -0.45160  -0.42323  -0.41032
 Alpha  occ. eigenvalues --   -0.39617  -0.37760  -0.36936  -0.35713  -0.35223
 Alpha  occ. eigenvalues --   -0.32928  -0.32321  -0.31399  -0.30342  -0.29157
 Alpha  occ. eigenvalues --   -0.28134  -0.27034  -0.26326  -0.25580  -0.24844
 Alpha  occ. eigenvalues --   -0.24054  -0.23165  -0.16948  -0.16504  -0.15928
 Alpha  occ. eigenvalues --   -0.14766  -0.13728   0.04245
 Alpha virt. eigenvalues --    0.06377   0.07111   0.07448   0.07967   0.08365
 Alpha virt. eigenvalues --    0.08936   0.09189   0.09541   0.10301   0.10924
 Alpha virt. eigenvalues --    0.11641   0.11767   0.12229   0.13451   0.13773

  Beta  occ. eigenvalues --  -19.04770 -14.27635 -14.23126 -14.19299 -10.17990
  Beta  occ. eigenvalues --  -10.11052 -10.08087 -10.07662 -10.07587 -10.07427
  Beta  occ. eigenvalues --  -10.07377 -10.07354 -10.07208 -10.06229  -0.98297
  Beta  occ. eigenvalues --   -0.86522  -0.78856  -0.76071  -0.72779  -0.68743
  Beta  occ. eigenvalues --   -0.64902  -0.64638  -0.58758  -0.54153  -0.50795
  Beta  occ. eigenvalues --   -0.49784  -0.47414  -0.45123  -0.42274  -0.40976
  Beta  occ. eigenvalues --   -0.39584  -0.37719  -0.36875  -0.35658  -0.35177
  Beta  occ. eigenvalues --   -0.32891  -0.32279  -0.31370  -0.30289  -0.29110
  Beta  occ. eigenvalues --   -0.28108  -0.26965  -0.26280  -0.25526  -0.24819
  Beta  occ. eigenvalues --   -0.24011  -0.23117  -0.16931  -0.16431  -0.15829
  Beta  occ. eigenvalues --   -0.14647  -0.13701
  Beta virt. eigenvalues --    0.06565   0.07271   0.07744   0.07978   0.08103
  Beta virt. eigenvalues --    0.08763   0.09505   0.09718   0.10007   0.10685
  Beta virt. eigenvalues --    0.11208   0.11951   0.12125   0.12575   0.13749

 Mulliken charges and spin densities:
               1          2
     1  C    0.820806  -1.399947
     2  C   -0.855432   0.882023
     3  C    2.687250  -3.442089
     4  C   -0.767350   1.333348
     5  C   -0.249108   0.011106
     6  C   -0.052722  -0.204764
     7  C    1.804179  -2.143595
     8  C   -0.014640  -0.239419
     9  C   -1.768502   1.743912
    10  N   -0.132094  -0.031609
    11  C    0.319017  -0.745237
    12  N   -0.280727   0.030271
    13  N   -0.222660   0.123873
    14  O   -0.218464  -0.011106
    15  H   -0.091916   0.225285
    16  H   -0.036088   0.193864
    17  H   -0.287625   0.438708
    18  H   -0.176377   0.387311
    19  H    0.027192   0.133575
    20  H   -0.355646   0.534791
    21  H   -0.314773   0.495722
    22  H   -0.877051   1.070279
    23  H   -0.516831   0.679262
    24  H   -0.225852   0.401836
    25  H    0.015290   0.182710
    26  H   -0.105104   0.360598
    27  H    0.448901  -0.172026
    28  H    0.124501   0.148285
    29  H    0.301823   0.013031
 Sum of Mulliken charges =  -1.00000   1.00000

 Dipole moment (field-independent basis, Debye):
    X=              3.7918    Y=             -0.9452    Z=              1.0716  Tot=              4.0521
 Quadrupole moment (field-independent basis, Debye-Ang):
   XX=           -149.1292   YY=           -139.2403   ZZ=           -117.0467
   XY=              0.2862   XZ=            -10.1706   YZ=             -1.4631

 Summary of Natural Population Analysis:

                                       Natural Population
                Natural  -----------------------------------------------
    Atom  No    Charge         Core      Valence    Rydberg      Total
 -----------------------------------------------------------------------
      C    1   -0.29268      0.99964     2.28758    0.00546     3.29268
      C    2   -0.00978      0.99958     1.99603    0.01417     3.00978
      C    3   -0.19795      0.99957     2.18769    0.01070     3.19795
      C    4   -0.01943      0.99950     2.00758    0.01235     3.01943
      C    5   -0.11058      0.99950     2.10014    0.01094     3.11058
      C    6   -0.09938      0.99955     2.08875    0.01107     3.09938
      C    7   -0.10121      0.99956     2.09065    0.01100     3.10121
      C    8   -0.10142      0.99955     2.09052    0.01135     3.10142
      C    9   -0.09964      0.99950     2.09015    0.00999     3.09964
      N   10   -0.32259      0.99960     2.81074    0.01225     3.82259
      C   11    0.30177      0.99961     1.68314    0.01547     2.69823
      N   12   -0.41184      0.99970     2.90262    0.00952     3.91184
      N   13   -0.17233      0.99966     2.65810    0.01457     3.67233
      O   14   -0.29768      0.99991     3.29019    0.00758     4.29768
      H   15    0.09528      0.00000     0.40322    0.00150     0.40472
      H   16    0.10235      0.00000     0.39670    0.00094     0.39765
      H   17    0.10368      0.00000     0.39469    0.00162     0.39632
      H   18    0.09515      0.00000     0.40326    0.00159     0.40485
      H   19    0.10455      0.00000     0.39414    0.00131     0.39545
      H   20    0.10626      0.00000     0.39199    0.00175     0.39374
      H   21    0.10494      0.00000     0.39334    0.00171     0.39506
      H   22    0.10379      0.00000     0.39422    0.00199     0.39621
      H   23    0.10324      0.00000     0.39483    0.00193     0.39676
      H   24    0.10106      0.00000     0.39783    0.00111     0.39894
      H   25    0.10390      0.00000     0.39451    0.00159     0.39610
      H   26    0.19285      0.00000     0.30454    0.00261     0.30715
      H   27    0.19995      0.00000     0.29728    0.00277     0.30005
      H   28    0.17626      0.00000     0.32138    0.00236     0.32374
      H   29    0.24147      0.00000     0.25474    0.00378     0.25853
 =======================================================================
   * Total *   -0.00000     13.99444    37.82057    0.18499    52.00000

 Normal termination of Gaussian 16 at Thu Dec 10 10:07:04 2020.
