 Gaussian 16, Revision A.03,

 -----------------------------------------------------------
 # opt freq B3LYP/6-31G(d) empiricaldispersion=gd3bj scf=xqc
 -----------------------------------------------------------

 ------------------------------
 CID_3304092_JID_10217_neutraal
 ------------------------------
 Symbolic Z-matrix:
 Charge =  0 Multiplicity = 1

 SCF Done:  E(RB3LYP) =  -939.986916210     A.U. after   15 cycles
 SCF Done:  E(RB3LYP) =  -939.991698731     A.U. after   12 cycles
 SCF Done:  E(RB3LYP) =  -939.992585663     A.U. after   12 cycles
 SCF Done:  E(RB3LYP) =  -939.993421453     A.U. after   12 cycles
 SCF Done:  E(RB3LYP) =  -939.993593083     A.U. after   13 cycles
 SCF Done:  E(RB3LYP) =  -939.994544243     A.U. after   12 cycles
 SCF Done:  E(RB3LYP) =  -939.994867649     A.U. after   12 cycles
 SCF Done:  E(RB3LYP) =  -939.995335618     A.U. after   12 cycles
 SCF Done:  E(RB3LYP) =  -939.995576909     A.U. after   12 cycles
 SCF Done:  E(RB3LYP) =  -939.995685642     A.U. after   11 cycles
 SCF Done:  E(RB3LYP) =  -939.996071456     A.U. after   10 cycles
 SCF Done:  E(RB3LYP) =  -939.996072623     A.U. after   10 cycles
 SCF Done:  E(RB3LYP) =  -939.996073211     A.U. after    9 cycles
 SCF Done:  E(RB3LYP) =  -939.996073407     A.U. after    8 cycles
 SCF Done:  E(RB3LYP) =  -939.996073413     A.U. after    6 cycles
 Optimization completed.
    -- Stationary point found.
 Normal termination of Gaussian 16 at Mon Dec 14 13:48:49 2020.

 --------------------------------------------------------------------
 #N Geom=AllCheck Guess=TCheck SCRF=Check GenChk RB3LYP/6-31G(d) Freq
 --------------------------------------------------------------------

 Structure from the checkpoint file:  "JID_10217.chk"
 ------------------------------
 CID_3304092_JID_10217_neutraal
 ------------------------------
 Charge =  0 Multiplicity = 1

 SCF Done:  E(RB3LYP) =  -939.996073413     A.U. after    1 cycles

  Exact polarizability: 228.217 -11.905 175.556  12.743   7.323 127.369
 Approx polarizability: 315.155 -19.503 281.062  38.259  15.772 186.218

                      1                      2                      3
                      A                      A                      A
 Frequencies --     18.4509                26.0048                31.7879
 Red. masses --      3.7188                 5.6499                 6.3218
 Frc consts  --      0.0007                 0.0023                 0.0038
 IR Inten    --      0.2017                 1.0129                 1.7199

                      4                      5                      6
                      A                      A                      A
 Frequencies --     39.3717                61.0623                73.2433
 Red. masses --      4.3006                 4.6784                 2.6634
 Frc consts  --      0.0039                 0.0103                 0.0084
 IR Inten    --      0.0797                 0.4602                 0.1791

                      7                      8                      9
                      A                      A                      A
 Frequencies --     85.8885                92.6424               128.8527
 Red. masses --      3.1268                 4.4998                 3.5756
 Frc consts  --      0.0136                 0.0228                 0.0350
 IR Inten    --      1.4431                 2.9733                 0.7514

                     10                     11                     12
                      A                      A                      A
 Frequencies --    144.4785               156.8462               196.4380
 Red. masses --      3.2831                 4.2334                 1.8307
 Frc consts  --      0.0404                 0.0614                 0.0416
 IR Inten    --      0.6647                 0.1634                 2.5229

                     13                     14                     15
                      A                      A                      A
 Frequencies --    205.2413               214.4834               223.9175
 Red. masses --      1.4622                 1.7876                 1.3089
 Frc consts  --      0.0363                 0.0485                 0.0387
 IR Inten    --      0.4080                 0.3985                 0.6096

                     16                     17                     18
                      A                      A                      A
 Frequencies --    232.2101               258.0271               274.8835
 Red. masses --      1.6937                 1.4962                 3.7739
 Frc consts  --      0.0538                 0.0587                 0.1680
 IR Inten    --      0.2904                 0.7154                 3.5842

                     19                     20                     21
                      A                      A                      A
 Frequencies --    293.3205               310.2629               342.0346
 Red. masses --      4.5869                 3.3879                 2.8239
 Frc consts  --      0.2325                 0.1921                 0.1946
 IR Inten    --      0.7905                 4.9514                 2.3100

                     22                     23                     24
                      A                      A                      A
 Frequencies --    367.4131               387.7077               406.2396
 Red. masses --      4.4713                 3.4390                 2.7066
 Frc consts  --      0.3556                 0.3046                 0.2632
 IR Inten    --      1.2601                 1.7568                 0.7864

                     25                     26                     27
                      A                      A                      A
 Frequencies --    412.6938               432.4848               442.9633
 Red. masses --      3.5044                 3.0285                 2.9494
 Frc consts  --      0.3517                 0.3338                 0.3410
 IR Inten    --      7.2677                 1.2076                 0.0985

                     28                     29                     30
                      A                      A                      A
 Frequencies --    470.7327               516.1706               545.8333
 Red. masses --      3.3462                 3.7860                 3.5860
 Frc consts  --      0.4369                 0.5943                 0.6295
 IR Inten    --     12.3228                 2.7270                18.4633

                     31                     32                     33
                      A                      A                      A
 Frequencies --    564.1645               605.2699               636.3954
 Red. masses --      3.1493                 2.3958                 2.8299
 Frc consts  --      0.5906                 0.5171                 0.6753
 IR Inten    --      5.4178                20.5581                45.0035

                     34                     35                     36
                      A                      A                      A
 Frequencies --    649.9242               668.8878               692.2447
 Red. masses --      3.6533                 3.4129                 2.3085
 Frc consts  --      0.9092                 0.8997                 0.6518
 IR Inten    --     48.2684                37.1899                25.5103

                     37                     38                     39
                      A                      A                      A
 Frequencies --    707.7738               746.6539               778.8672
 Red. masses --      3.0432                 2.5239                 4.6600
 Frc consts  --      0.8982                 0.8290                 1.6656
 IR Inten    --     25.9974                36.0151                22.8375

                     40                     41                     42
                      A                      A                      A
 Frequencies --    789.4118               814.5943               839.5449
 Red. masses --      3.3371                 4.2257                 1.2390
 Frc consts  --      1.2253                 1.6521                 0.5145
 IR Inten    --     92.1255                 3.5607                 7.9890

                     43                     44                     45
                      A                      A                      A
 Frequencies --    860.8617               864.0606               877.8759
 Red. masses --      2.4122                 2.2263                 2.3283
 Frc consts  --      1.0532                 0.9793                 1.0572
 IR Inten    --     23.1399                18.1243                10.1586

                     46                     47                     48
                      A                      A                      A
 Frequencies --    920.1411               939.6550               951.0467
 Red. masses --      2.6431                 1.3644                 1.1906
 Frc consts  --      1.3185                 0.7098                 0.6345
 IR Inten    --      6.8466                 0.0659                 3.4534

                     49                     50                     51
                      A                      A                      A
 Frequencies --    958.5745               974.1391               977.1933
 Red. masses --      1.2458                 1.5604                 1.4566
 Frc consts  --      0.6745                 0.8724                 0.8195
 IR Inten    --      0.2088                12.9570                14.2395

                     52                     53                     54
                      A                      A                      A
 Frequencies --    981.6442               982.5653               996.2751
 Red. masses --      2.2556                 1.3601                 2.0165
 Frc consts  --      1.2806                 0.7737                 1.1792
 IR Inten    --     28.3585                 4.9858                 9.2651

                     55                     56                     57
                      A                      A                      A
 Frequencies --   1032.8057              1098.6334              1134.4257
 Red. masses --      2.8253                 3.3224                 2.0371
 Frc consts  --      1.7756                 2.3627                 1.5446
 IR Inten    --      2.6921                 5.5180                84.2620

                     58                     59                     60
                      A                      A                      A
 Frequencies --   1150.1849              1161.9346              1165.3210
 Red. masses --      1.2891                 2.6345                 2.2624
 Frc consts  --      1.0048                 2.0956                 1.8102
 IR Inten    --     23.0714                14.4531                13.1441

                     61                     62                     63
                      A                      A                      A
 Frequencies --   1173.9723              1183.2368              1200.2491
 Red. masses --      3.0310                 2.0192                 2.3773
 Frc consts  --      2.4612                 1.6656                 2.0178
 IR Inten    --     48.3156               111.9032                99.6609

                     64                     65                     66
                      A                      A                      A
 Frequencies --   1204.0467              1208.0026              1220.7759
 Red. masses --      1.6920                 1.7774                 1.3336
 Frc consts  --      1.4452                 1.5282                 1.1710
 IR Inten    --     76.7614                12.1208                68.9229

                     67                     68                     69
                      A                      A                      A
 Frequencies --   1286.5253              1299.8903              1319.9325
 Red. masses --      3.6249                 1.3475                 1.3923
 Frc consts  --      3.5350                 1.3415                 1.4292
 IR Inten    --    396.3844                 7.4308                45.0861

                     70                     71                     72
                      A                      A                      A
 Frequencies --   1343.5283              1356.1611              1366.1350
 Red. masses --      1.4538                 3.3739                 2.0584
 Frc consts  --      1.5461                 3.6560                 2.2635
 IR Inten    --     45.6618               141.7937                66.8710

                     73                     74                     75
                      A                      A                      A
 Frequencies --   1375.8771              1393.7728              1394.7630
 Red. masses --      2.3927                 1.3147                 1.4366
 Frc consts  --      2.6687                 1.5048                 1.6466
 IR Inten    --    204.8406                 5.7054                15.3604

                     76                     77                     78
                      A                      A                      A
 Frequencies --   1424.0308              1431.9644              1434.4499
 Red. masses --      1.8899                 1.2769                 1.2920
 Frc consts  --      2.2580                 1.5427                 1.5663
 IR Inten    --     33.2623                14.5122                 8.6574

                     79                     80                     81
                      A                      A                      A
 Frequencies --   1440.7136              1449.6979              1452.8952
 Red. masses --      1.2933                 1.2588                 1.2317
 Frc consts  --      1.5816                 1.5587                 1.5319
 IR Inten    --     17.5085                17.2919                 3.1928

                     82                     83                     84
                      A                      A                      A
 Frequencies --   1468.8211              1489.9943              1517.7151
 Red. masses --      3.0206                 1.4855                 1.0526
 Frc consts  --      3.8396                 1.9431                 1.4286
 IR Inten    --     27.0973                40.4969                 0.1519

                     85                     86                     87
                      A                      A                      A
 Frequencies --   1518.5013              1519.9284              1527.3305
 Red. masses --      1.0515                 1.0528                 1.0551
 Frc consts  --      1.4285                 1.4330                 1.4501
 IR Inten    --      1.1498                 0.0157                10.3450

                     88                     89                     90
                      A                      A                      A
 Frequencies --   1527.7481              1535.6176              1538.4289
 Red. masses --      1.0424                 1.0572                 1.0833
 Frc consts  --      1.4334                 1.4689                 1.5106
 IR Inten    --      3.9011                 3.9554                 1.5359

                     91                     92                     93
                      A                      A                      A
 Frequencies --   1546.5196              1563.4949              1622.7938
 Red. masses --      1.0464                 2.5232                 6.5675
 Frc consts  --      1.4745                 3.6340                10.1901
 IR Inten    --     24.5725                74.9193                35.0100

                     94                     95                     96
                      A                      A                      A
 Frequencies --   1669.7271              1762.1747              1849.0568
 Red. masses --      5.7430                 8.4437                 9.5847
 Frc consts  --      9.4336                15.4482                19.3077
 IR Inten    --    198.8475               304.8159               262.6684

                     97                     98                     99
                      A                      A                      A
 Frequencies --   3042.8247              3045.2327              3051.7495
 Red. masses --      1.0731                 1.0403                 1.0460
 Frc consts  --      5.8537                 5.6842                 5.7397
 IR Inten    --      3.4070                16.2409                25.4964

                    100                    101                    102
                      A                      A                      A
 Frequencies --   3064.7910              3068.4869              3075.1804
 Red. masses --      1.0377                 1.0451                 1.0788
 Frc consts  --      5.7427                 5.7977                 6.0109
 IR Inten    --     15.6596                10.4389                29.0128

                    103                    104                    105
                      A                      A                      A
 Frequencies --   3110.2202              3115.7909              3126.2878
 Red. masses --      1.1000                 1.0994                 1.1023
 Frc consts  --      6.2692                 6.2884                 6.3476
 IR Inten    --      4.3781                59.8222                27.8708

                    106                    107                    108
                      A                      A                      A
 Frequencies --   3131.1973              3134.1603              3137.2122
 Red. masses --      1.1008                 1.1015                 1.1011
 Frc consts  --      6.3586                 6.3752                 6.3848
 IR Inten    --      9.3286                41.2027                16.2024

                    109                    110                    111
                      A                      A                      A
 Frequencies --   3149.6899              3153.0683              3156.4144
 Red. masses --      1.0849                 1.1015                 1.1006
 Frc consts  --      6.3411                 6.4521                 6.4603
 IR Inten    --      7.0877                 2.8170                57.5757

                    112                    113                    114
                      A                      A                      A
 Frequencies --   3211.9324              3214.8078              3227.0232
 Red. masses --      1.0880                 1.0899                 1.0946
 Frc consts  --      6.6131                 6.6368                 6.7160
 IR Inten    --      4.0621                 0.2069                 5.3047

                    115                    116                    117
                      A                      A                      A
 Frequencies --   3266.4879              3552.5426              3667.4135
 Red. masses --      1.0902                 1.0747                 1.0638
 Frc consts  --      6.8535                 7.9911                 8.4299
 IR Inten    --     12.4115                22.7939                48.2464

 - Thermochemistry -
 -------------------
 Temperature   298.150 Kelvin.  Pressure   1.00000 Atm.
 Atom     1 has atomic number  6 and mass  12.00000

 Molecular mass:   279.14706 amu.
 Principal axes and moments of inertia in atomic units:
                           1         2         3
     Eigenvalues --  3445.59550********************
           X            0.99972  -0.01748  -0.01601
           Y            0.01764   0.99980   0.00942
           Z            0.01584  -0.00970   0.99983
 This molecule is an asymmetric top.
 Rotational symmetry number  1.
 Warning -- assumption of classical behavior for rotation
           may cause significant error
 Rotational temperatures (Kelvin)      0.02514     0.00840     0.00755
 Rotational constants (GHZ):           0.52378     0.17504     0.15731
 Zero-point vibrational energy     910560.0 (Joules/Mol)
                                  217.62906 (Kcal/Mol)
 Warning -- explicit consideration of  32 degrees of freedom as
           vibrations may cause significant error
 Vibrational temperatures:     26.55    37.42    45.74    56.65    87.85
          (Kelvin)            105.38   123.57   133.29   185.39   207.87
                              225.67   282.63   295.30   308.59   322.17
                              334.10   371.24   395.50   422.02   446.40
                              492.11   528.63   557.82   584.49   593.77
                              622.25   637.33   677.28   742.65   785.33
                              811.71   870.85   915.63   935.10   962.38
                              995.99  1018.33  1074.27  1120.62  1135.79
                             1172.02  1207.92  1238.59  1243.19  1263.07
                             1323.88  1351.95  1368.34  1379.17  1401.57
                             1405.96  1412.37  1413.69  1433.42  1485.98
                             1580.69  1632.19  1654.86  1671.76  1676.64
                             1689.08  1702.41  1726.89  1732.35  1738.05
                             1756.42  1851.02  1870.25  1899.09  1933.04
                             1951.21  1965.56  1979.58  2005.33  2006.75
                             2048.86  2060.28  2063.85  2072.87  2085.79
                             2090.39  2113.31  2143.77  2183.65  2184.78
                             2186.84  2197.49  2198.09  2209.41  2213.46
                             2225.10  2249.52  2334.84  2402.36  2535.38
                             2660.38  4377.95  4381.41  4390.79  4409.55
                             4414.87  4424.50  4474.91  4482.93  4498.03
                             4505.09  4509.36  4513.75  4531.70  4536.56
                             4541.38  4621.25  4625.39  4642.97  4699.75
                             5111.32  5276.59

 Zero-point correction=                           0.346814 (Hartree/Particle)
 Thermal correction to Energy=                    0.367885
 Thermal correction to Enthalpy=                  0.368830
 Thermal correction to Gibbs Free Energy=         0.294589
 Sum of electronic and zero-point Energies=           -939.649259
 Sum of electronic and thermal Energies=              -939.628188
 Sum of electronic and thermal Enthalpies=            -939.627244
 Sum of electronic and thermal Free Energies=         -939.701485

                     E (Thermal)             CV                S
                      KCal/Mol        Cal/Mol-Kelvin    Cal/Mol-Kelvin
 Total                  230.852             78.050            156.254
 Electronic               0.000              0.000              0.000
 Translational            0.889              2.981             42.778
 Rotational               0.889              2.981             34.365
 Vibrational            229.074             72.088             79.110
 Vibration     1          0.593              1.986              6.794
 Vibration     2          0.593              1.985              6.113
 Vibration     3          0.594              1.983              5.715
 Vibration     4          0.594              1.981              5.290
 Vibration     5          0.597              1.973              4.423
 Vibration     6          0.599              1.967              4.064
 Vibration     7          0.601              1.959              3.752
 Vibration     8          0.602              1.954              3.603
 Vibration     9          0.611              1.924              2.963
 Vibration    10          0.616              1.909              2.744
 Vibration    11          0.621              1.895              2.587
 Vibration    12          0.636              1.845              2.166
 Vibration    13          0.640              1.832              2.086
 Vibration    14          0.644              1.819              2.005
 Vibration    15          0.649              1.805              1.927
 Vibration    16          0.653              1.792              1.862
 Vibration    17          0.667              1.749              1.675
 Vibration    18          0.677              1.720              1.565
 Vibration    19          0.688              1.686              1.455
 Vibration    20          0.699              1.654              1.361
 Vibration    21          0.721              1.591              1.203
 Vibration    22          0.740              1.539              1.091
 Vibration    23          0.756              1.496              1.009
 Vibration    24          0.771              1.457              0.940
 Vibration    25          0.776              1.443              0.917
 Vibration    26          0.793              1.399              0.851
 Vibration    27          0.803              1.376              0.817
 Vibration    28          0.828              1.315              0.736
 Vibration    29          0.871              1.214              0.619
 Vibration    30          0.901              1.149              0.553
 Vibration    31          0.920              1.109              0.516
 Vibration    32          0.964              1.021              0.441

 Optimization completed.
    -- Stationary point found.
 Normal termination of Gaussian 16 at Mon Dec 14 14:09:48 2020.

 ----------------------------------------------------------------------
 # B3LYP/6-311++G(d,p) empiricaldispersion=gd3bj scf=xqc pop=npa geom=c
 heck
 ----------------------------------------------------------------------

 --------------------------------------
 CID_3304092_JID_10217_Energie_neutraal
 --------------------------------------
 Structure from the checkpoint file:  "JID_10217.chk"
 Charge =  0 Multiplicity = 1

 SCF Done:  E(RB3LYP) =  -940.271868337     A.U. after   16 cycles
 Normal termination of Gaussian 16 at Mon Dec 14 14:18:50 2020.

 ----------------------------------------------------------------------
 # B3LYP/6-311++G(d,p) empiricaldispersion=gd3bj scf=xqc pop=npa geom=c
 heck
 ----------------------------------------------------------------------

 ------------------------------------
 CID_3304092_JID_10217_Energie_kation
 ------------------------------------
 Structure from the checkpoint file:  "JID_10217.chk"
 Charge =  1 Multiplicity = 2

 SCF Done:  E(UB3LYP) =  -939.975467352     A.U. after   27 cycles
 Normal termination of Gaussian 16 at Mon Dec 14 14:39:01 2020.
 Gaussian 16:  ES64L-G16RevA.03 25-Dec-2016

 ----------------------------------------------------------------------
 # B3LYP/6-311++G(d,p) empiricaldispersion=gd3bj scf=xqc pop=npa geom=c
 heck
 ----------------------------------------------------------------------

 -----------------------------------
 CID_3304092_JID_10217_Energie_anion
 -----------------------------------
 Structure from the checkpoint file:  "JID_10217.chk"
 Charge = -1 Multiplicity = 2

                         Standard orientation:
 ---------------------------------------------------------------------
 Center     Atomic      Atomic             Coordinates (Angstroms)
 Number     Number       Type             X           Y           Z
 ---------------------------------------------------------------------
      1          6           0       -3.527923   -1.235326    2.122170
      2          6           0       -3.410179   -0.045632    1.160826
      3          6           0       -2.956298    1.220217    1.896215
      4          6           0       -2.439196   -0.381498    0.010832
      5          6           0       -2.923527   -1.583129   -0.793007
      6          8           0       -4.056433   -1.736699   -1.190662
      7          8           0       -1.924280   -2.456900   -1.064823
      8          7           0       -2.291408    0.712812   -0.950741
      9          6           0       -1.301420    1.685462   -0.922844
     10          8           0       -1.561631    2.836930   -1.255848
     11          6           0        0.073998    1.274324   -0.524754
     12          6           0        0.894068    2.233016    0.090907
     13          6           0        2.194630    1.926032    0.450305
     14          6           0        2.731450    0.653861    0.180157
     15          6           0        1.929494   -0.299289   -0.463859
     16          6           0        0.615030    0.015829   -0.806165
     17          8           0        4.018159    0.495654    0.586170
     18          6           0        4.780180   -0.719451    0.425774
     19          6           0        4.217280   -1.881769    1.244526
     20          6           0        5.066405   -1.047629   -1.040011
     21          1           0       -2.554780   -1.474264    2.569716
     22          1           0       -3.902608   -2.131060    1.615904
     23          1           0       -4.220355   -1.001860    2.937579
     24          1           0       -4.395808    0.131676    0.709754
     25          1           0       -1.951129    1.088555    2.316492
     26          1           0       -2.931663    2.092429    1.236756
     27          1           0       -3.637853    1.442829    2.724141
     28          1           0       -1.455719   -0.603668    0.424359
     29          1           0       -2.315786   -3.151768   -1.628851
     30          1           0       -3.174840    1.107210   -1.260958
     31          1           0        0.487499    3.221273    0.278023
     32          1           0        2.832085    2.655357    0.939136
     33          1           0        2.309752   -1.279438   -0.711115
     34          1           0        0.017396   -0.731196   -1.318213
     35          1           0        5.730647   -0.428852    0.884946
     36          1           0        3.292008   -2.289235    0.831013
     37          1           0        4.955206   -2.690809    1.277368
     38          1           0        4.019946   -1.555346    2.270124
     39          1           0        5.436395   -0.156995   -1.556724
     40          1           0        5.839914   -1.821706   -1.092121
     41          1           0        4.189078   -1.414796   -1.577260
 ---------------------------------------------------------------------

 SCF Done:  E(UB3LYP) =  -940.267959178     A.U. after   33 cycles
 SCF Done:  E(UB3LYP) =  -940.267959178     a.u. after    1 cycles

 The electronic state is 2-A.
 Alpha  occ. eigenvalues --  -19.08831 -19.05398 -19.03509 -18.98342 -14.23818
 Alpha  occ. eigenvalues --  -10.22389 -10.16484 -10.14690 -10.13692 -10.13578
 Alpha  occ. eigenvalues --  -10.10151 -10.08391 -10.07924 -10.07810 -10.07692
 Alpha  occ. eigenvalues --  -10.07643 -10.07596 -10.07460 -10.07201 -10.07185
 Alpha  occ. eigenvalues --   -1.02871  -0.96999  -0.94097  -0.93554  -0.83242
 Alpha  occ. eigenvalues --   -0.75902  -0.72528  -0.70683  -0.65400  -0.65088
 Alpha  occ. eigenvalues --   -0.64094  -0.61132  -0.60849  -0.56059  -0.54041
 Alpha  occ. eigenvalues --   -0.51976  -0.50501  -0.49107  -0.47418  -0.43356
 Alpha  occ. eigenvalues --   -0.42426  -0.41461  -0.40803  -0.39929  -0.39064
 Alpha  occ. eigenvalues --   -0.37605  -0.36193  -0.36123  -0.35338  -0.34418
 Alpha  occ. eigenvalues --   -0.34048  -0.33292  -0.32919  -0.32622  -0.32014
 Alpha  occ. eigenvalues --   -0.31564  -0.31257  -0.30577  -0.30166  -0.29151
 Alpha  occ. eigenvalues --   -0.28905  -0.27658  -0.27418  -0.26899  -0.26223
 Alpha  occ. eigenvalues --   -0.25587  -0.24656  -0.24272  -0.22504  -0.22433
 Alpha  occ. eigenvalues --   -0.20740  -0.17207  -0.16234  -0.15204  -0.12853
 Alpha  occ. eigenvalues --    0.03638
 Alpha virt. eigenvalues --    0.05280   0.05482   0.06211   0.07479   0.07793
 Alpha virt. eigenvalues --    0.07937   0.08105   0.08272   0.08569   0.09368
 Alpha virt. eigenvalues --    0.09754   0.10133   0.10813   0.11187   0.11334

  Beta  occ. eigenvalues --  -19.08786 -19.05368 -19.03496 -18.98228 -14.23810
  Beta  occ. eigenvalues --  -10.22387 -10.16372 -10.14682 -10.13677 -10.13439
  Beta  occ. eigenvalues --  -10.10146 -10.08378 -10.07919 -10.07789 -10.07654
  Beta  occ. eigenvalues --  -10.07613 -10.07524 -10.07470 -10.07202 -10.07157
  Beta  occ. eigenvalues --   -1.02811  -0.96913  -0.94042  -0.93349  -0.83168
  Beta  occ. eigenvalues --   -0.75781  -0.72497  -0.70620  -0.65281  -0.64961
  Beta  occ. eigenvalues --   -0.64029  -0.61082  -0.60828  -0.55905  -0.53969
  Beta  occ. eigenvalues --   -0.51879  -0.50372  -0.49069  -0.47319  -0.43289
  Beta  occ. eigenvalues --   -0.42375  -0.41420  -0.40773  -0.39858  -0.39011
  Beta  occ. eigenvalues --   -0.37560  -0.36063  -0.36034  -0.35283  -0.34347
  Beta  occ. eigenvalues --   -0.33974  -0.33216  -0.32863  -0.32555  -0.31967
  Beta  occ. eigenvalues --   -0.31489  -0.31218  -0.30550  -0.29840  -0.28987
  Beta  occ. eigenvalues --   -0.28815  -0.27606  -0.27340  -0.26784  -0.26157
  Beta  occ. eigenvalues --   -0.25528  -0.24618  -0.24226  -0.22454  -0.22167
  Beta  occ. eigenvalues --   -0.20667  -0.17007  -0.15988  -0.15023  -0.12428
  Beta virt. eigenvalues --    0.05718   0.06070   0.06743   0.07057   0.07543
  Beta virt. eigenvalues --    0.07950   0.08098   0.08325   0.08435   0.08657
  Beta virt. eigenvalues --    0.09438   0.09933   0.10240   0.10991   0.11268

 Mulliken charges and spin densities:
               1          2
     1  C   -0.383257  -0.226955
     2  C   -0.208803   0.464423
     3  C   -0.437953  -0.194282
     4  C   -0.090365  -0.484669
     5  C    0.200938  -0.241458
     6  O   -0.252026   0.020377
     7  O   -0.138797   0.044070
     8  N   -0.022564   0.061073
     9  C   -0.241563  -0.244147
    10  O   -0.300428   0.039488
    11  C    1.072321  -0.224568
    12  C   -0.249456   0.123685
    13  C   -0.052875  -0.146353
    14  C   -0.644299   0.088560
    15  C   -0.056247   0.284305
    16  C   -0.084136  -0.235364
    17  O   -0.072525  -0.000599
    18  C   -0.980749   0.958075
    19  C    0.446378  -0.922134
    20  C    0.706278  -1.181779
    21  H    0.048113   0.097683
    22  H    0.034671   0.141786
    23  H   -0.011785   0.161303
    24  H    0.183429   0.009274
    25  H    0.126418   0.009590
    26  H    0.212314  -0.003283
    27  H    0.075530   0.082066
    28  H    0.472506  -0.296123
    29  H   -0.313851   0.603593
    30  H    0.290167   0.025809
    31  H    0.184552   0.005508
    32  H    0.145656   0.022513
    33  H    0.219878  -0.038905
    34  H    0.108958   0.163380
    35  H   -0.307550   0.484916
    36  H   -0.165117   0.295154
    37  H   -0.227982   0.381227
    38  H    0.144676   0.006492
    39  H    0.087147   0.068986
    40  H   -0.303518   0.458390
    41  H   -0.214083   0.338891
 Sum of Mulliken charges =  -1.00000   1.00000

 Dipole moment (field-independent basis, Debye):
    X=             -2.5721    Y=              2.4448    Z=              4.0694  Tot=              5.3993
 Quadrupole moment (field-independent basis, Debye-Ang):
   XX=           -211.3639   YY=           -175.2147   ZZ=           -151.8449
   XY=              6.1985   XZ=             -5.4954   YZ=              0.3652

 Summary of Natural Population Analysis:

                                       Natural Population
                Natural  -----------------------------------------------
    Atom  No    Charge         Core      Valence    Rydberg      Total
 -----------------------------------------------------------------------
      C    1   -0.28659      0.99965     2.28228    0.00466     3.28659
      C    2   -0.11615      0.99960     2.10706    0.00948     3.11615
      C    3   -0.28872      0.99965     2.28418    0.00490     3.28872
      C    4   -0.05550      0.99950     2.04126    0.01474     3.05550
      C    5    0.41068      0.99968     1.56255    0.02709     2.58932
      O    6   -0.30877      0.99987     3.30282    0.00608     4.30877
      O    7   -0.33932      0.99988     3.33267    0.00678     4.33932
      N    8   -0.32445      0.99967     2.81448    0.01030     3.82445
      C    9    0.35548      0.99957     1.62153    0.02342     2.64452
      O   10   -0.31039      0.99988     3.30566    0.00484     4.31039
      C   11   -0.08801      0.99945     2.07781    0.01075     3.08801
      C   12   -0.06607      0.99954     2.05859    0.00794     3.06607
      C   13   -0.13003      0.99953     2.12135    0.00915     3.13003
      C   14    0.18999      0.99938     1.79680    0.01382     2.81001
      C   15   -0.15452      0.99952     2.14686    0.00814     3.15452
      C   16   -0.06629      0.99954     2.05775    0.00900     3.06629
      O   17   -0.27966      0.99985     3.27010    0.00971     4.27966
      C   18    0.06531      0.99956     1.92127    0.01386     2.93469
      C   19   -0.29847      0.99964     2.29383    0.00500     3.29847
      C   20   -0.29889      0.99964     2.29414    0.00512     3.29889
      H   21    0.09827      0.00000     0.40089    0.00084     0.40173
      H   22    0.10406      0.00000     0.39511    0.00083     0.39594
      H   23    0.10014      0.00000     0.39905    0.00081     0.39986
      H   24    0.09914      0.00000     0.39909    0.00177     0.40086
      H   25    0.10009      0.00000     0.39905    0.00086     0.39991
      H   26    0.10821      0.00000     0.39098    0.00080     0.39179
      H   27    0.09817      0.00000     0.40110    0.00073     0.40183
      H   28    0.11771      0.00000     0.38009    0.00220     0.38229
      H   29    0.24335      0.00000     0.24449    0.01216     0.25665
      H   30    0.19167      0.00000     0.30643    0.00190     0.30833
      H   31    0.10692      0.00000     0.39212    0.00096     0.39308
      H   32    0.10346      0.00000     0.39563    0.00092     0.39654
      H   33    0.10288      0.00000     0.39533    0.00179     0.39712
      H   34    0.10800      0.00000     0.38992    0.00207     0.39200
      H   35    0.09027      0.00000     0.40826    0.00147     0.40973
      H   36    0.10138      0.00000     0.39750    0.00113     0.39862
      H   37    0.10357      0.00000     0.39539    0.00104     0.39643
      H   38    0.10340      0.00000     0.39580    0.00080     0.39660
      H   39    0.10433      0.00000     0.39481    0.00086     0.39567
      H   40    0.10412      0.00000     0.39458    0.00130     0.39588
      H   41    0.10128      0.00000     0.39747    0.00124     0.39872
 =======================================================================
   * Total *    0.00006     19.99260    54.76608    0.24125    74.99994

 Normal termination of Gaussian 16 at Mon Dec 14 15:03:57 2020.
