 Gaussian 16, Revision A.03,

 -----------------------------------------------------------
 # opt freq B3LYP/6-31G(d) empiricaldispersion=gd3bj scf=xqc
 -----------------------------------------------------------

 ------------------------------
 CID_63814529_JID_6058_neutraal
 ------------------------------
 Symbolic Z-matrix:
 Charge =  0 Multiplicity = 1

 SCF Done:  E(RB3LYP) =  -1044.83606093     A.U. after   15 cycles
 SCF Done:  E(RB3LYP) =  -1044.83913689     A.U. after   12 cycles
 SCF Done:  E(RB3LYP) =  -1044.83941630     A.U. after   13 cycles
 SCF Done:  E(RB3LYP) =  -1044.83979142     A.U. after   12 cycles
 SCF Done:  E(RB3LYP) =  -1044.84002772     A.U. after   12 cycles
 SCF Done:  E(RB3LYP) =  -1044.84011283     A.U. after   14 cycles
 SCF Done:  E(RB3LYP) =  -1044.84023552     A.U. after   12 cycles
 SCF Done:  E(RB3LYP) =  -1044.84031997     A.U. after   11 cycles
 SCF Done:  E(RB3LYP) =  -1044.84033184     A.U. after   11 cycles
 SCF Done:  E(RB3LYP) =  -1044.84033826     A.U. after   11 cycles
 SCF Done:  E(RB3LYP) =  -1044.84229554     A.U. after   11 cycles
 SCF Done:  E(RB3LYP) =  -1044.84230222     A.U. after   10 cycles
 SCF Done:  E(RB3LYP) =  -1044.84230225     A.U. after    9 cycles
 SCF Done:  E(RB3LYP) =  -1044.84230239     A.U. after    8 cycles
 SCF Done:  E(RB3LYP) =  -1044.84230248     A.U. after    7 cycles
 SCF Done:  E(RB3LYP) =  -1044.84230248     A.U. after    6 cycles
 Optimization completed.
    -- Stationary point found.
 Normal termination of Gaussian 16 at Thu Dec 10 21:31:43 2020.

 --------------------------------------------------------------------
 #N Geom=AllCheck Guess=TCheck SCRF=Check GenChk RB3LYP/6-31G(d) Freq
 --------------------------------------------------------------------

 Structure from the checkpoint file:  "JID_6058.chk"
 ------------------------------
 CID_63814529_JID_6058_neutraal
 ------------------------------
 Charge =  0 Multiplicity = 1

 SCF Done:  E(RB3LYP) =  -1044.84230248     A.U. after    1 cycles

  Exact polarizability: 215.495   3.872 149.436 -15.470   7.693 108.041
 Approx polarizability: 292.907  13.035 238.823 -38.992  16.493 179.887

                      1                      2                      3
                      A                      A                      A
 Frequencies --     13.4556                19.9607                33.9105
 Red. masses --      5.0677                 4.8497                 1.0185
 Frc consts  --      0.0005                 0.0011                 0.0007
 IR Inten    --      2.3428                 0.1420                 0.0700

                      4                      5                      6
                      A                      A                      A
 Frequencies --     42.3983                77.1797               117.5762
 Red. masses --      4.5410                 3.3288                 2.6154
 Frc consts  --      0.0048                 0.0117                 0.0213
 IR Inten    --      1.0977                 0.7590                 2.8196

                      7                      8                      9
                      A                      A                      A
 Frequencies --    161.6637               166.5416               191.6883
 Red. masses --      1.2274                 4.7761                 3.3158
 Frc consts  --      0.0189                 0.0780                 0.0718
 IR Inten    --      0.2115                 5.1075                 2.8174

                     10                     11                     12
                      A                      A                      A
 Frequencies --    202.6281               222.5608               264.9935
 Red. masses --      3.0185                 3.5960                 1.6422
 Frc consts  --      0.0730                 0.1049                 0.0679
 IR Inten    --      0.8281                 6.8173                38.5884

                     13                     14                     15
                      A                      A                      A
 Frequencies --    274.4667               311.2130               323.8071
 Red. masses --      2.7548                 5.5045                 2.9152
 Frc consts  --      0.1223                 0.3141                 0.1801
 IR Inten    --      2.8959                 1.8349                 8.9477

                     16                     17                     18
                      A                      A                      A
 Frequencies --    356.3337               376.4452               435.4680
 Red. masses --      3.5427                 3.9854                 4.3431
 Frc consts  --      0.2650                 0.3328                 0.4852
 IR Inten    --     20.9673                 6.6141                 3.8520

                     19                     20                     21
                      A                      A                      A
 Frequencies --    457.2232               484.0595               501.8562
 Red. masses --      3.5878                 7.6462                 1.4677
 Frc consts  --      0.4419                 1.0556                 0.2178
 IR Inten    --      5.1021                 3.9204                72.1907

                     22                     23                     24
                      A                      A                      A
 Frequencies --    524.8280               544.0432               569.8233
 Red. masses --      4.3167                 4.5379                 4.0102
 Frc consts  --      0.7006                 0.7913                 0.7672
 IR Inten    --      4.7502                 1.3529                 5.1217

                     25                     26                     27
                      A                      A                      A
 Frequencies --    662.8874               683.8525               712.6340
 Red. masses --      5.3691                 2.6357                 4.8729
 Frc consts  --      1.3901                 0.7262                 1.4581
 IR Inten    --      2.2902                18.7655                 2.9232

                     28                     29                     30
                      A                      A                      A
 Frequencies --    717.4244               738.6156               767.5715
 Red. masses --      3.4889                 8.7668                 3.8751
 Frc consts  --      1.0580                 2.8179                 1.3451
 IR Inten    --      4.1173                 7.7158                 4.9342

                     31                     32                     33
                      A                      A                      A
 Frequencies --    845.5720               882.0035               892.5368
 Red. masses --      1.2977                 1.3168                 1.3321
 Frc consts  --      0.5466                 0.6036                 0.6252
 IR Inten    --     19.2881                94.7213                14.9648

                     34                     35                     36
                      A                      A                      A
 Frequencies --    899.4737               974.2605               999.8686
 Red. masses --      5.7019                 1.2955                 2.9809
 Frc consts  --      2.7180                 0.7245                 1.7558
 IR Inten    --     12.4890                 4.2267                 4.9209

                     37                     38                     39
                      A                      A                      A
 Frequencies --   1007.8356              1020.3641              1028.5990
 Red. masses --      2.3008                 1.6699                 1.4910
 Frc consts  --      1.3769                 1.0243                 0.9294
 IR Inten    --      0.7802                18.9024                 4.9359

                     40                     41                     42
                      A                      A                      A
 Frequencies --   1073.4265              1074.4661              1075.5802
 Red. masses --      1.5506                 1.7680                 2.9845
 Frc consts  --      1.0526                 1.2026                 2.0342
 IR Inten    --      4.3054                 8.7820                11.9479

                     43                     44                     45
                      A                      A                      A
 Frequencies --   1079.8831              1131.0146              1148.4477
 Red. masses --      3.5393                 2.1135                 3.3473
 Frc consts  --      2.4318                 1.5929                 2.6012
 IR Inten    --      8.1075                 1.8288                30.3292

                     46                     47                     48
                      A                      A                      A
 Frequencies --   1151.2101              1188.7381              1212.6227
 Red. masses --      2.2524                 1.3310                 1.7878
 Frc consts  --      1.7588                 1.1082                 1.5489
 IR Inten    --      1.7286                 7.7589                 6.7914

                     49                     50                     51
                      A                      A                      A
 Frequencies --   1256.5184              1269.5680              1311.5275
 Red. masses --      2.7422                 3.9970                 1.3314
 Frc consts  --      2.5509                 3.7958                 1.3493
 IR Inten    --      2.4846                86.6534                 1.8099

                     52                     53                     54
                      A                      A                      A
 Frequencies --   1328.2689              1331.6148              1365.2607
 Red. masses --      2.2236                 3.1558                 1.8863
 Frc consts  --      2.3114                 3.2969                 2.0716
 IR Inten    --      3.0462                67.3289                 0.2786

                     55                     56                     57
                      A                      A                      A
 Frequencies --   1418.0945              1437.4386              1441.9728
 Red. masses --      2.8930                 1.5447                 2.0383
 Frc consts  --      3.4278                 1.8805                 2.4971
 IR Inten    --      3.8233                23.0202                 3.4473

                     58                     59                     60
                      A                      A                      A
 Frequencies --   1444.7357              1450.3829              1466.8151
 Red. masses --      1.4710                 1.4720                 3.3668
 Frc consts  --      1.8090                 1.8245                 4.2680
 IR Inten    --      1.8300                16.2118                99.1218

                     61                     62                     63
                      A                      A                      A
 Frequencies --   1509.9251              1514.5876              1517.0758
 Red. masses --      1.0629                 1.1078                 1.2367
 Frc consts  --      1.4278                 1.4972                 1.6770
 IR Inten    --      8.4644                 5.0497                10.8575

                     64                     65                     66
                      A                      A                      A
 Frequencies --   1530.2876              1532.0853              1538.4177
 Red. masses --      1.2746                 1.0808                 1.8899
 Frc consts  --      1.7586                 1.4947                 2.6353
 IR Inten    --      2.1056                10.7227                19.9877

                     67                     68                     69
                      A                      A                      A
 Frequencies --   1594.5008              1622.9313              1659.9751
 Red. masses --      4.6944                 6.5108                 5.5757
 Frc consts  --      7.0321                10.1039                 9.0521
 IR Inten    --     73.4815                 7.1917                 5.5750

                     70                     71                     72
                      A                      A                      A
 Frequencies --   1693.9532              2960.3398              3030.7389
 Red. masses --      1.1035                 1.0730                 1.0864
 Frc consts  --      1.8657                 5.5403                 5.8792
 IR Inten    --     36.3229                65.9887                30.2596

                     73                     74                     75
                      A                      A                      A
 Frequencies --   3037.5455              3057.2790              3084.8698
 Red. masses --      1.0392                 1.0403                 1.1001
 Frc consts  --      5.6494                 5.7289                 6.1681
 IR Inten    --     33.6615                18.9606                20.4915

                     76                     77                     78
                      A                      A                      A
 Frequencies --   3115.1348              3128.1422              3163.5667
 Red. masses --      1.0997                 1.0995                 1.1000
 Frc consts  --      6.2873                 6.3388                 6.4861
 IR Inten    --     13.3597                19.2292                 3.7210

                     79                     80                     81
                      A                      A                      A
 Frequencies --   3199.4955              3203.7910              3224.2032
 Red. masses --      1.0905                 1.0889                 1.0925
 Frc consts  --      6.5769                 6.5855                 6.6916
 IR Inten    --      8.1336                 3.6405                 4.5760

                     82                     83                     84
                      A                      A                      A
 Frequencies --   3469.8668              3557.9857              3652.5950
 Red. masses --      1.0504                 1.0922                 1.0816
 Frc consts  --      7.4511                 8.1463                 8.5019
 IR Inten    --      1.0369                 0.5545                75.2009

 - Thermochemistry -
 -------------------
 Temperature   298.150 Kelvin.  Pressure   1.00000 Atm.
 Atom     1 has atomic number  6 and mass  12.00000

 Molecular mass:   234.09392 amu.
 Principal axes and moments of inertia in atomic units:
                           1         2         3
     Eigenvalues --  1910.644037606.168268484.43516
           X            0.99996  -0.00717   0.00534
           Y            0.00703   0.99963   0.02619
           Z           -0.00553  -0.02615   0.99964
 This molecule is an asymmetric top.
 Rotational symmetry number  1.
 Warning -- assumption of classical behavior for rotation
           may cause significant error
 Rotational temperatures (Kelvin)      0.04533     0.01139     0.01021
 Rotational constants (GHZ):           0.94457     0.23727     0.21271
 Zero-point vibrational energy     638593.5 (Joules/Mol)
                                  152.62752 (Kcal/Mol)
 Warning -- explicit consideration of  24 degrees of freedom as
           vibrations may cause significant error
 Vibrational temperatures:     19.36    28.72    48.79    61.00   111.04
          (Kelvin)            169.17   232.60   239.62   275.80   291.54
                              320.22   381.27   394.90   447.77   465.89
                              512.68   541.62   626.54   657.84   696.45
                              722.06   755.11   782.76   819.85   953.75
                              983.91  1025.32  1032.21  1062.70  1104.36
                             1216.59  1269.01  1284.16  1294.14  1401.74
                             1438.59  1450.05  1468.08  1479.92  1544.42
                             1545.92  1547.52  1553.71  1627.28  1652.36
                             1656.33  1710.33  1744.69  1807.85  1826.63
                             1887.00  1911.08  1915.90  1964.31  2040.32
                             2068.15  2074.68  2078.65  2086.78  2110.42
                             2172.45  2179.15  2182.73  2201.74  2204.33
                             2213.44  2294.13  2335.04  2388.33  2437.22
                             4259.27  4360.56  4370.35  4398.74  4438.44
                             4481.98  4500.70  4551.67  4603.36  4609.54
                             4638.91  4992.36  5119.15  5255.27

 Zero-point correction=                           0.243227 (Hartree/Particle)
 Thermal correction to Energy=                    0.259351
 Thermal correction to Enthalpy=                  0.260295
 Thermal correction to Gibbs Free Energy=         0.196190
 Sum of electronic and zero-point Energies=          -1044.599075
 Sum of electronic and thermal Energies=             -1044.582951
 Sum of electronic and thermal Enthalpies=           -1044.582007
 Sum of electronic and thermal Free Energies=        -1044.646112

                     E (Thermal)             CV                S
                      KCal/Mol        Cal/Mol-Kelvin    Cal/Mol-Kelvin
 Total                  162.745             58.751            134.920
 Electronic               0.000              0.000              0.000
 Translational            0.889              2.981             42.253
 Rotational               0.889              2.981             33.177
 Vibrational            160.968             52.790             59.490
 Vibration     1          0.593              1.987              7.421
 Vibration     2          0.593              1.986              6.638
 Vibration     3          0.594              1.983              5.586
 Vibration     4          0.595              1.980              5.144
 Vibration     5          0.599              1.964              3.961
 Vibration     6          0.608              1.935              3.140
 Vibration     7          0.622              1.889              2.530
 Vibration     8          0.624              1.884              2.474
 Vibration     9          0.634              1.851              2.211
 Vibration    10          0.639              1.836              2.109
 Vibration    11          0.648              1.807              1.938
 Vibration    12          0.671              1.737              1.629
 Vibration    13          0.677              1.721              1.568
 Vibration    14          0.700              1.652              1.356
 Vibration    15          0.708              1.628              1.291
 Vibration    16          0.732              1.562              1.138
 Vibration    17          0.747              1.520              1.053
 Vibration    18          0.796              1.393              0.841
 Vibration    19          0.815              1.345              0.774
 Vibration    20          0.840              1.285              0.699
 Vibration    21          0.857              1.246              0.653
 Vibration    22          0.880              1.195              0.599
 Vibration    23          0.899              1.153              0.557
 Vibration    24          0.926              1.097              0.505

 Optimization completed.
    -- Stationary point found.
 Normal termination of Gaussian 16 at Thu Dec 10 21:39:57 2020.

 ----------------------------------------------------------------------
 # B3LYP/6-311++G(d,p) empiricaldispersion=gd3bj scf=xqc pop=npa geom=c
 heck
 ----------------------------------------------------------------------

 --------------------------------------
 CID_63814529_JID_6058_Energie_neutraal
 --------------------------------------
 Structure from the checkpoint file:  "JID_6058.chk"
 Charge =  0 Multiplicity = 1

 SCF Done:  E(RB3LYP) =  -1045.04835960     A.U. after   17 cycles
 Normal termination of Gaussian 16 at Thu Dec 10 21:44:11 2020.

 ----------------------------------------------------------------------
 # B3LYP/6-311++G(d,p) empiricaldispersion=gd3bj scf=xqc pop=npa geom=c
 heck
 ----------------------------------------------------------------------

 ------------------------------------
 CID_63814529_JID_6058_Energie_kation
 ------------------------------------
 Structure from the checkpoint file:  "JID_6058.chk"
 Charge =  1 Multiplicity = 2

 SCF Done:  E(UB3LYP) =  -1044.77532761     A.U. after   25 cycles
 Normal termination of Gaussian 16 at Thu Dec 10 21:53:36 2020.
 Gaussian 16:  ES64L-G16RevA.03 25-Dec-2016

 ----------------------------------------------------------------------
 # B3LYP/6-311++G(d,p) empiricaldispersion=gd3bj scf=xqc pop=npa geom=c
 heck
 ----------------------------------------------------------------------

 -----------------------------------
 CID_63814529_JID_6058_Energie_anion
 -----------------------------------
 Structure from the checkpoint file:  "JID_6058.chk"
 Charge = -1 Multiplicity = 2

                         Standard orientation:
 ---------------------------------------------------------------------
 Center     Atomic      Atomic             Coordinates (Angstroms)
 Number     Number       Type             X           Y           Z
 ---------------------------------------------------------------------
      1          6           0        2.111871    1.964164    1.603579
      2          6           0        1.856224    0.715060    0.794589
      3          6           0        2.835331    0.197997   -0.081399
      4          6           0        2.548455   -0.946857   -0.825672
      5          6           0        1.313810   -1.587844   -0.718842
      6          6           0        0.353450   -1.088627    0.158924
      7          6           0        0.633908    0.055163    0.912900
      8         16           0       -1.180464   -1.989813    0.359222
      9          6           0       -2.372820   -0.703207    0.136819
     10          7           0       -3.561820   -0.794170    0.722848
     11          7           0       -4.186172    0.316607    0.237121
     12          6           0       -3.362948    1.020332   -0.576590
     13          7           0       -2.200857    0.389958   -0.667563
     14          6           0       -3.725075    2.309949   -1.233203
     15          6           0        4.174648    0.894627   -0.220695
     16          7           0        5.157269    0.077344   -0.936604
     17          1           0        2.945092    1.833657    2.306309
     18          1           0        2.368895    2.816627    0.962174
     19          1           0        1.227119    2.239741    2.184590
     20          1           0        3.298750   -1.317995   -1.515236
     21          1           0        1.094888   -2.462643   -1.323055
     22          1           0       -0.117259    0.442357    1.594499
     23          1           0       -5.136160    0.514022    0.516908
     24          1           0       -4.773423    2.319885   -1.549454
     25          1           0       -3.566695    3.158150   -0.556267
     26          1           0       -3.090511    2.453946   -2.109794
     27          1           0        4.039005    1.822438   -0.795537
     28          1           0        4.515472    1.213716    0.779923
     29          1           0        6.010045    0.615707   -1.073204
     30          1           0        5.412137   -0.725317   -0.362486
 ---------------------------------------------------------------------

 SCF Done:  E(UB3LYP) =  -1045.04258107     A.U. after   32 cycles

 The electronic state is 2-A.
 Alpha  occ. eigenvalues --  -88.76832 -14.30004 -14.24815 -14.21395 -14.20924
 Alpha  occ. eigenvalues --  -10.16014 -10.15532 -10.11540 -10.11197 -10.09716
 Alpha  occ. eigenvalues --  -10.09222 -10.09190 -10.08786 -10.08635 -10.08447
 Alpha  occ. eigenvalues --  -10.08160  -7.85455  -5.81864  -5.81456  -5.80835
 Alpha  occ. eigenvalues --   -0.98688  -0.80949  -0.80570  -0.77695  -0.75923
 Alpha  occ. eigenvalues --   -0.70735  -0.67913  -0.64860  -0.63520  -0.60680
 Alpha  occ. eigenvalues --   -0.57091  -0.53315  -0.51258  -0.50428  -0.47422
 Alpha  occ. eigenvalues --   -0.44956  -0.42103  -0.40024  -0.38912  -0.38228
 Alpha  occ. eigenvalues --   -0.35944  -0.35556  -0.34769  -0.33906  -0.32923
 Alpha  occ. eigenvalues --   -0.32645  -0.32356  -0.31754  -0.30632  -0.30351
 Alpha  occ. eigenvalues --   -0.28494  -0.26248  -0.25746  -0.24486  -0.24028
 Alpha  occ. eigenvalues --   -0.22175  -0.19651  -0.19268  -0.17061  -0.16298
 Alpha  occ. eigenvalues --   -0.15785  -0.12598   0.03444
 Alpha virt. eigenvalues --    0.04495   0.06559   0.06727   0.07198   0.07707
 Alpha virt. eigenvalues --    0.07927   0.08509   0.08675   0.09264   0.10018
 Alpha virt. eigenvalues --    0.10539   0.10780   0.10949   0.11218   0.11538

  Beta  occ. eigenvalues --  -88.76832 -14.29947 -14.24810 -14.21389 -14.20885
  Beta  occ. eigenvalues --  -10.16016 -10.15532 -10.11535 -10.11174 -10.09712
  Beta  occ. eigenvalues --  -10.09222 -10.09132 -10.08785 -10.08633 -10.08432
  Beta  occ. eigenvalues --  -10.08154  -7.85455  -5.81864  -5.81455  -5.80835
  Beta  occ. eigenvalues --   -0.98658  -0.80909  -0.80512  -0.77675  -0.75888
  Beta  occ. eigenvalues --   -0.70713  -0.67898  -0.64802  -0.63465  -0.60656
  Beta  occ. eigenvalues --   -0.57036  -0.53234  -0.51237  -0.50401  -0.47400
  Beta  occ. eigenvalues --   -0.44891  -0.42065  -0.39995  -0.38879  -0.38195
  Beta  occ. eigenvalues --   -0.35919  -0.35515  -0.34732  -0.33859  -0.32883
  Beta  occ. eigenvalues --   -0.32612  -0.32320  -0.31711  -0.30607  -0.30327
  Beta  occ. eigenvalues --   -0.28472  -0.26231  -0.25737  -0.24467  -0.24012
  Beta  occ. eigenvalues --   -0.22151  -0.19642  -0.19259  -0.17037  -0.16277
  Beta  occ. eigenvalues --   -0.15753  -0.12585
  Beta virt. eigenvalues --    0.05574   0.06362   0.06622   0.07155   0.07273
  Beta virt. eigenvalues --    0.07993   0.08635   0.08792   0.09041   0.09519
  Beta virt. eigenvalues --    0.10278   0.10648   0.10833   0.11120   0.11433

 Mulliken charges and spin densities:
               1          2
     1  C    0.525781  -1.102658
     2  C   -0.765849   0.834254
     3  C   -0.294230   0.700419
     4  C   -0.097870  -0.302041
     5  C   -0.459802   0.058688
     6  C    1.163345  -0.139139
     7  C   -0.285106  -0.383624
     8  S   -0.557878   0.006062
     9  C   -0.614739   0.169737
    10  N   -0.014956   0.053816
    11  N   -0.009167  -0.194713
    12  C   -0.376340   0.864097
    13  N   -0.018475   0.008021
    14  C    1.835964  -2.405674
    15  C    0.480851  -0.988404
    16  N   -0.434039   0.074049
    17  H    0.041050   0.111354
    18  H    0.026130   0.130793
    19  H    0.060386   0.093095
    20  H    0.212192  -0.020950
    21  H    0.129114   0.029611
    22  H    0.124757   0.046873
    23  H   -0.366050   0.725070
    24  H   -0.503579   0.663534
    25  H   -0.312368   0.492757
    26  H    0.015433   0.153957
    27  H    0.031861   0.157193
    28  H   -0.354004   0.514753
    29  H   -0.196270   0.452440
    30  H    0.013858   0.196631
 Sum of Mulliken charges =  -1.00000   1.00000

 Dipole moment (field-independent basis, Debye):
    X=              2.8280    Y=             -2.8857    Z=              0.7603  Tot=              4.1113
 Quadrupole moment (field-independent basis, Debye-Ang):
   XX=           -233.5320   YY=           -136.8876   ZZ=           -129.8405
   XY=              5.1350   XZ=              3.4772   YZ=              4.0300

 Summary of Natural Population Analysis:

                                       Natural Population
                Natural  -----------------------------------------------
    Atom  No    Charge         Core      Valence    Rydberg      Total
 -----------------------------------------------------------------------
      C    1   -0.29369      0.99964     2.28942    0.00464     3.29369
      C    2   -0.01140      0.99948     2.00272    0.00920     3.01140
      C    3   -0.01711      0.99947     2.00727    0.01037     3.01711
      C    4   -0.09931      0.99951     2.09120    0.00860     3.09931
      C    5   -0.10469      0.99949     2.09482    0.01037     3.10469
      C    6   -0.08367      0.99939     2.07188    0.01240     3.08367
      C    7   -0.09535      0.99945     2.08620    0.00970     3.09535
      S    8    0.14298      4.99944     2.83789    0.01969     7.85702
      C    9    0.08886      0.99959     1.88770    0.02385     2.91114
      N   10   -0.17112      0.99968     2.65854    0.01290     3.67112
      N   11   -0.17723      0.99965     2.66423    0.01336     3.67723
      C   12    0.20072      0.99963     1.78366    0.01600     2.79928
      N   13   -0.27126      0.99966     2.76181    0.00978     3.77126
      C   14   -0.30809      0.99963     2.30259    0.00587     3.30809
      C   15   -0.09669      0.99960     2.08567    0.01143     3.09669
      N   16   -0.42178      0.99978     2.91136    0.01065     3.92178
      H   17    0.10411      0.00000     0.39450    0.00140     0.39589
      H   18    0.10451      0.00000     0.39434    0.00114     0.39549
      H   19    0.10355      0.00000     0.39567    0.00078     0.39645
      H   20    0.11150      0.00000     0.38727    0.00123     0.38850
      H   21    0.10306      0.00000     0.39587    0.00107     0.39694
      H   22    0.10392      0.00000     0.39459    0.00148     0.39608
      H   23    0.20949      0.00000     0.28058    0.00993     0.29051
      H   24    0.11274      0.00000     0.38444    0.00282     0.38726
      H   25    0.11315      0.00000     0.38537    0.00147     0.38685
      H   26    0.11491      0.00000     0.38410    0.00099     0.38509
      H   27    0.09800      0.00000     0.40085    0.00116     0.40200
      H   28    0.08710      0.00000     0.41075    0.00215     0.41290
      H   29    0.17965      0.00000     0.31761    0.00274     0.32035
      H   30    0.17315      0.00000     0.32502    0.00183     0.32685
 =======================================================================
   * Total *    0.00000     19.99308    41.78793    0.21900    62.00000

 Normal termination of Gaussian 16 at Thu Dec 10 22:06:45 2020.
