 Gaussian 16, Revision A.03,

 -----------------------------------------------------------
 # opt freq B3LYP/6-31G(d) empiricaldispersion=gd3bj scf=xqc
 -----------------------------------------------------------

 -----------------------------
 CID_60085578_JID_754_neutraal
 -----------------------------
 Symbolic Z-matrix:
 Charge =  0 Multiplicity = 1

 SCF Done:  E(RB3LYP) =  -438.799074487     A.U. after   15 cycles
 SCF Done:  E(RB3LYP) =  -438.804264598     A.U. after   13 cycles
 SCF Done:  E(RB3LYP) =  -438.804724804     A.U. after   11 cycles
 SCF Done:  E(RB3LYP) =  -438.804853477     A.U. after   12 cycles
 SCF Done:  E(RB3LYP) =  -438.804960116     A.U. after   10 cycles
 SCF Done:  E(RB3LYP) =  -438.805028842     A.U. after   11 cycles
 SCF Done:  E(RB3LYP) =  -438.805067255     A.U. after   11 cycles
 SCF Done:  E(RB3LYP) =  -438.805083226     A.U. after    9 cycles
 SCF Done:  E(RB3LYP) =  -438.805109729     A.U. after   11 cycles
 SCF Done:  E(RB3LYP) =  -438.805112583     A.U. after   10 cycles
 SCF Done:  E(RB3LYP) =  -438.805113151     A.U. after    8 cycles
 SCF Done:  E(RB3LYP) =  -438.805113307     A.U. after    7 cycles
 SCF Done:  E(RB3LYP) =  -438.805113392     A.U. after    7 cycles
 Optimization completed.
    -- Stationary point found.

 1\1\GINC-NODE125\FOpt\RB3LYP\6-31G(d)\C7H13N3\VSC10255\08-Dec-2020\0\\
 # opt freq B3LYP/6-31G(d) empiricaldispersion=gd3bj scf=xqc\\CID_60085
 578_JID_754_neutraal\\0,1\C,1.0454205912,-0.0724416701,-0.0916098214\C
 ,0.3751291001,-1.3696400844,-0.5057895131\N,-0.5971464691,-1.924976121
 6,0.130358661\N,0.8740585345,-1.9884866336,-1.6358565191\C,1.939643295
 9,-1.4331460589,-2.4476524458\C,0.1356921298,-3.1016116234,-2.23311288
 58\C,0.7358925488,-4.4708249025,-1.8923226774\C,0.4408626347,-4.919874
 9455,-0.4538440097\N,-0.9360403976,-5.2483998454,-0.2917121745\C,-2.08

 Normal termination of Gaussian 16 at Tue Dec  8 12:43:05 2020.

 --------------------------------------------------------------------
 #N Geom=AllCheck Guess=TCheck SCRF=Check GenChk RB3LYP/6-31G(d) Freq
 --------------------------------------------------------------------

 Structure from the checkpoint file:  "JID_754.chk"
 -----------------------------
 CID_60085578_JID_754_neutraal
 -----------------------------
 Charge =  0 Multiplicity = 1

 SCF Done:  E(RB3LYP) =  -438.805113392     A.U. after    1 cycles

  Exact polarizability: 101.122  -6.846  97.136  -7.285   2.532  70.302
 Approx polarizability: 130.960 -19.415 143.479 -15.832   9.410 107.742

                      1                      2                      3
                      A                      A                      A
 Frequencies --     37.4573                62.0836                85.4025
 Red. masses --      4.5405                 5.8077                 3.0146
 Frc consts  --      0.0038                 0.0132                 0.0130
 IR Inten    --      1.5078                 1.2738                 2.9616

                      4                      5                      6
                      A                      A                      A
 Frequencies --    106.8414               121.7678               138.1166
 Red. masses --      1.4431                 4.8345                 2.0526
 Frc consts  --      0.0097                 0.0422                 0.0231
 IR Inten    --      0.9526                 7.9143                 1.1079

                      7                      8                      9
                      A                      A                      A
 Frequencies --    195.1479               223.0725               255.3790
 Red. masses --      3.0813                 1.1123                 5.1144
 Frc consts  --      0.0691                 0.0326                 0.1965
 IR Inten    --      6.5522                 0.6219                 1.9575

                     10                     11                     12
                      A                      A                      A
 Frequencies --    290.6493               339.9503               408.4007
 Red. masses --      3.0719                 2.6321                 2.6411
 Frc consts  --      0.1529                 0.1792                 0.2595
 IR Inten    --      6.4152                 4.9301                 1.7848

                     13                     14                     15
                      A                      A                      A
 Frequencies --    442.3212               495.5789               534.2866
 Red. masses --      2.0680                 2.2665                 2.7632
 Frc consts  --      0.2384                 0.3280                 0.4647
 IR Inten    --      3.4458                 1.4013                 2.8688

                     16                     17                     18
                      A                      A                      A
 Frequencies --    570.8623               573.1516               737.1013
 Red. masses --      3.5232                 3.1979                 3.0386
 Frc consts  --      0.6765                 0.6190                 0.9727
 IR Inten    --     17.1574                 8.8696                 1.9641

                     19                     20                     21
                      A                      A                      A
 Frequencies --    793.3457               813.5593               864.3427
 Red. masses --      1.1314                 2.0162                 2.8774
 Frc consts  --      0.4196                 0.7862                 1.2665
 IR Inten    --     38.0323                 3.8285                 1.7322

                     22                     23                     24
                      A                      A                      A
 Frequencies --    927.7082               965.4754              1029.7055
 Red. masses --      2.1761                 2.3398                 1.9183
 Frc consts  --      1.1035                 1.2850                 1.1984
 IR Inten    --     16.9724                 6.9752                15.4369

                     25                     26                     27
                      A                      A                      A
 Frequencies --   1050.5091              1071.2238              1096.9552
 Red. masses --      1.7502                 1.6014                 1.8455
 Frc consts  --      1.1380                 1.0827                 1.3084
 IR Inten    --     23.3979                 5.9075                11.0370

                     28                     29                     30
                      A                      A                      A
 Frequencies --   1102.0632              1114.6365              1156.2918
 Red. masses --      2.3161                 1.6797                 1.3179
 Frc consts  --      1.6574                 1.2295                 1.0382
 IR Inten    --     12.2938                93.0346                11.8917

                     31                     32                     33
                      A                      A                      A
 Frequencies --   1210.8250              1255.1823              1271.8223
 Red. masses --      1.3602                 1.3680                 1.8668
 Frc consts  --      1.1750                 1.2698                 1.7791
 IR Inten    --     34.5301                13.7861                 3.2541

                     34                     35                     36
                      A                      A                      A
 Frequencies --   1324.1855              1371.3859              1394.2502
 Red. masses --      1.3815                 1.4063                 1.3003
 Frc consts  --      1.4273                 1.5583                 1.4893
 IR Inten    --     19.8990                40.9144                25.4109

                     37                     38                     39
                      A                      A                      A
 Frequencies --   1412.1956              1427.5923              1431.8797
 Red. masses --      1.4204                 1.2708                 1.3085
 Frc consts  --      1.6690                 1.5259                 1.5806
 IR Inten    --      5.5250                10.7818                10.6851

                     40                     41                     42
                      A                      A                      A
 Frequencies --   1472.2349              1494.3629              1502.7309
 Red. masses --      1.8096                 1.1329                 1.0992
 Frc consts  --      2.3109                 1.4906                 1.4625
 IR Inten    --     69.5439                 7.0889                 1.2035

                     43                     44                     45
                      A                      A                      A
 Frequencies --   1506.7412              1510.0167              1512.8106
 Red. masses --      1.0898                 1.0722                 1.0721
 Frc consts  --      1.4577                 1.4405                 1.4456
 IR Inten    --     30.4434                21.6234                20.0364

                     46                     47                     48
                      A                      A                      A
 Frequencies --   1522.5650              1536.2680              1552.4162
 Red. masses --      1.1894                 1.1122                 1.2376
 Frc consts  --      1.6246                 1.5465                 1.7574
 IR Inten    --     11.5693                 3.0580                32.9706

                     49                     50                     51
                      A                      A                      A
 Frequencies --   1694.3112              2244.8468              2999.0435
 Red. masses --      5.9411                12.5120                 1.0571
 Frc consts  --     10.0485                37.1492                 5.6017
 IR Inten    --    205.7509               117.5589                76.9190

                     52                     53                     54
                      A                      A                      A
 Frequencies --   3044.7422              3052.5544              3054.4199
 Red. masses --      1.0659                 1.0645                 1.0398
 Frc consts  --      5.8217                 5.8440                 5.7158
 IR Inten    --     19.4771                45.4364                14.6248

                     55                     56                     57
                      A                      A                      A
 Frequencies --   3069.4227              3088.9859              3092.6016
 Red. masses --      1.0636                 1.0839                 1.1032
 Frc consts  --      5.9037                 6.0934                 6.2168
 IR Inten    --     30.3831                32.5689                29.7336

                     58                     59                     60
                      A                      A                      A
 Frequencies --   3113.5177              3131.5518              3141.7217
 Red. masses --      1.1007                 1.0999                 1.0957
 Frc consts  --      6.2866                 6.3552                 6.3720
 IR Inten    --     13.6605                 6.3831                 3.7395

                     61                     62                     63
                      A                      A                      A
 Frequencies --   3150.5025              3161.5997              3505.0785
 Red. masses --      1.1007                 1.0962                 1.0757
 Frc consts  --      6.4367                 6.4558                 7.7865
 IR Inten    --     18.6369                18.2981                 1.2512

 - Thermochemistry -
 -------------------
 Temperature   298.150 Kelvin.  Pressure   1.00000 Atm.
 Atom     1 has atomic number  6 and mass  12.00000

 Molecular mass:   139.11095 amu.
 Principal axes and moments of inertia in atomic units:
                           1         2         3
     Eigenvalues --   817.926522106.666142626.57386
           X            0.99976   0.02169   0.00249
           Y           -0.02165   0.99966  -0.01419
           Z           -0.00280   0.01413   0.99990
 This molecule is an asymmetric top.
 Rotational symmetry number  1.
 Warning -- assumption of classical behavior for rotation
           may cause significant error
 Rotational temperatures (Kelvin)      0.10589     0.04111     0.03298
 Rotational constants (GHZ):           2.20648     0.85668     0.68711
 Zero-point vibrational energy     525506.1 (Joules/Mol)
                                  125.59896 (Kcal/Mol)
 Warning -- explicit consideration of  17 degrees of freedom as
           vibrations may cause significant error
 Vibrational temperatures:     53.89    89.32   122.88   153.72   175.20
          (Kelvin)            198.72   280.77   320.95   367.43   418.18
                              489.11   587.60   636.40   713.03   768.72
                              821.34   824.64  1060.52  1141.45  1170.53
                             1243.60  1334.77  1389.10  1481.52  1511.45
                             1541.25  1578.27  1585.62  1603.71  1663.65
                             1742.11  1805.93  1829.87  1905.21  1973.12
                             2006.02  2031.83  2053.99  2060.16  2118.22
                             2150.05  2162.09  2167.86  2172.58  2176.60
                             2190.63  2210.35  2233.58  2437.74  3229.83
                             4314.95  4380.70  4391.94  4394.63  4416.21
                             4444.36  4449.56  4479.66  4505.60  4520.24
                             4532.87  4548.84  5043.03

 Zero-point correction=                           0.200155 (Hartree/Particle)
 Thermal correction to Energy=                    0.211953
 Thermal correction to Enthalpy=                  0.212897
 Thermal correction to Gibbs Free Energy=         0.161723
 Sum of electronic and zero-point Energies=           -438.604959
 Sum of electronic and thermal Energies=              -438.593160
 Sum of electronic and thermal Enthalpies=            -438.592216
 Sum of electronic and thermal Free Energies=         -438.643390

                     E (Thermal)             CV                S
                      KCal/Mol        Cal/Mol-Kelvin    Cal/Mol-Kelvin
 Total                  133.002             41.204            107.705
 Electronic               0.000              0.000              0.000
 Translational            0.889              2.981             40.702
 Rotational               0.889              2.981             29.894
 Vibrational            131.225             35.242             37.109
 Vibration     1          0.594              1.982              5.389
 Vibration     2          0.597              1.972              4.390
 Vibration     3          0.601              1.959              3.763
 Vibration     4          0.606              1.944              3.326
 Vibration     5          0.609              1.931              3.072
 Vibration     6          0.614              1.915              2.830
 Vibration     7          0.636              1.847              2.178
 Vibration     8          0.649              1.806              1.934
 Vibration     9          0.666              1.754              1.693
 Vibration    10          0.687              1.691              1.470
 Vibration    11          0.720              1.596              1.212
 Vibration    12          0.773              1.452              0.932
 Vibration    13          0.802              1.378              0.819
 Vibration    14          0.851              1.260              0.669
 Vibration    15          0.889              1.174              0.578
 Vibration    16          0.927              1.094              0.503
 Vibration    17          0.929              1.089              0.498

                           ! Non-Optimized Parameters !

 1\1\GINC-NODE125\Freq\RB3LYP\6-31G(d)\C7H13N3\VSC10255\08-Dec-2020\0\\
 #N Geom=AllCheck Guess=TCheck SCRF=Check GenChk RB3LYP/6-31G(d) Freq\\
 CID_60085578_JID_754_neutraal\\0,1\C,1.0454205912,-0.0724416701,-0.091
 6098214\C,0.3751291001,-1.3696400844,-0.5057895131\N,-0.5971464691,-1.
 9249761216,0.130358661\N,0.8740585345,-1.9884866336,-1.6358565191\C,1.
 9396432959,-1.4331460589,-2.4476524458\C,0.1356921298,-3.1016116234,-2
 .2331128858\C,0.7358925488,-4.4708249025,-1.8923226774\C,0.4408626347,
 -4.9198749455,-0.4538440097\N,-0.9360403976,-5.2483998454,-0.291712174

 Normal termination of Gaussian 16 at Tue Dec  8 13:04:03 2020.

 ----------------------------------------------------------------------
 # B3LYP/6-311++G(d,p) empiricaldispersion=gd3bj scf=xqc pop=npa geom=c
 heck
 ----------------------------------------------------------------------

 -------------------------------------
 CID_60085578_JID_754_Energie_neutraal
 -------------------------------------
 Structure from the checkpoint file:  "JID_754.chk"
 Charge =  0 Multiplicity = 1

 SCF Done:  E(RB3LYP) =  -438.934153656     A.U. after   14 cycles
 Normal termination of Gaussian 16 at Tue Dec  8 13:10:50 2020.

 ----------------------------------------------------------------------
 # B3LYP/6-311++G(d,p) empiricaldispersion=gd3bj scf=xqc pop=npa geom=c
 heck
 ----------------------------------------------------------------------

 -----------------------------------
 CID_60085578_JID_754_Energie_kation
 -----------------------------------
 Structure from the checkpoint file:  "JID_754.chk"
 Charge =  1 Multiplicity = 2

 SCF Done:  E(UB3LYP) =  -438.632673796     A.U. after   22 cycles
 Normal termination of Gaussian 16 at Tue Dec  8 13:17:36 2020.
 Gaussian 16:  ES64L-G16RevA.03 25-Dec-2016

 ----------------------------------
 CID_60085578_JID_754_Energie_anion
 ----------------------------------
 Structure from the checkpoint file:  "JID_754.chk"
 Charge = -1 Multiplicity = 2

                         Standard orientation:
 ---------------------------------------------------------------------
 Center     Atomic      Atomic             Coordinates (Angstroms)
 Number     Number       Type             X           Y           Z
 ---------------------------------------------------------------------
      1          6           0       -2.767143   -1.228583    0.348545
      2          6           0       -1.357445   -0.839498   -0.057566
      3          7           0       -0.398516   -1.675064   -0.259272
      4          7           0       -1.105677    0.512106   -0.194437
      5          6           0       -2.119378    1.535612   -0.027907
      6          6           0        0.145841    0.952994   -0.811095
      7          6           0        1.184436    1.426733    0.212631
      8          6           0        1.853120    0.273316    0.974471
      9          7           0        2.721704   -0.468160    0.122501
     10          6           0        3.406193   -1.064742   -0.625875
     11          1           0       -2.858130   -2.316783    0.350177
     12          1           0       -3.517695   -0.821066   -0.337709
     13          1           0       -3.009819   -0.869029    1.355431
     14          1           0       -0.730365   -2.630472   -0.136919
     15          1           0       -1.646664    2.455096    0.333649
     16          1           0       -2.639984    1.774127   -0.969443
     17          1           0       -2.864068    1.243601    0.713264
     18          1           0        0.549746    0.124180   -1.396253
     19          1           0       -0.089707    1.775365   -1.498101
     20          1           0        1.961844    2.010911   -0.294319
     21          1           0        0.705996    2.090125    0.944315
     22          1           0        2.444433    0.661690    1.811367
     23          1           0        1.098095   -0.414910    1.363768
 ---------------------------------------------------------------------

 SCF Done:  E(UB3LYP) =  -438.925777438     A.U. after   29 cycles

 The electronic state is 2-A.
 Alpha  occ. eigenvalues --  -14.24291 -14.22921 -14.16254 -10.13932 -10.12868
 Alpha  occ. eigenvalues --  -10.10047 -10.09797 -10.09145 -10.08071 -10.07158
 Alpha  occ. eigenvalues --   -0.86208  -0.84976  -0.76504  -0.70258  -0.64191
 Alpha  occ. eigenvalues --   -0.61339  -0.59027  -0.53063  -0.45253  -0.43082
 Alpha  occ. eigenvalues --   -0.39479  -0.38632  -0.37617  -0.35357  -0.34274
 Alpha  occ. eigenvalues --   -0.32660  -0.31396  -0.30501  -0.29396  -0.28157
 Alpha  occ. eigenvalues --   -0.27171  -0.26558  -0.22936  -0.22483  -0.21900
 Alpha  occ. eigenvalues --   -0.20818  -0.15672  -0.11674   0.04203
 Alpha virt. eigenvalues --    0.06814   0.07610   0.08582   0.09403   0.09821
 Alpha virt. eigenvalues --    0.10046   0.11237   0.11381   0.11687   0.12529
 Alpha virt. eigenvalues --    0.12675   0.13293   0.13871   0.14310   0.14763

  Beta  occ. eigenvalues --  -14.24294 -14.22919 -14.16247 -10.13927 -10.12849
  Beta  occ. eigenvalues --  -10.10038 -10.09787 -10.09078 -10.08043 -10.07104
  Beta  occ. eigenvalues --   -0.86192  -0.84966  -0.76484  -0.70224  -0.64141
  Beta  occ. eigenvalues --   -0.61268  -0.58942  -0.53009  -0.45199  -0.43027
  Beta  occ. eigenvalues --   -0.39431  -0.38600  -0.37576  -0.35299  -0.34226
  Beta  occ. eigenvalues --   -0.32611  -0.31341  -0.30456  -0.29342  -0.28100
  Beta  occ. eigenvalues --   -0.27143  -0.26523  -0.22910  -0.22463  -0.21860
  Beta  occ. eigenvalues --   -0.20796  -0.15653  -0.11653
  Beta virt. eigenvalues --    0.06899   0.07668   0.08428   0.09310   0.10113
  Beta virt. eigenvalues --    0.10307   0.10666   0.11499   0.11823   0.12090
  Beta virt. eigenvalues --    0.12761   0.13003   0.13594   0.14291   0.14699

 Mulliken charges and spin densities:
               1          2
     1  C    1.757433  -2.464628
     2  C   -1.008026   1.024974
     3  N   -0.532024   0.115529
     4  N   -0.021764   0.202433
     5  C    2.114771  -2.457500
     6  C   -1.183870   0.959828
     7  C    0.774724  -1.067483
     8  C    0.114751  -0.574031
     9  N    0.205383   0.042285
    10  C   -0.282942  -0.023006
    11  H   -0.159285   0.280523
    12  H   -0.434216   0.606521
    13  H   -0.385253   0.577607
    14  H    0.183845   0.024888
    15  H   -0.558171   0.706562
    16  H   -0.461959   0.637647
    17  H   -0.482519   0.641818
    18  H    0.088693   0.118136
    19  H   -0.187460   0.375705
    20  H   -0.011467   0.162752
    21  H   -0.312788   0.459308
    22  H   -0.308006   0.523691
    23  H    0.090150   0.126442
 Sum of Mulliken charges =  -1.00000   1.00000

 Dipole moment (field-independent basis, Debye):
    X=              3.1687    Y=             -2.0523    Z=             -1.0306  Tot=              3.9134
 Quadrupole moment (field-independent basis, Debye-Ang):
   XX=           -132.0425   YY=           -102.6420   ZZ=            -94.8887
   XY=             12.3909   XZ=              6.6969   YZ=             -5.7302

 Summary of Natural Population Analysis:

                                       Natural Population
                Natural  -----------------------------------------------
    Atom  No    Charge         Core      Valence    Rydberg      Total
 -----------------------------------------------------------------------
      C    1   -0.31865      0.99962     2.31337    0.00565     3.31865
      C    2    0.23915      0.99961     1.74409    0.01715     2.76085
      N    3   -0.38593      0.99971     2.87773    0.00849     3.88593
      N    4   -0.26291      0.99965     2.74854    0.01472     3.76291
      C    5   -0.17446      0.99963     2.16641    0.00842     3.17446
      C    6   -0.08746      0.99960     2.07606    0.01180     3.08746
      C    7   -0.19132      0.99961     2.18324    0.00846     3.19132
      C    8   -0.10523      0.99955     2.09480    0.01087     3.10523
      N    9   -0.25119      0.99961     2.73982    0.01175     3.75119
      C   10    0.11064      0.99976     1.87799    0.01161     2.88936
      H   11    0.10344      0.00000     0.39567    0.00089     0.39656
      H   12    0.11068      0.00000     0.38784    0.00149     0.38932
      H   13    0.11357      0.00000     0.38425    0.00217     0.38643
      H   14    0.16379      0.00000     0.33436    0.00185     0.33621
      H   15    0.09993      0.00000     0.39740    0.00267     0.40007
      H   16    0.09132      0.00000     0.40618    0.00249     0.40868
      H   17    0.10551      0.00000     0.39146    0.00303     0.39449
      H   18    0.11542      0.00000     0.38271    0.00187     0.38458
      H   19    0.09536      0.00000     0.40350    0.00114     0.40464
      H   20    0.09799      0.00000     0.40083    0.00118     0.40201
      H   21    0.10601      0.00000     0.39183    0.00216     0.39399
      H   22    0.10451      0.00000     0.39416    0.00133     0.39549
      H   23    0.11982      0.00000     0.37808    0.00210     0.38018
 =======================================================================
   * Total *   -0.00000      9.99635    27.87034    0.13331    38.00000

 Normal termination of Gaussian 16 at Tue Dec  8 13:30:35 2020.
