 Gaussian 16, Revision A.03,

 -----------------------------------------------------------
 # opt freq B3LYP/6-31G(d) empiricaldispersion=gd3bj scf=xqc
 -----------------------------------------------------------

 -----------------------------
 CID_12303777_JID_665_neutraal
 -----------------------------
 Symbolic Z-matrix:
 Charge =  0 Multiplicity = 1

 SCF Done:  E(RB3LYP) =  -537.958192306     A.U. after   12 cycles
 SCF Done:  E(RB3LYP) =  -537.961086017     A.U. after   11 cycles
 SCF Done:  E(RB3LYP) =  -537.961133894     A.U. after   11 cycles
 SCF Done:  E(RB3LYP) =  -537.961585768     A.U. after   10 cycles
 SCF Done:  E(RB3LYP) =  -537.961062294     A.U. after   11 cycles
 SCF Done:  E(RB3LYP) =  -537.961681881     A.U. after   10 cycles
 SCF Done:  E(RB3LYP) =  -537.961951369     A.U. after   11 cycles
 SCF Done:  E(RB3LYP) =  -537.961979188     A.U. after   10 cycles
 SCF Done:  E(RB3LYP) =  -537.961988412     A.U. after   10 cycles
 SCF Done:  E(RB3LYP) =  -537.961998209     A.U. after    9 cycles
 SCF Done:  E(RB3LYP) =  -537.961999198     A.U. after    7 cycles
 SCF Done:  E(RB3LYP) =  -537.961999287     A.U. after    7 cycles
 Optimization completed.
    -- Stationary point found.

 1\1\GINC-NODE307\FOpt\RB3LYP\6-31G(d)\C6H14O4\VSC10255\08-Dec-2020\0\\
 # opt freq B3LYP/6-31G(d) empiricaldispersion=gd3bj scf=xqc\\CID_12303
 777_JID_665_neutraal\\0,1\C,1.0225313405,0.1013259951,-0.0457655315\C,
 0.7774935901,-0.8916867327,1.0830107223\C,1.1303075016,-0.3599037749,2
 .4794866839\C,0.6023899577,1.0344672967,2.8421030114\C,-0.9151773529,1
 .3029048745,2.8640387059\C,-1.707966565,0.3386121211,3.7528683292\O,-1
 .1161634108,0.2106075058,5.0404768711\O,-1.1141428633,2.6438213103,3.3
 177322097\O,0.7429452796,-1.3403129019,3.4561484162\O,-0.6034801896,-1

 Normal termination of Gaussian 16 at Tue Dec  8 12:27:36 2020.

 --------------------------------------------------------------------
 #N Geom=AllCheck Guess=TCheck SCRF=Check GenChk RB3LYP/6-31G(d) Freq
 --------------------------------------------------------------------

 Structure from the checkpoint file:  "JID_665.chk"
 -----------------------------
 CID_12303777_JID_665_neutraal
 -----------------------------
 Charge =  0 Multiplicity = 1

 SCF Done:  E(RB3LYP) =  -537.961999287     A.U. after    1 cycles

  Exact polarizability:  86.451  -1.286  71.711  -0.536  -0.746  72.722
 Approx polarizability: 109.585  -1.033 102.971  -2.433   0.675 106.046

                      1                      2                      3
                      A                      A                      A
 Frequencies --     73.6108                98.4900               127.5626
 Red. masses --      4.4485                 3.7054                 4.6430
 Frc consts  --      0.0142                 0.0212                 0.0445
 IR Inten    --      0.8595                 2.1377                 1.0419

                      4                      5                      6
                      A                      A                      A
 Frequencies --    150.8139               209.1668               246.8008
 Red. masses --      4.6641                 4.0735                 1.8985
 Frc consts  --      0.0625                 0.1050                 0.0681
 IR Inten    --      4.3675                 4.1462                 3.5469

                      7                      8                      9
                      A                      A                      A
 Frequencies --    258.5352               284.4417               287.7039
 Red. masses --      2.2920                 1.9072                 3.7731
 Frc consts  --      0.0903                 0.0909                 0.1840
 IR Inten    --      3.1330                19.2810                10.0371

                     10                     11                     12
                      A                      A                      A
 Frequencies --    303.5904               369.0815               398.7200
 Red. masses --      1.2845                 3.4189                 2.6224
 Frc consts  --      0.0698                 0.2744                 0.2456
 IR Inten    --     55.4374                 5.0131                 6.0346

                     13                     14                     15
                      A                      A                      A
 Frequencies --    423.3516               460.6786               507.8951
 Red. masses --      1.9677                 1.2768                 2.2527
 Frc consts  --      0.2078                 0.1596                 0.3424
 IR Inten    --      7.2267                84.1493                 8.1242

                     16                     17                     18
                      A                      A                      A
 Frequencies --    513.3890               542.0734               632.6920
 Red. masses --      3.6441                 1.1108                 2.2208
 Frc consts  --      0.5659                 0.1923                 0.5238
 IR Inten    --     15.0047               170.4568                 5.7871

                     19                     20                     21
                      A                      A                      A
 Frequencies --    724.9208               744.9052               775.9389
 Red. masses --      1.1927                 3.5074                 2.7086
 Frc consts  --      0.3693                 1.1467                 0.9608
 IR Inten    --     91.9842                 8.6928                 7.6742

                     22                     23                     24
                      A                      A                      A
 Frequencies --    836.6698               903.0278               930.8939
 Red. masses --      3.2626                 2.3500                 2.1112
 Frc consts  --      1.3456                 1.1291                 1.0779
 IR Inten    --     28.1020                 9.4228                25.1164

                     25                     26                     27
                      A                      A                      A
 Frequencies --    946.1765              1019.4926              1042.2195
 Red. masses --      1.9806                 1.5755                 2.5060
 Frc consts  --      1.0447                 0.9648                 1.6038
 IR Inten    --     19.3991                20.1859                69.9922

                     28                     29                     30
                      A                      A                      A
 Frequencies --   1047.7179              1078.1380              1099.8212
 Red. masses --      2.4682                 2.4210                 2.6403
 Frc consts  --      1.5963                 1.6580                 1.8817
 IR Inten    --     80.7890                50.8180                59.8079

                     31                     32                     33
                      A                      A                      A
 Frequencies --   1127.2759              1146.0842              1156.2453
 Red. masses --      2.7690                 1.6862                 2.2037
 Frc consts  --      2.0732                 1.3049                 1.7358
 IR Inten    --     11.1981                78.2825                11.6031

                     34                     35                     36
                      A                      A                      A
 Frequencies --   1219.7988              1233.3399              1273.5749
 Red. masses --      1.1956                 1.1368                 1.3211
 Frc consts  --      1.0481                 1.0189                 1.2625
 IR Inten    --     39.0337                20.6743                19.1156

                     37                     38                     39
                      A                      A                      A
 Frequencies --   1282.8773              1303.7979              1368.1466
 Red. masses --      1.2678                 1.3635                 1.5202
 Frc consts  --      1.2294                 1.3656                 1.6766
 IR Inten    --     16.5330                32.7703                15.5521

                     40                     41                     42
                      A                      A                      A
 Frequencies --   1386.4534              1392.0327              1404.7624
 Red. masses --      1.3658                 1.3024                 1.2870
 Frc consts  --      1.5469                 1.4870                 1.4963
 IR Inten    --     16.4383                18.4757                 3.3750

                     43                     44                     45
                      A                      A                      A
 Frequencies --   1435.4103              1436.1985              1441.7900
 Red. masses --      1.3157                 1.3312                 1.2974
 Frc consts  --      1.5972                 1.6178                 1.5891
 IR Inten    --     34.0977                 9.4980                 3.7566

                     46                     47                     48
                      A                      A                      A
 Frequencies --   1445.9641              1459.5142              1468.2493
 Red. masses --      1.2810                 1.3266                 1.2693
 Frc consts  --      1.5781                 1.6649                 1.6122
 IR Inten    --     50.8594               104.0972                13.8233

                     49                     50                     51
                      A                      A                      A
 Frequencies --   1509.3618              1523.4670              1534.5535
 Red. masses --      1.0786                 1.0582                 1.0765
 Frc consts  --      1.4477                 1.4470                 1.4936
 IR Inten    --      9.0345                 3.3162                 1.5871

                     52                     53                     54
                      A                      A                      A
 Frequencies --   1540.5920              3005.2259              3048.5288
 Red. masses --      1.0797                 1.0845                 1.0744
 Frc consts  --      1.5098                 5.7710                 5.8828
 IR Inten    --      9.1679                45.6944                17.5351

                     55                     56                     57
                      A                      A                      A
 Frequencies --   3053.6406              3054.7847              3063.7432
 Red. masses --      1.0423                 1.0600                 1.0723
 Frc consts  --      5.7266                 5.8278                 5.9303
 IR Inten    --     22.9297                33.0219                35.7699

                     58                     59                     60
                      A                      A                      A
 Frequencies --   3087.4382              3103.1388              3109.9685
 Red. masses --      1.0875                 1.0975                 1.1040
 Frc consts  --      6.1077                 6.2269                 6.2909
 IR Inten    --     20.9396                56.2768                41.3878

                     61                     62                     63
                      A                      A                      A
 Frequencies --   3115.0369              3145.7603              3634.3966
 Red. masses --      1.1011                 1.1013                 1.0655
 Frc consts  --      6.2950                 6.4211                 8.2920
 IR Inten    --     23.3313                20.6620               111.9090

                     64                     65                     66
                      A                      A                      A
 Frequencies --   3683.2578              3697.7994              3760.8320
 Red. masses --      1.0652                 1.0655                 1.0666
 Frc consts  --      8.5139                 8.5842                 8.8886
 IR Inten    --     52.9178                19.7451                24.8191

 - Thermochemistry -
 -------------------
 Temperature   298.150 Kelvin.  Pressure   1.00000 Atm.
 Atom     1 has atomic number  6 and mass  12.00000

 Molecular mass:   150.08921 amu.
 Principal axes and moments of inertia in atomic units:
                           1         2         3
     Eigenvalues --   989.816951923.378322264.35910
           X            0.99964  -0.02656   0.00330
           Y            0.02665   0.99920  -0.02993
           Z           -0.00251   0.03001   0.99955
 This molecule is an asymmetric top.
 Rotational symmetry number  1.
 Warning -- assumption of classical behavior for rotation
           may cause significant error
 Rotational temperatures (Kelvin)      0.08750     0.04503     0.03825
 Rotational constants (GHZ):           1.82331     0.93832     0.79702
 Zero-point vibrational energy     554418.7 (Joules/Mol)
                                  132.50924 (Kcal/Mol)
 Warning -- explicit consideration of  17 degrees of freedom as
           vibrations may cause significant error
 Vibrational temperatures:    105.91   141.71   183.53   216.99   300.94
          (Kelvin)            355.09   371.97   409.25   413.94   436.80
                              531.03   573.67   609.11   662.81   730.75
                              738.65   779.92   910.30  1043.00  1071.75
                             1116.40  1203.78  1299.26  1339.35  1361.34
                             1466.82  1499.52  1507.43  1551.20  1582.40
                             1621.90  1648.96  1663.58  1755.02  1774.50
                             1832.39  1845.77  1875.87  1968.46  1994.80
                             2002.82  2021.14  2065.24  2066.37  2074.41
                             2080.42  2099.92  2112.48  2171.63  2191.93
                             2207.88  2216.57  4323.85  4386.15  4393.51
                             4395.15  4408.04  4442.13  4464.72  4474.55
                             4481.84  4526.05  5229.09  5299.39  5320.31
                             5411.00

 Zero-point correction=                           0.211167 (Hartree/Particle)
 Thermal correction to Energy=                    0.222478
 Thermal correction to Enthalpy=                  0.223422
 Thermal correction to Gibbs Free Energy=         0.174979
 Sum of electronic and zero-point Energies=           -537.750832
 Sum of electronic and thermal Energies=              -537.739521
 Sum of electronic and thermal Enthalpies=            -537.738577
 Sum of electronic and thermal Free Energies=         -537.787020

                     E (Thermal)             CV                S
                      KCal/Mol        Cal/Mol-Kelvin    Cal/Mol-Kelvin
 Total                  139.607             43.088            101.958
 Electronic               0.000              0.000              0.000
 Translational            0.889              2.981             40.928
 Rotational               0.889              2.981             29.845
 Vibrational            137.830             37.126             31.184
 Vibration     1          0.599              1.966              4.054
 Vibration     2          0.604              1.950              3.484
 Vibration     3          0.611              1.926              2.982
 Vibration     4          0.618              1.902              2.662
 Vibration     5          0.642              1.827              2.051
 Vibration     6          0.661              1.768              1.753
 Vibration     7          0.667              1.748              1.672
 Vibration     8          0.683              1.703              1.507
 Vibration     9          0.685              1.697              1.487
 Vibration    10          0.695              1.667              1.397
 Vibration    11          0.741              1.536              1.084
 Vibration    12          0.765              1.473              0.967
 Vibration    13          0.786              1.419              0.881
 Vibration    14          0.819              1.337              0.764
 Vibration    15          0.863              1.233              0.639
 Vibration    16          0.868              1.220              0.625
 Vibration    17          0.897              1.157              0.561

 Optimization completed.
    -- Stationary point found.

 1\1\GINC-NODE307\Freq\RB3LYP\6-31G(d)\C6H14O4\VSC10255\08-Dec-2020\0\\
 #N Geom=AllCheck Guess=TCheck SCRF=Check GenChk RB3LYP/6-31G(d) Freq\\
 CID_12303777_JID_665_neutraal\\0,1\C,1.0225313405,0.1013259951,-0.0457
 655315\C,0.7774935901,-0.8916867327,1.0830107223\C,1.1303075016,-0.359
 9037749,2.4794866839\C,0.6023899577,1.0344672967,2.8421030114\C,-0.915
 1773529,1.3029048745,2.8640387059\C,-1.707966565,0.3386121211,3.752868
 3292\O,-1.1161634108,0.2106075058,5.0404768711\O,-1.1141428633,2.64382
 13103,3.3177322097\O,0.7429452796,-1.3403129019,3.4561484162\O,-0.6034

 Normal termination of Gaussian 16 at Tue Dec  8 12:39:30 2020.

 ----------------------------------------------------------------------
 # B3LYP/6-311++G(d,p) empiricaldispersion=gd3bj scf=xqc pop=npa geom=c
 heck
 ----------------------------------------------------------------------

 -------------------------------------
 CID_12303777_JID_665_Energie_neutraal
 -------------------------------------
 Structure from the checkpoint file:  "JID_665.chk"
 Charge =  0 Multiplicity = 1

 SCF Done:  E(RB3LYP) =  -538.159092863     A.U. after   12 cycles
 Normal termination of Gaussian 16 at Tue Dec  8 12:41:59 2020.

 ----------------------------------------------------------------------
 # B3LYP/6-311++G(d,p) empiricaldispersion=gd3bj scf=xqc pop=npa geom=c
 heck
 ----------------------------------------------------------------------

 -----------------------------------
 CID_12303777_JID_665_Energie_kation
 -----------------------------------
 Structure from the checkpoint file:  "JID_665.chk"
 Charge =  1 Multiplicity = 2

 SCF Done:  E(UB3LYP) =  -537.817131130     A.U. after   22 cycles
 Normal termination of Gaussian 16 at Tue Dec  8 12:49:34 2020.
 Gaussian 16:  ES64L-G16RevA.03 25-Dec-2016

 ----------------------------------
 CID_12303777_JID_665_Energie_anion
 ----------------------------------
 Structure from the checkpoint file:  "JID_665.chk"
 Charge = -1 Multiplicity = 2

                         Standard orientation:
 ---------------------------------------------------------------------
 Center     Atomic      Atomic             Coordinates (Angstroms)
 Number     Number       Type             X           Y           Z
 ---------------------------------------------------------------------
      1          6           0       -2.579686    1.252757   -0.024814
      2          6           0       -2.033755   -0.168251    0.029491
      3          6           0       -0.878761   -0.438609   -0.945349
      4          6           0        0.257526    0.592163   -0.973974
      5          6           0        1.082462    0.866205    0.298792
      6          6           0        1.704276   -0.387656    0.922951
      7          8           0        2.375032   -1.177438   -0.052182
      8          8           0        2.116163    1.792627   -0.042801
      9          8           0       -0.380290   -1.765863   -0.710734
     10          8           0       -1.526941   -0.493498    1.335461
     11          1           0       -1.821194    1.974619    0.289885
     12          1           0       -3.447134    1.356716    0.637546
     13          1           0       -2.905258    1.506782   -1.039935
     14          1           0       -2.834551   -0.879791   -0.224390
     15          1           0       -1.316055   -0.456579   -1.951463
     16          1           0        0.960153    0.253403   -1.745230
     17          1           0       -0.135004    1.552043   -1.327560
     18          1           0        0.469230    1.366015    1.055511
     19          1           0        2.461837   -0.064507    1.644009
     20          1           0        0.946759   -0.964701    1.467066
     21          1           0        1.659816   -1.615223   -0.552873
     22          1           0        2.776645    1.267378   -0.527446
     23          1           0       -0.528675   -1.928761    0.238180
     24          1           0       -2.270655   -0.513673    1.956163
 ---------------------------------------------------------------------

 SCF Done:  E(UB3LYP) =  -538.152600712     A.U. after   24 cycles

 The electronic state is 2-A.
 Alpha  occ. eigenvalues --  -19.02332 -19.02196 -19.01902 -19.01648 -10.12029
 Alpha  occ. eigenvalues --  -10.11685 -10.11453 -10.10948 -10.06533 -10.05090
 Alpha  occ. eigenvalues --   -0.93982  -0.93105  -0.91253  -0.90478  -0.68742
 Alpha  occ. eigenvalues --   -0.64593  -0.60380  -0.55651  -0.51001  -0.47318
 Alpha  occ. eigenvalues --   -0.42422  -0.41377  -0.40366  -0.38143  -0.35511
 Alpha  occ. eigenvalues --   -0.35044  -0.33834  -0.32748  -0.31149  -0.29672
 Alpha  occ. eigenvalues --   -0.28488  -0.27405  -0.26292  -0.24870  -0.24456
 Alpha  occ. eigenvalues --   -0.23209  -0.21593  -0.19882  -0.17907  -0.17381
 Alpha  occ. eigenvalues --   -0.16464   0.04607
 Alpha virt. eigenvalues --    0.07801   0.08390   0.09100   0.10271   0.10524
 Alpha virt. eigenvalues --    0.11024   0.11678   0.12171   0.13275   0.14278
 Alpha virt. eigenvalues --    0.14462   0.15206   0.15928   0.17011   0.17935

  Beta  occ. eigenvalues --  -19.02317 -19.02194 -19.01898 -19.01570 -10.12018
  Beta  occ. eigenvalues --  -10.11681 -10.11419 -10.10940 -10.06520 -10.05034
  Beta  occ. eigenvalues --   -0.93937  -0.93069  -0.91230  -0.90369  -0.68684
  Beta  occ. eigenvalues --   -0.64528  -0.60333  -0.55576  -0.50926  -0.47257
  Beta  occ. eigenvalues --   -0.42347  -0.41343  -0.40284  -0.38102  -0.35476
  Beta  occ. eigenvalues --   -0.35000  -0.33788  -0.32701  -0.31097  -0.29610
  Beta  occ. eigenvalues --   -0.28448  -0.27378  -0.26252  -0.24849  -0.24381
  Beta  occ. eigenvalues --   -0.23195  -0.21555  -0.19856  -0.17844  -0.17333
  Beta  occ. eigenvalues --   -0.16448
  Beta virt. eigenvalues --    0.07552   0.08727   0.08965   0.09498   0.10818
  Beta virt. eigenvalues --    0.11117   0.11606   0.12134   0.12419   0.13816
  Beta virt. eigenvalues --    0.14669   0.14859   0.15343   0.16191   0.17268

 Mulliken charges and spin densities:
               1          2
     1  C    1.804367  -2.443307
     2  C   -0.113603   0.099228
     3  C    0.215296  -0.331874
     4  C    0.384709  -0.874842
     5  C   -0.509460   0.378122
     6  C   -0.158117  -0.333284
     7  O   -0.274554   0.011133
     8  O   -0.221080   0.007033
     9  O   -0.249325   0.023955
    10  O   -0.274938  -0.003009
    11  H   -0.077924   0.241467
    12  H   -0.826439   0.991503
    13  H   -0.226083   0.365220
    14  H   -0.752838   0.970613
    15  H   -0.401475   0.625203
    16  H    0.087810   0.112629
    17  H   -0.003992   0.168685
    18  H    0.139898   0.043782
    19  H    0.140527   0.042679
    20  H    0.135792   0.019268
    21  H    0.253224   0.019768
    22  H    0.247451   0.005369
    23  H    0.122580   0.122037
    24  H   -0.441824   0.738623
 Sum of Mulliken charges =  -1.00000   1.00000

 Dipole moment (field-independent basis, Debye):
    X=              8.1891    Y=              0.3428    Z=             -1.9522  Tot=              8.4255
 Quadrupole moment (field-independent basis, Debye-Ang):
   XX=           -128.2454   YY=            -93.8248   ZZ=            -95.3077
   XY=             -0.9406   XZ=              7.3169   YZ=             -0.1296

 Summary of Natural Population Analysis:

                                       Natural Population
                Natural  -----------------------------------------------
    Atom  No    Charge         Core      Valence    Rydberg      Total
 -----------------------------------------------------------------------
      C    1   -0.29817      0.99964     2.29200    0.00653     3.29817
      C    2    0.05149      0.99956     1.93317    0.01578     2.94851
      C    3    0.05702      0.99953     1.92705    0.01640     2.94298
      C    4   -0.22015      0.99958     2.20801    0.01255     3.22015
      C    5    0.04847      0.99956     1.93883    0.01314     2.95153
      C    6   -0.02702      0.99957     2.01503    0.01241     3.02702
      O    7   -0.38915      0.99990     3.38153    0.00772     4.38915
      O    8   -0.37533      0.99990     3.36856    0.00687     4.37533
      O    9   -0.38650      0.99990     3.37976    0.00684     4.38650
      O   10   -0.39454      0.99989     3.38677    0.00789     4.39454
      H   11    0.09860      0.00000     0.40004    0.00135     0.40140
      H   12    0.10874      0.00000     0.38827    0.00299     0.39126
      H   13    0.10393      0.00000     0.39415    0.00192     0.39607
      H   14    0.08805      0.00000     0.40657    0.00538     0.41195
      H   15    0.09322      0.00000     0.40526    0.00152     0.40678
      H   16    0.10002      0.00000     0.39859    0.00139     0.39998
      H   17    0.10962      0.00000     0.38931    0.00106     0.39038
      H   18    0.09593      0.00000     0.40252    0.00156     0.40407
      H   19    0.08563      0.00000     0.41308    0.00128     0.41437
      H   20    0.09032      0.00000     0.40824    0.00144     0.40968
      H   21    0.24134      0.00000     0.25553    0.00313     0.25866
      H   22    0.22688      0.00000     0.27018    0.00294     0.27312
      H   23    0.24119      0.00000     0.25517    0.00363     0.25881
      H   24    0.25040      0.00000     0.22489    0.02471     0.24960
 =======================================================================
   * Total *    0.00000      9.99703    30.84252    0.16044    41.00000

 Normal termination of Gaussian 16 at Tue Dec  8 13:04:51 2020.
