 Gaussian 16, Revision A.03,

 -----------------------------------------------------------
 # opt freq B3LYP/6-31G(d) empiricaldispersion=gd3bj scf=xqc
 -----------------------------------------------------------

 ------------------------------
 CID_90851346_JID_1984_neutraal
 ------------------------------
 Symbolic Z-matrix:
 Charge =  0 Multiplicity = 1

 SCF Done:  E(RB3LYP) =  -469.582066052     A.U. after   12 cycles
 SCF Done:  E(RB3LYP) =  -469.583499522     A.U. after   10 cycles
 SCF Done:  E(RB3LYP) =  -469.583545563     A.U. after   10 cycles
 SCF Done:  E(RB3LYP) =  -469.583741431     A.U. after   10 cycles
 SCF Done:  E(RB3LYP) =  -469.583768096     A.U. after   10 cycles
 SCF Done:  E(RB3LYP) =  -469.583790185     A.U. after    9 cycles
 SCF Done:  E(RB3LYP) =  -469.583793080     A.U. after    8 cycles
 SCF Done:  E(RB3LYP) =  -469.583794125     A.U. after    7 cycles
 SCF Done:  E(RB3LYP) =  -469.583796010     A.U. after    9 cycles
 SCF Done:  E(RB3LYP) =  -469.583797054     A.U. after    8 cycles
 SCF Done:  E(RB3LYP) =  -469.583797757     A.U. after    8 cycles
 SCF Done:  E(RB3LYP) =  -469.583798252     A.U. after    8 cycles
 SCF Done:  E(RB3LYP) =  -469.583798313     A.U. after    7 cycles
 Optimization completed.
    -- Stationary point found.
 Normal termination of Gaussian 16 at Tue Dec  8 21:59:39 2020.

 --------------------------------------------------------------------
 #N Geom=AllCheck Guess=TCheck SCRF=Check GenChk RB3LYP/6-31G(d) Freq
 --------------------------------------------------------------------

 Structure from the checkpoint file:  "JID_1984.chk"
 ------------------------------
 CID_90851346_JID_1984_neutraal
 ------------------------------
 Charge =  0 Multiplicity = 1

 SCF Done:  E(RB3LYP) =  -469.583798313     A.U. after    1 cycles

  Exact polarizability: 131.126  -0.785 105.689   0.400   0.243  96.319
 Approx polarizability: 150.382  -0.446 146.617  -0.441   1.352 145.970

                      1                      2                      3
                      A                      A                      A
 Frequencies --     10.5469                58.6556                67.8598
 Red. masses --      2.7786                 2.8939                 2.6374
 Frc consts  --      0.0002                 0.0059                 0.0072
 IR Inten    --      0.0667                 0.0474                 1.9104

                      4                      5                      6
                      A                      A                      A
 Frequencies --     96.3732               115.7914               151.4842
 Red. masses --      2.1867                 2.0838                 2.6562
 Frc consts  --      0.0120                 0.0165                 0.0359
 IR Inten    --      0.4056                 2.5679                 0.0240

                      7                      8                      9
                      A                      A                      A
 Frequencies --    166.0322               207.0478               231.5005
 Red. masses --      1.7028                 1.5075                 1.3241
 Frc consts  --      0.0277                 0.0381                 0.0418
 IR Inten    --      0.9970                 0.2614                 0.3713

                     10                     11                     12
                      A                      A                      A
 Frequencies --    237.0293               242.0081               262.3836
 Red. masses --      1.1146                 1.3672                 1.1459
 Frc consts  --      0.0369                 0.0472                 0.0465
 IR Inten    --      0.2689                 3.2360                 0.4228

                     13                     14                     15
                      A                      A                      A
 Frequencies --    282.1436               298.8683               354.0690
 Red. masses --      1.9861                 2.1409                 2.3290
 Frc consts  --      0.0932                 0.1127                 0.1720
 IR Inten    --      1.3184                 0.3609                 0.6666

                     16                     17                     18
                      A                      A                      A
 Frequencies --    363.5239               383.5732               410.4200
 Red. masses --      2.1689                 2.5934                 2.2334
 Frc consts  --      0.1689                 0.2248                 0.2217
 IR Inten    --      0.1155                 0.3994                 0.3868

                     19                     20                     21
                      A                      A                      A
 Frequencies --    442.3948               480.9307               521.0797
 Red. masses --      2.0174                 2.6115                 3.0690
 Frc consts  --      0.2326                 0.3559                 0.4910
 IR Inten    --      0.3424                 0.9560                 0.4123

                     22                     23                     24
                      A                      A                      A
 Frequencies --    539.9819               802.8968               834.1623
 Red. masses --      2.2574                 2.2576                 2.4538
 Frc consts  --      0.3878                 0.8575                 1.0060
 IR Inten    --      0.4317                 1.9300                 0.2077

                     25                     26                     27
                      A                      A                      A
 Frequencies --    872.9693               910.7657               937.1066
 Red. masses --      1.4860                 1.6948                 1.6847
 Frc consts  --      0.6672                 0.8283                 0.8717
 IR Inten    --      0.6810                 4.6775                 3.8159

                     28                     29                     30
                      A                      A                      A
 Frequencies --    944.2166               972.0508               978.0093
 Red. masses --      1.1958                 1.5846                 1.6648
 Frc consts  --      0.6281                 0.8822                 0.9382
 IR Inten    --      1.1312                 4.8752                 0.6383

                     31                     32                     33
                      A                      A                      A
 Frequencies --    983.5780               998.2804              1005.8462
 Red. masses --      1.9300                 2.5863                 1.3185
 Frc consts  --      1.1001                 1.5186                 0.7859
 IR Inten    --      4.4650                18.4454                 4.9553

                     34                     35                     36
                      A                      A                      A
 Frequencies --   1057.5810              1082.0937              1116.5209
 Red. masses --      1.5631                 2.3256                 2.0854
 Frc consts  --      1.0301                 1.6044                 1.5317
 IR Inten    --      0.5594                 0.6394                 7.5286

                     37                     38                     39
                      A                      A                      A
 Frequencies --   1146.2629              1168.8955              1182.3710
 Red. masses --      2.0045                 4.5365                 1.9167
 Frc consts  --      1.5518                 3.6520                 1.5787
 IR Inten    --     26.3712               111.1562                25.0708

                     40                     41                     42
                      A                      A                      A
 Frequencies --   1196.5598              1200.4510              1208.5750
 Red. masses --      1.4633                 1.9284                 1.8842
 Frc consts  --      1.2344                 1.6374                 1.6215
 IR Inten    --      4.5370                 5.1157                 1.1133

                     43                     44                     45
                      A                      A                      A
 Frequencies --   1210.5586              1241.4157              1263.8284
 Red. masses --      1.8548                 1.6981                 1.2855
 Frc consts  --      1.6015                 1.5419                 1.2097
 IR Inten    --      1.1357                32.3475                 2.7155

                     46                     47                     48
                      A                      A                      A
 Frequencies --   1301.8401              1326.6281              1337.2458
 Red. masses --      1.3124                 1.2577                 1.2924
 Frc consts  --      1.3104                 1.3042                 1.3616
 IR Inten    --      1.7984                 1.8828                 0.4756

                     49                     50                     51
                      A                      A                      A
 Frequencies --   1355.9858              1375.6188              1392.0956
 Red. masses --      1.2789                 1.3645                 1.3209
 Frc consts  --      1.3854                 1.5214                 1.5082
 IR Inten    --      3.1208                 1.4453                 7.0992

                     52                     53                     54
                      A                      A                      A
 Frequencies --   1401.0716              1416.0579              1430.2544
 Red. masses --      1.3741                 1.4667                 1.2758
 Frc consts  --      1.5892                 1.7328                 1.5376
 IR Inten    --      1.1377                 5.6866                 5.3659

                     55                     56                     57
                      A                      A                      A
 Frequencies --   1439.9640              1447.4384              1449.5846
 Red. masses --      1.2909                 1.2261                 1.2313
 Frc consts  --      1.5770                 1.5135                 1.5244
 IR Inten    --      7.3568                 1.4037                 1.6649

                     58                     59                     60
                      A                      A                      A
 Frequencies --   1451.5176              1502.9822              1508.7782
 Red. masses --      1.2840                 1.1611                 1.0850
 Frc consts  --      1.5939                 1.5453                 1.4552
 IR Inten    --     31.0830                 3.5665                 1.1458

                     61                     62                     63
                      A                      A                      A
 Frequencies --   1514.1880              1516.4246              1522.2710
 Red. masses --      1.0479                 1.0538                 1.0464
 Frc consts  --      1.4156                 1.4277                 1.4287
 IR Inten    --      5.3103                 2.0913                 1.9524

                     64                     65                     66
                      A                      A                      A
 Frequencies --   1527.2840              1529.0090              1532.1305
 Red. masses --      1.0620                 1.0601                 1.0558
 Frc consts  --      1.4596                 1.4603                 1.4602
 IR Inten    --      2.5115                 0.3581                11.7868

                     67                     68                     69
                      A                      A                      A
 Frequencies --   1535.7456              1536.6522              1540.9382
 Red. masses --      1.0547                 1.0474                 1.0472
 Frc consts  --      1.4656                 1.4572                 1.4651
 IR Inten    --      2.6458                 3.4884                 7.0204

                     70                     71                     72
                      A                      A                      A
 Frequencies --   1542.7989              1557.4196              2958.4907
 Red. masses --      1.0477                 1.0865                 1.0563
 Frc consts  --      1.4692                 1.5528                 5.4473
 IR Inten    --     13.0464                 2.2406                28.4103

                     73                     74                     75
                      A                      A                      A
 Frequencies --   2984.8225              2989.7167              3001.5464
 Red. masses --      1.0479                 1.0922                 1.0800
 Frc consts  --      5.5004                 5.7521                 5.7329
 IR Inten    --     72.2600                86.1741                 7.8431

                     76                     77                     78
                      A                      A                      A
 Frequencies --   3017.7764              3025.1645              3033.5366
 Red. masses --      1.0654                 1.1047                 1.0739
 Frc consts  --      5.7167                 5.9565                 5.8226
 IR Inten    --     20.5258                68.9798                 5.2114

                     79                     80                     81
                      A                      A                      A
 Frequencies --   3034.6603              3035.7683              3041.1512
 Red. masses --      1.0605                 1.0612                 1.0404
 Frc consts  --      5.7540                 5.7620                 5.6692
 IR Inten    --      7.6322                53.1065                23.2059

                     82                     83                     84
                      A                      A                      A
 Frequencies --   3045.1913              3059.5248              3070.2462
 Red. masses --      1.0449                 1.0419                 1.0954
 Frc consts  --      5.7087                 5.7465                 6.0836
 IR Inten    --     28.6279                14.3657                55.3880

                     85                     86                     87
                      A                      A                      A
 Frequencies --   3097.6327              3104.7649              3105.6324
 Red. masses --      1.1009                 1.1005                 1.0993
 Frc consts  --      6.2240                 6.2503                 6.2468
 IR Inten    --      7.5497                79.1947                38.6174

                     88                     89                     90
                      A                      A                      A
 Frequencies --   3108.9751              3116.8737              3120.2150
 Red. masses --      1.1022                 1.1009                 1.1004
 Frc consts  --      6.2768                 6.3012                 6.3120
 IR Inten    --     43.7595                57.8434                35.9600

                     91                     92                     93
                      A                      A                      A
 Frequencies --   3134.9417              3141.9815              3153.4094
 Red. masses --      1.0961                 1.0969                 1.0977
 Frc consts  --      6.3467                 6.3803                 6.4315
 IR Inten    --     34.9279                32.6223                33.0040

 - Thermochemistry -
 -------------------
 Temperature   298.150 Kelvin.  Pressure   1.00000 Atm.
 Atom     1 has atomic number  6 and mass  12.00000

 Molecular mass:   158.16707 amu.
 Principal axes and moments of inertia in atomic units:
                           1         2         3
     Eigenvalues --   897.212053881.621184277.34200
           X            0.99999   0.00012   0.00529
           Y           -0.00008   0.99998  -0.00663
           Z           -0.00529   0.00663   0.99996
 This molecule is an asymmetric top.
 Rotational symmetry number  1.
 Warning -- assumption of classical behavior for rotation
           may cause significant error
 Rotational temperatures (Kelvin)      0.09654     0.02231     0.02025
 Rotational constants (GHZ):           2.01150     0.46495     0.42193
 Zero-point vibrational energy     811143.7 (Joules/Mol)
                                  193.86800 (Kcal/Mol)
 Warning -- explicit consideration of  22 degrees of freedom as
           vibrations may cause significant error
 Vibrational temperatures:     15.17    84.39    97.64   138.66   166.60
          (Kelvin)            217.95   238.88   297.90   333.08   341.03
                              348.20   377.51   405.94   430.00   509.43
                              523.03   551.88   590.50   636.51   691.95
                              749.72   776.91  1155.19  1200.17  1256.01
                             1310.39  1348.29  1358.52  1398.56  1407.14
                             1415.15  1436.30  1447.19  1521.62  1556.89
                             1606.42  1649.22  1681.78  1701.17  1721.58
                             1727.18  1738.87  1741.72  1786.12  1818.37
                             1873.06  1908.72  1924.00  1950.96  1979.21
                             2002.92  2015.83  2037.39  2057.82  2071.79
                             2082.54  2085.63  2088.41  2162.46  2170.80
                             2178.58  2181.80  2190.21  2197.42  2199.90
                             2204.39  2209.60  2210.90  2217.07  2219.74
                             2240.78  4256.61  4294.49  4301.54  4318.56
                             4341.91  4352.54  4364.58  4366.20  4367.79
                             4375.54  4381.35  4401.97  4417.40  4456.80
                             4467.06  4468.31  4473.12  4484.49  4489.29
                             4510.48  4520.61  4537.05

 Zero-point correction=                           0.308948 (Hartree/Particle)
 Thermal correction to Energy=                    0.323594
 Thermal correction to Enthalpy=                  0.324538
 Thermal correction to Gibbs Free Energy=         0.266565
 Sum of electronic and zero-point Energies=           -469.274850
 Sum of electronic and thermal Energies=              -469.260204
 Sum of electronic and thermal Enthalpies=            -469.259260
 Sum of electronic and thermal Free Energies=         -469.317234

                     E (Thermal)             CV                S
                      KCal/Mol        Cal/Mol-Kelvin    Cal/Mol-Kelvin
 Total                  203.058             53.118            122.015
 Electronic               0.000              0.000              0.000
 Translational            0.889              2.981             41.085
 Rotational               0.889              2.981             31.077
 Vibrational            201.281             47.157             49.853
 Vibration     1          0.593              1.987              7.905
 Vibration     2          0.596              1.974              4.502
 Vibration     3          0.598              1.970              4.214
 Vibration     4          0.603              1.952              3.526
 Vibration     5          0.608              1.936              3.169
 Vibration     6          0.619              1.901              2.654
 Vibration     7          0.624              1.884              2.480
 Vibration     8          0.641              1.830              2.070
 Vibration     9          0.653              1.793              1.867
 Vibration    10          0.656              1.784              1.825
 Vibration    11          0.658              1.776              1.788
 Vibration    12          0.670              1.742              1.646
 Vibration    13          0.681              1.707              1.521
 Vibration    14          0.692              1.676              1.423
 Vibration    15          0.730              1.567              1.148
 Vibration    16          0.737              1.547              1.107
 Vibration    17          0.753              1.505              1.025
 Vibration    18          0.775              1.448              0.925
 Vibration    19          0.802              1.378              0.819
 Vibration    20          0.837              1.292              0.708
 Vibration    21          0.876              1.203              0.607
 Vibration    22          0.895              1.162              0.565

 Optimization completed.
    -- Stationary point found.
 Normal termination of Gaussian 16 at Tue Dec  8 22:07:17 2020.

 ----------------------------------------------------------------------
 # B3LYP/6-311++G(d,p) empiricaldispersion=gd3bj scf=xqc pop=npa geom=c
 heck
 ----------------------------------------------------------------------

 --------------------------------------
 CID_90851346_JID_1984_Energie_neutraal
 --------------------------------------
 Structure from the checkpoint file:  "JID_1984.chk"
 Charge =  0 Multiplicity = 1

 SCF Done:  E(RB3LYP) =  -469.719918068     A.U. after   13 cycles
 Normal termination of Gaussian 16 at Tue Dec  8 22:10:47 2020.

 ----------------------------------------------------------------------
 # B3LYP/6-311++G(d,p) empiricaldispersion=gd3bj scf=xqc pop=npa geom=c
 heck
 ----------------------------------------------------------------------

 ------------------------------------
 CID_90851346_JID_1984_Energie_kation
 ------------------------------------
 Structure from the checkpoint file:  "JID_1984.chk"
 Charge =  1 Multiplicity = 2

 SCF Done:  E(UB3LYP) =  -469.383119942     A.U. after   26 cycles
 Normal termination of Gaussian 16 at Tue Dec  8 22:20:33 2020.
 Gaussian 16:  ES64L-G16RevA.03 25-Dec-2016

 ----------------------------------------------------------------------
 # B3LYP/6-311++G(d,p) empiricaldispersion=gd3bj scf=xqc pop=npa geom=c
 heck
 ----------------------------------------------------------------------

 -----------------------------------
 CID_90851346_JID_1984_Energie_anion
 -----------------------------------
 Structure from the checkpoint file:  "JID_1984.chk"
 Charge = -1 Multiplicity = 2

                         Standard orientation:
 ---------------------------------------------------------------------
 Center     Atomic      Atomic             Coordinates (Angstroms)
 Number     Number       Type             X           Y           Z
 ---------------------------------------------------------------------
      1          6           0       -3.019504   -0.513198    1.369371
      2          6           0       -2.724792   -0.513314   -0.135780
      3          6           0       -3.940847   -0.006331   -0.921989
      4          6           0       -1.487685    0.334406   -0.485494
      5          6           0       -0.163734   -0.043756    0.210821
      6          6           0        0.176926   -1.520442   -0.037425
      7          6           0        0.977493    0.919839   -0.216334
      8          6           0        0.704150    2.367094    0.225631
      9          6           0        2.350910    0.498732    0.319991
     10          8           0        2.910454   -0.504589   -0.509380
     11          6           0        4.152859   -0.965693   -0.030984
     12          1           0       -3.162570    0.511902    1.735988
     13          1           0       -2.205284   -0.962746    1.947357
     14          1           0       -3.933993   -1.076021    1.589853
     15          1           0       -2.541129   -1.550176   -0.447405
     16          1           0       -4.186402    1.025529   -0.638761
     17          1           0       -3.750672   -0.018747   -2.001701
     18          1           0       -4.825417   -0.624098   -0.727719
     19          1           0       -1.328450    0.287113   -1.573327
     20          1           0       -1.737269    1.378598   -0.258880
     21          1           0       -0.293764    0.093452    1.295609
     22          1           0        0.304313   -1.716795   -1.108539
     23          1           0        1.105609   -1.814369    0.454815
     24          1           0       -0.620663   -2.171529    0.334062
     25          1           0        1.058155    0.897543   -1.312600
     26          1           0        0.629627    2.434218    1.319083
     27          1           0        1.514412    3.031554   -0.094354
     28          1           0       -0.225160    2.760034   -0.193228
     29          1           0        3.030493    1.367554    0.344551
     30          1           0        2.261689    0.133919    1.359466
     31          1           0        4.060924   -1.427610    0.965864
     32          1           0        4.515367   -1.716357   -0.738086
     33          1           0        4.891889   -0.150269    0.036148
 ---------------------------------------------------------------------

 SCF Done:  E(UB3LYP) =  -469.702731306     A.U. after   28 cycles

 The electronic state is 2-A.
 Alpha  occ. eigenvalues --  -19.02457 -10.11201 -10.11005 -10.07418 -10.07382
 Alpha  occ. eigenvalues --  -10.07097 -10.06113 -10.06085 -10.05972 -10.05757
 Alpha  occ. eigenvalues --  -10.04979  -0.93897  -0.73012  -0.69752  -0.64309
 Alpha  occ. eigenvalues --   -0.60981  -0.58623  -0.57517  -0.54387  -0.51474
 Alpha  occ. eigenvalues --   -0.46873  -0.44868  -0.39235  -0.38820  -0.37409
 Alpha  occ. eigenvalues --   -0.35944  -0.34314  -0.33680  -0.33034  -0.31290
 Alpha  occ. eigenvalues --   -0.31156  -0.29561  -0.28992  -0.28503  -0.27217
 Alpha  occ. eigenvalues --   -0.26266  -0.25368  -0.25069  -0.23712  -0.23391
 Alpha  occ. eigenvalues --   -0.22876  -0.21597  -0.20817  -0.20266  -0.16044
 Alpha  occ. eigenvalues --    0.04518
 Alpha virt. eigenvalues --    0.06061   0.07118   0.07630   0.08588   0.08653
 Alpha virt. eigenvalues --    0.09096   0.10019   0.10293   0.10735   0.10914
 Alpha virt. eigenvalues --    0.11557   0.12179   0.12450   0.13304   0.13678

  Beta  occ. eigenvalues --  -19.02448 -10.11181 -10.10962 -10.07413 -10.07375
  Beta  occ. eigenvalues --  -10.07088 -10.06091 -10.06075 -10.05945 -10.05730
  Beta  occ. eigenvalues --  -10.04969  -0.93877  -0.72993  -0.69729  -0.64281
  Beta  occ. eigenvalues --   -0.60934  -0.58569  -0.57479  -0.54315  -0.51423
  Beta  occ. eigenvalues --   -0.46825  -0.44826  -0.39198  -0.38784  -0.37374
  Beta  occ. eigenvalues --   -0.35906  -0.34284  -0.33645  -0.33003  -0.31259
  Beta  occ. eigenvalues --   -0.31121  -0.29525  -0.28970  -0.28476  -0.27192
  Beta  occ. eigenvalues --   -0.26242  -0.25339  -0.25036  -0.23678  -0.23358
  Beta  occ. eigenvalues --   -0.22824  -0.21568  -0.20792  -0.20238  -0.16021
  Beta virt. eigenvalues --    0.06543   0.07132   0.07702   0.08088   0.08911
  Beta virt. eigenvalues --    0.09336   0.09582   0.10333   0.10761   0.11223
  Beta virt. eigenvalues --    0.11238   0.11928   0.12495   0.12747   0.13612

 Mulliken charges and spin densities:
               1          2
     1  C    0.333910  -1.028600
     2  C   -1.225348   1.705913
     3  C    0.747222  -1.426706
     4  C    0.035162  -0.829301
     5  C    1.006047  -0.145645
     6  C   -0.311471  -0.529723
     7  C   -0.788583   1.288147
     8  C    0.094965  -0.896946
     9  C   -0.055594  -0.768390
    10  O   -0.167086   0.065645
    11  C    1.127671  -1.384603
    12  H   -0.141974   0.293241
    13  H   -0.081559   0.230295
    14  H   -0.217486   0.357687
    15  H    0.104539   0.033368
    16  H   -0.173990   0.309432
    17  H   -0.126549   0.251679
    18  H   -0.299021   0.447733
    19  H    0.044258   0.088548
    20  H    0.405281  -0.337804
    21  H    0.159024  -0.018842
    22  H    0.143336   0.028395
    23  H    0.059816   0.104968
    24  H   -0.123448   0.255625
    25  H    0.115404   0.083819
    26  H   -0.085055   0.242213
    27  H   -0.210784   0.338712
    28  H   -0.280960   0.435315
    29  H   -0.025491   0.182843
    30  H   -0.050305   0.223333
    31  H   -0.386823   0.513351
    32  H   -0.157514   0.293429
    33  H   -0.467596   0.592871
 Sum of Mulliken charges =  -1.00000   1.00000

 Dipole moment (field-independent basis, Debye):
    X=             -1.2726    Y=             -0.1094    Z=             -1.6805  Tot=              2.1108
 Quadrupole moment (field-independent basis, Debye-Ang):
   XX=           -172.4285   YY=           -113.5259   ZZ=           -106.7240
   XY=              1.2848   XZ=             -1.7842   YZ=              1.6935

 Summary of Natural Population Analysis:

                                       Natural Population
                Natural  -----------------------------------------------
    Atom  No    Charge         Core      Valence    Rydberg      Total
 -----------------------------------------------------------------------
      C    1   -0.28655      0.99965     2.28110    0.00580     3.28655
      C    2   -0.11436      0.99962     2.10603    0.00872     3.11436
      C    3   -0.28168      0.99965     2.27629    0.00574     3.28168
      C    4   -0.18557      0.99960     2.17706    0.00891     3.18557
      C    5   -0.10692      0.99958     2.09776    0.00957     3.10692
      C    6   -0.28697      0.99965     2.28026    0.00707     3.28697
      C    7   -0.11894      0.99958     2.10804    0.01131     3.11894
      C    8   -0.28455      0.99965     2.27913    0.00577     3.28455
      C    9   -0.00523      0.99955     1.99302    0.01266     3.00523
      O   10   -0.29857      0.99988     3.28947    0.00921     4.29857
      C   11   -0.09723      0.99962     2.08845    0.00916     3.09723
      H   12    0.09686      0.00000     0.40209    0.00105     0.40314
      H   13    0.10010      0.00000     0.39889    0.00101     0.39990
      H   14    0.09881      0.00000     0.40023    0.00096     0.40119
      H   15    0.09190      0.00000     0.40635    0.00175     0.40810
      H   16    0.09611      0.00000     0.40283    0.00106     0.40389
      H   17    0.09745      0.00000     0.40165    0.00090     0.40255
      H   18    0.09847      0.00000     0.40057    0.00096     0.40153
      H   19    0.09485      0.00000     0.40392    0.00123     0.40515
      H   20    0.09706      0.00000     0.40160    0.00135     0.40294
      H   21    0.09283      0.00000     0.40518    0.00199     0.40717
      H   22    0.09770      0.00000     0.40131    0.00099     0.40230
      H   23    0.10563      0.00000     0.39334    0.00103     0.39437
      H   24    0.09542      0.00000     0.40362    0.00096     0.40458
      H   25    0.09713      0.00000     0.40073    0.00214     0.40287
      H   26    0.09766      0.00000     0.40127    0.00107     0.40234
      H   27    0.09922      0.00000     0.39990    0.00088     0.40078
      H   28    0.10113      0.00000     0.39793    0.00093     0.39887
      H   29    0.08146      0.00000     0.41696    0.00158     0.41854
      H   30    0.07928      0.00000     0.41907    0.00165     0.42072
      H   31    0.07901      0.00000     0.41914    0.00185     0.42099
      H   32    0.08931      0.00000     0.40956    0.00113     0.41069
      H   33    0.07918      0.00000     0.41868    0.00214     0.42082
 =======================================================================
   * Total *    0.00000     10.99603    33.88142    0.12255    45.00000

 Normal termination of Gaussian 16 at Tue Dec  8 22:31:12 2020.
