 Gaussian 16, Revision A.03,

 -----------------------------------------------------------
 # opt freq B3LYP/6-31G(d) empiricaldispersion=gd3bj scf=xqc
 -----------------------------------------------------------

 ------------------------------
 CID_22498573_JID_2394_neutraal
 ------------------------------
 Symbolic Z-matrix:
 Charge =  0 Multiplicity = 1

 SCF Done:  E(RB3LYP) =  -574.650762409     A.U. after   15 cycles
 SCF Done:  E(RB3LYP) =  -574.656098949     A.U. after   12 cycles
 SCF Done:  E(RB3LYP) =  -574.655976151     A.U. after   13 cycles
 SCF Done:  E(RB3LYP) =  -574.656711890     A.U. after   13 cycles
 SCF Done:  E(RB3LYP) =  -574.657212713     A.U. after   11 cycles
 SCF Done:  E(RB3LYP) =  -574.657301574     A.U. after   12 cycles
 SCF Done:  E(RB3LYP) =  -574.657337103     A.U. after   12 cycles
 SCF Done:  E(RB3LYP) =  -574.657348573     A.U. after   10 cycles
 SCF Done:  E(RB3LYP) =  -574.657350787     A.U. after    9 cycles
 SCF Done:  E(RB3LYP) =  -574.657351469     A.U. after    8 cycles
 SCF Done:  E(RB3LYP) =  -574.657351760     A.U. after    8 cycles
 SCF Done:  E(RB3LYP) =  -574.657351948     A.U. after    8 cycles
 SCF Done:  E(RB3LYP) =  -574.657352027     A.U. after    8 cycles
 Optimization completed.
    -- Stationary point found.

 1\1\GINC-NODE204\FOpt\RB3LYP\6-31G(d)\C9H10O3\VSC10255\09-Dec-2020\0\\
 # opt freq B3LYP/6-31G(d) empiricaldispersion=gd3bj scf=xqc\\CID_22498
 573_JID_2394_neutraal\\0,1\C,0.7898687533,-0.1042664335,-0.1537581197\
 C,0.8803335066,0.6957848792,-1.4432422214\O,1.3482072331,-0.125120906,
 -2.5374577811\C,2.6850794461,-0.2908538118,-2.6296215793\O,3.473896208
 2,0.2284523217,-1.8631220421\C,3.0665632116,-1.176012819,-3.7753173563
 \C,2.1205749441,-1.7343188516,-4.5546579771\C,4.4893530022,-1.39854236
 31,-3.9909601715\C,5.6392029304,-0.9757403043,-3.3735654815\C,6.729943

 Normal termination of Gaussian 16 at Wed Dec  9 17:19:12 2020.

 --------------------------------------------------------------------
 #N Geom=AllCheck Guess=TCheck SCRF=Check GenChk RB3LYP/6-31G(d) Freq
 --------------------------------------------------------------------

 Structure from the checkpoint file:  "JID_2394.chk"
 ------------------------------
 CID_22498573_JID_2394_neutraal
 ------------------------------
 Charge =  0 Multiplicity = 1

 SCF Done:  E(RB3LYP) =  -574.657352027     A.U. after    1 cycles

  Exact polarizability: 139.674  12.575 114.986  -3.707   3.638  50.972
 Approx polarizability: 177.440  26.784 218.866  -6.628   9.623  74.203

                      1                      2                      3
                      A                      A                      A
 Frequencies --     28.6226                52.6574                79.4823
 Red. masses --      4.3674                 3.9531                 4.3874
 Frc consts  --      0.0021                 0.0065                 0.0163
 IR Inten    --      0.7591                 0.0140                 3.8233

                      4                      5                      6
                      A                      A                      A
 Frequencies --     98.9129               152.2675               178.5978
 Red. masses --      4.1756                 2.6439                 4.8847
 Frc consts  --      0.0241                 0.0361                 0.0918
 IR Inten    --      0.2528                 1.4823                 0.9880

                      7                      8                      9
                      A                      A                      A
 Frequencies --    229.3608               285.3736               315.6069
 Red. masses --      1.3863                 2.6560                 5.6069
 Frc consts  --      0.0430                 0.1274                 0.3291
 IR Inten    --      2.8379                 0.6508                 1.4998

                     10                     11                     12
                      A                      A                      A
 Frequencies --    355.8790               411.9417               429.2197
 Red. masses --      3.5239                 3.8658                 4.1501
 Frc consts  --      0.2630                 0.3865                 0.4505
 IR Inten    --     13.2820                 0.0349                 5.0993

                     13                     14                     15
                      A                      A                      A
 Frequencies --    476.8167               604.1479               623.1497
 Red. masses --      3.8086                 3.1001                 2.3922
 Frc consts  --      0.5102                 0.6667                 0.5473
 IR Inten    --      7.2254                 4.4353                 2.6488

                     16                     17                     18
                      A                      A                      A
 Frequencies --    625.5420               734.4243               735.6158
 Red. masses --      4.8434                 1.5244                 2.9020
 Frc consts  --      1.1166                 0.4844                 0.9252
 IR Inten    --      7.4632                30.4633                 5.5325

                     19                     20                     21
                      A                      A                      A
 Frequencies --    751.6240               804.1036               810.4813
 Red. masses --      1.9407                 1.6204                 2.0002
 Frc consts  --      0.6460                 0.6173                 0.7741
 IR Inten    --      8.2165                 9.4372                 7.6771

                     22                     23                     24
                      A                      A                      A
 Frequencies --    832.1103               883.5117               891.0886
 Red. masses --      1.2537                 3.1128                 1.3171
 Frc consts  --      0.5114                 1.4316                 0.6162
 IR Inten    --     15.8287                 5.6239                 4.2601

                     25                     26                     27
                      A                      A                      A
 Frequencies --    909.5782               917.1821               946.5761
 Red. masses --      5.9186                 2.7706                 1.3631
 Frc consts  --      2.8850                 1.3732                 0.7196
 IR Inten    --      6.4265                 7.6158                37.0040

                     28                     29                     30
                      A                      A                      A
 Frequencies --    957.3300              1040.8808              1052.9727
 Red. masses --      2.8543                 1.5220                 2.3704
 Frc consts  --      1.5412                 0.9715                 1.5485
 IR Inten    --      4.0871                19.6360                20.9204

                     31                     32                     33
                      A                      A                      A
 Frequencies --   1114.6642              1126.8024              1134.6468
 Red. masses --      2.0634                 2.7459                 2.2823
 Frc consts  --      1.5105                 2.0541                 1.7312
 IR Inten    --     66.2229                42.8602               110.6045

                     34                     35                     36
                      A                      A                      A
 Frequencies --   1195.9246              1209.7128              1246.8600
 Red. masses --      2.1683                 1.8116                 2.8945
 Frc consts  --      1.8271                 1.5620                 2.6513
 IR Inten    --     98.6329                13.8832               211.9275

                     37                     38                     39
                      A                      A                      A
 Frequencies --   1259.3131              1344.0911              1373.7604
 Red. masses --      2.2974                 1.1211                 3.4769
 Frc consts  --      2.1466                 1.1933                 3.8660
 IR Inten    --     64.3835                12.5154                98.1631

                     40                     41                     42
                      A                      A                      A
 Frequencies --   1419.6328              1437.6604              1439.4883
 Red. masses --      1.3627                 2.0296                 1.4390
 Frc consts  --      1.6181                 2.4716                 1.7569
 IR Inten    --      5.8299                 3.9685                25.1424

                     43                     44                     45
                      A                      A                      A
 Frequencies --   1450.0463              1515.7558              1519.2625
 Red. masses --      1.5373                 1.0510                 1.0831
 Frc consts  --      1.9045                 1.4227                 1.4729
 IR Inten    --     17.5730                10.2984                 6.4136

                     46                     47                     48
                      A                      A                      A
 Frequencies --   1534.8801              1538.2411              1618.1612
 Red. masses --      4.2497                 1.0637                 4.5950
 Frc consts  --      5.8988                 1.4830                 7.0889
 IR Inten    --      6.9520                 6.1771                 7.8434

                     49                     50                     51
                      A                      A                      A
 Frequencies --   1685.6378              1795.5389              3062.3755
 Red. masses --      5.8333                11.4901                 1.0363
 Frc consts  --      9.7654                21.8255                 5.7260
 IR Inten    --     33.8253               157.6164                17.3602

                     52                     53                     54
                      A                      A                      A
 Frequencies --   3095.5619              3128.5148              3141.2532
 Red. masses --      1.0590                 1.1017                 1.1043
 Frc consts  --      5.9787                 6.3533                 6.4204
 IR Inten    --     28.2808                25.5894                 7.1200

                     55                     56                     57
                      A                      A                      A
 Frequencies --   3160.7100              3205.1340              3270.2698
 Red. masses --      1.1073                 1.0588                 1.0913
 Frc consts  --      6.5178                 6.4087                 6.8765
 IR Inten    --     26.7618                 3.0182                 4.4324

                     58                     59                     60
                      A                      A                      A
 Frequencies --   3299.8610              3301.6357              3322.1736
 Red. masses --      1.1168                 1.1038                 1.0979
 Frc consts  --      7.1649                 7.0892                 7.1392
 IR Inten    --      0.6681                 1.4879                 1.6958

 - Thermochemistry -
 -------------------
 Temperature   298.150 Kelvin.  Pressure   1.00000 Atm.
 Atom     1 has atomic number  6 and mass  12.00000

 Molecular mass:   166.06299 amu.
 Principal axes and moments of inertia in atomic units:
                           1         2         3
     Eigenvalues --   709.782993689.232694228.39581
           X            0.99998  -0.00108   0.00548
           Y            0.00110   0.99999  -0.00423
           Z           -0.00548   0.00424   0.99998
 This molecule is an asymmetric top.
 Rotational symmetry number  1.
 Warning -- assumption of classical behavior for rotation
           may cause significant error
 Rotational temperatures (Kelvin)      0.12203     0.02348     0.02048
 Rotational constants (GHZ):           2.54267     0.48919     0.42681
 Zero-point vibrational energy     461535.0 (Joules/Mol)
                                  110.30951 (Kcal/Mol)
 Warning -- explicit consideration of  14 degrees of freedom as
           vibrations may cause significant error
 Vibrational temperatures:     41.18    75.76   114.36   142.31   219.08
          (Kelvin)            256.96   330.00   410.59   454.09   512.03
                              592.69   617.55   686.03   869.23   896.57
                              900.02  1056.67  1058.39  1081.42  1156.93
                             1166.10  1197.22  1271.18  1282.08  1308.68
                             1319.62  1361.91  1377.38  1497.60  1514.99
                             1603.75  1621.22  1632.50  1720.67  1740.51
                             1793.95  1811.87  1933.85  1976.53  2042.53
                             2068.47  2071.10  2086.29  2180.83  2185.88
                             2208.35  2213.19  2328.17  2425.26  2583.38
                             4406.08  4453.82  4501.24  4519.56  4547.56
                             4611.47  4705.19  4747.76  4750.32  4779.87

 Zero-point correction=                           0.175789 (Hartree/Particle)
 Thermal correction to Energy=                    0.187138
 Thermal correction to Enthalpy=                  0.188082
 Thermal correction to Gibbs Free Energy=         0.137041
 Sum of electronic and zero-point Energies=           -574.481563
 Sum of electronic and thermal Energies=              -574.470214
 Sum of electronic and thermal Enthalpies=            -574.469270
 Sum of electronic and thermal Free Energies=         -574.520311

                     E (Thermal)             CV                S
                      KCal/Mol        Cal/Mol-Kelvin    Cal/Mol-Kelvin
 Total                  117.431             41.638            107.426
 Electronic               0.000              0.000              0.000
 Translational            0.889              2.981             41.230
 Rotational               0.889              2.981             30.783
 Vibrational            115.653             35.676             35.413
 Vibration     1          0.593              1.984              5.923
 Vibration     2          0.596              1.977              4.715
 Vibration     3          0.600              1.963              3.904
 Vibration     4          0.604              1.950              3.476
 Vibration     5          0.619              1.900              2.644
 Vibration     6          0.629              1.869              2.343
 Vibration     7          0.652              1.796              1.884
 Vibration     8          0.683              1.701              1.501
 Vibration     9          0.703              1.644              1.333
 Vibration    10          0.731              1.563              1.140
 Vibration    11          0.776              1.444              0.920
 Vibration    12          0.791              1.407              0.861
 Vibration    13          0.833              1.301              0.719
 Vibration    14          0.963              1.023              0.443

 Optimization completed.
    -- Stationary point found.

 1\1\GINC-NODE204\Freq\RB3LYP\6-31G(d)\C9H10O3\VSC10255\09-Dec-2020\0\\
 #N Geom=AllCheck Guess=TCheck SCRF=Check GenChk RB3LYP/6-31G(d) Freq\\
 CID_22498573_JID_2394_neutraal\\0,1\C,0.7898687533,-0.1042664335,-0.15
 37581197\C,0.8803335066,0.6957848792,-1.4432422214\O,1.3482072331,-0.1
 25120906,-2.5374577811\C,2.6850794461,-0.2908538118,-2.6296215793\O,3.
 4738962082,0.2284523217,-1.8631220421\C,3.0665632116,-1.176012819,-3.7
 753173563\C,2.1205749441,-1.7343188516,-4.5546579771\C,4.4893530022,-1
 .3985423631,-3.9909601715\C,5.6392029304,-0.9757403043,-3.3735654815\C

 Normal termination of Gaussian 16 at Wed Dec  9 17:23:23 2020.

 ----------------------------------------------------------------------
 # B3LYP/6-311++G(d,p) empiricaldispersion=gd3bj scf=xqc pop=npa geom=c
 heck
 ----------------------------------------------------------------------

 --------------------------------------
 CID_22498573_JID_2394_Energie_neutraal
 --------------------------------------
 Structure from the checkpoint file:  "JID_2394.chk"
 Charge =  0 Multiplicity = 1

 SCF Done:  E(RB3LYP) =  -574.820690477     A.U. after   15 cycles
 Normal termination of Gaussian 16 at Wed Dec  9 17:25:22 2020.

 ----------------------------------------------------------------------
 # B3LYP/6-311++G(d,p) empiricaldispersion=gd3bj scf=xqc pop=npa geom=c
 heck
 ----------------------------------------------------------------------

 ------------------------------------
 CID_22498573_JID_2394_Energie_kation
 ------------------------------------
 Structure from the checkpoint file:  "JID_2394.chk"
 Charge =  1 Multiplicity = 2

 SCF Done:  E(UB3LYP) =  -574.525674202     A.U. after   20 cycles
 Normal termination of Gaussian 16 at Wed Dec  9 17:29:24 2020.
 Gaussian 16:  ES64L-G16RevA.03 25-Dec-2016

 -----------------------------------
 CID_22498573_JID_2394_Energie_anion
 -----------------------------------
 Structure from the checkpoint file:  "JID_2394.chk"
 Charge = -1 Multiplicity = 2

                         Standard orientation:
 ---------------------------------------------------------------------
 Center     Atomic      Atomic             Coordinates (Angstroms)
 Number     Number       Type             X           Y           Z
 ---------------------------------------------------------------------
      1          6           0        3.890455   -0.583539    0.884190
      2          6           0        3.384167   -0.082927   -0.458976
      3          8           0        2.148983    0.653802   -0.311829
      4          6           0        1.019767   -0.083077   -0.240632
      5          8           0        1.012018   -1.296989   -0.316734
      6          6           0       -0.199254    0.767730   -0.062391
      7          6           0       -0.091478    2.106037    0.043858
      8          6           0       -1.481093    0.079198   -0.006145
      9          6           0       -1.879391   -1.231465   -0.081075
     10          6           0       -3.304291   -1.236210    0.044267
     11          6           0       -3.678571    0.065400    0.186535
     12          8           0       -2.588030    0.879994    0.158691
     13          1           0        4.007992    0.246930    1.587675
     14          1           0        4.864402   -1.069446    0.756949
     15          1           0        3.194380   -1.312147    1.307682
     16          1           0        4.072618    0.637894   -0.905848
     17          1           0        3.220259   -0.909472   -1.154255
     18          1           0       -0.971396    2.724886    0.176857
     19          1           0        0.874665    2.590492   -0.000321
     20          1           0       -1.222188   -2.075313   -0.209235
     21          1           0       -3.957822   -2.096893    0.029625
     22          1           0       -4.628553    0.561739    0.312052
 ---------------------------------------------------------------------

 SCF Done:  E(UB3LYP) =  -574.828158169     A.U. after   27 cycles

 The electronic state is 2-A.
 Alpha  occ. eigenvalues --  -19.03330 -19.01106 -18.93570 -10.12237 -10.10366
 Alpha  occ. eigenvalues --  -10.07337 -10.07068 -10.05196 -10.03176 -10.00838
 Alpha  occ. eigenvalues --  -10.00826  -9.98027  -0.96037  -0.94933  -0.85570
 Alpha  occ. eigenvalues --   -0.65917  -0.65208  -0.63659  -0.57431  -0.52754
 Alpha  occ. eigenvalues --   -0.46850  -0.44950  -0.42859  -0.40248  -0.38412
 Alpha  occ. eigenvalues --   -0.34983  -0.32970  -0.31512  -0.30642  -0.30277
 Alpha  occ. eigenvalues --   -0.28913  -0.28092  -0.26436  -0.25832  -0.25110
 Alpha  occ. eigenvalues --   -0.24148  -0.22178  -0.21498  -0.20412  -0.15994
 Alpha  occ. eigenvalues --   -0.14436  -0.13863  -0.11593  -0.06742   0.05191
 Alpha virt. eigenvalues --    0.07740   0.09140   0.10383   0.10684   0.10996
 Alpha virt. eigenvalues --    0.11983   0.12809   0.13986   0.14204   0.14550
 Alpha virt. eigenvalues --    0.15195   0.16654   0.17431   0.17771   0.18133

  Beta  occ. eigenvalues --  -19.03254 -19.01093 -18.93334 -10.12025 -10.10367
  Beta  occ. eigenvalues --  -10.07217 -10.07037 -10.05179 -10.03218 -10.00773
  Beta  occ. eigenvalues --  -10.00740  -9.97399  -0.95903  -0.94758  -0.85227
  Beta  occ. eigenvalues --   -0.65638  -0.65106  -0.63381  -0.57017  -0.52494
  Beta  occ. eigenvalues --   -0.46231  -0.44441  -0.42677  -0.40101  -0.38274
  Beta  occ. eigenvalues --   -0.34862  -0.32717  -0.31153  -0.30233  -0.30045
  Beta  occ. eigenvalues --   -0.28732  -0.27958  -0.26288  -0.25549  -0.24686
  Beta  occ. eigenvalues --   -0.23910  -0.22043  -0.21160  -0.20257  -0.15387
  Beta  occ. eigenvalues --   -0.13516  -0.12820  -0.11349  -0.04935
  Beta virt. eigenvalues --    0.07755   0.09110   0.10206   0.10626   0.10954
  Beta virt. eigenvalues --    0.11698   0.11926   0.12802   0.13928   0.14436
  Beta virt. eigenvalues --    0.14971   0.15222   0.16922   0.17404   0.17805

 Mulliken charges and spin densities:
               1          2
     1  C   -0.005429  -0.309597
     2  C   -0.291345   0.099368
     3  O   -0.031060  -0.001778
     4  C   -0.858477   0.099084
     5  O   -0.347475   0.086802
     6  C    0.566653  -0.036478
     7  C   -0.814465   0.649054
     8  C   -0.197083   0.017054
     9  C    0.425182   0.079557
    10  C   -0.483844  -0.027236
    11  C    0.029789   0.089674
    12  O   -0.048629   0.015094
    13  H    0.055004   0.073956
    14  H   -0.036293   0.136299
    15  H    0.094197   0.078229
    16  H    0.091586   0.035751
    17  H    0.171656  -0.012558
    18  H    0.115144  -0.031052
    19  H    0.134403  -0.030514
    20  H    0.190544  -0.005683
    21  H    0.112935   0.002317
    22  H    0.127007  -0.007342
 Sum of Mulliken charges =  -1.00000   1.00000

 Dipole moment (field-independent basis, Debye):
    X=              0.9166    Y=             -1.1477    Z=             -0.2436  Tot=              1.4889
 Quadrupole moment (field-independent basis, Debye-Ang):
   XX=            -94.7908   YY=            -89.8053   ZZ=            -81.9284
   XY=              2.0657   XZ=             -2.5539   YZ=             -0.2654

 Summary of Natural Population Analysis:

                                       Natural Population
                Natural  -----------------------------------------------
    Atom  No    Charge         Core      Valence    Rydberg      Total
 -----------------------------------------------------------------------
      C    1   -0.29904      0.99966     2.29479    0.00458     3.29904
      C    2   -0.01821      0.99959     2.00511    0.01351     3.01821
      O    3   -0.28814      0.99986     3.27964    0.00864     4.28814
      C    4    0.42583      0.99965     1.54803    0.02649     2.57417
      O    5   -0.31231      0.99987     3.30710    0.00533     4.31231
      C    6   -0.11418      0.99943     2.10352    0.01123     3.11418
      C    7   -0.01046      0.99958     2.00236    0.00852     3.01046
      C    8    0.16374      0.99945     1.82305    0.01376     2.83626
      C    9   -0.14350      0.99952     2.13563    0.00835     3.14350
      C   10   -0.17056      0.99957     2.16240    0.00858     3.17056
      C   11    0.06152      0.99953     1.92378    0.01518     2.93848
      O   12   -0.23445      0.99986     3.22601    0.00858     4.23445
      H   13    0.09686      0.00000     0.40167    0.00148     0.40314
      H   14    0.09205      0.00000     0.40661    0.00134     0.40795
      H   15    0.10898      0.00000     0.38955    0.00147     0.39102
      H   16    0.08163      0.00000     0.41724    0.00113     0.41837
      H   17    0.09301      0.00000     0.40563    0.00136     0.40699
      H   18    0.08217      0.00000     0.41696    0.00087     0.41783
      H   19    0.08695      0.00000     0.41228    0.00077     0.41305
      H   20    0.11766      0.00000     0.38154    0.00080     0.38234
      H   21    0.09730      0.00000     0.40180    0.00089     0.40270
      H   22    0.08314      0.00000     0.41588    0.00099     0.41686
 =======================================================================
   * Total *    0.00000     11.99557    31.86058    0.14385    44.00000

 Normal termination of Gaussian 16 at Wed Dec  9 17:34:25 2020.
