 Gaussian 16, Revision A.03,

 -----------------------------------------------------------
 # opt freq B3LYP/6-31G(d) empiricaldispersion=gd3bj scf=xqc
 -----------------------------------------------------------

 --------------------------------
 CID_114709908_JID_10022_neutraal
 --------------------------------
 Symbolic Z-matrix:
 Charge =  0 Multiplicity = 1

 SCF Done:  E(RB3LYP) =  -880.550143419     A.U. after   14 cycles
 SCF Done:  E(RB3LYP) =  -880.553561450     A.U. after   12 cycles
 SCF Done:  E(RB3LYP) =  -880.553789147     A.U. after   11 cycles
 SCF Done:  E(RB3LYP) =  -880.553842897     A.U. after   10 cycles
 SCF Done:  E(RB3LYP) =  -880.553873954     A.U. after   11 cycles
 SCF Done:  E(RB3LYP) =  -880.553887961     A.U. after   11 cycles
 SCF Done:  E(RB3LYP) =  -880.553895065     A.U. after   10 cycles
 SCF Done:  E(RB3LYP) =  -880.553896661     A.U. after    9 cycles
 SCF Done:  E(RB3LYP) =  -880.553896868     A.U. after    7 cycles
 SCF Done:  E(RB3LYP) =  -880.553897279     A.U. after    8 cycles
 SCF Done:  E(RB3LYP) =  -880.554106984     A.U. after   10 cycles
 SCF Done:  E(RB3LYP) =  -880.554110121     A.U. after   10 cycles
 SCF Done:  E(RB3LYP) =  -880.554110885     A.U. after    7 cycles
 SCF Done:  E(RB3LYP) =  -880.554111176     A.U. after    8 cycles
 SCF Done:  E(RB3LYP) =  -880.554111233     A.U. after    7 cycles
 Optimization completed.
    -- Stationary point found.
 Normal termination of Gaussian 16 at Sun Dec 13 12:58:32 2020.

 --------------------------------------------------------------------
 #N Geom=AllCheck Guess=TCheck SCRF=Check GenChk RB3LYP/6-31G(d) Freq
 --------------------------------------------------------------------

 Structure from the checkpoint file:  "JID_10022.chk"
 --------------------------------
 CID_114709908_JID_10022_neutraal
 --------------------------------
 Charge =  0 Multiplicity = 1

 SCF Done:  E(RB3LYP) =  -880.554111233     A.U. after    1 cycles

  Exact polarizability: 278.514   2.591 162.879  -0.145  14.303 116.604
 Approx polarizability: 357.016   0.737 272.143  -4.390  36.158 195.920

                      1                      2                      3
                      A                      A                      A
 Frequencies --     21.2002                26.6085                48.6820
 Red. masses --      4.4311                 4.1012                 1.6998
 Frc consts  --      0.0012                 0.0017                 0.0024
 IR Inten    --      0.3431                 1.4840                 0.8399

                      4                      5                      6
                      A                      A                      A
 Frequencies --     52.9780                73.4508               102.6880
 Red. masses --      1.7311                 3.5495                 3.3325
 Frc consts  --      0.0029                 0.0113                 0.0207
 IR Inten    --      0.1044                 1.3812                 1.4970

                      7                      8                      9
                      A                      A                      A
 Frequencies --    132.4801               147.5587               165.6352
 Red. masses --      3.8496                 3.2629                 4.1011
 Frc consts  --      0.0398                 0.0419                 0.0663
 IR Inten    --      0.3462                 1.9685                 1.3208

                     10                     11                     12
                      A                      A                      A
 Frequencies --    179.6223               214.6001               239.7006
 Red. masses --      4.1390                 4.2342                 3.0806
 Frc consts  --      0.0787                 0.1149                 0.1043
 IR Inten    --      1.9028                 0.7174                 4.0863

                     13                     14                     15
                      A                      A                      A
 Frequencies --    264.6876               280.3353               323.8172
 Red. masses --      1.3614                 1.3847                 2.9421
 Frc consts  --      0.0562                 0.0641                 0.1818
 IR Inten    --     16.1006                17.2012                 5.6642

                     16                     17                     18
                      A                      A                      A
 Frequencies --    343.2816               369.7045               386.7123
 Red. masses --      2.8336                 3.2265                 4.8346
 Frc consts  --      0.1967                 0.2598                 0.4260
 IR Inten    --     14.2510                 5.6526                 1.5050

                     19                     20                     21
                      A                      A                      A
 Frequencies --    403.1185               419.9418               427.5170
 Red. masses --      3.1677                 3.6205                 4.6037
 Frc consts  --      0.3033                 0.3762                 0.4958
 IR Inten    --      1.2215                 5.1151                 1.3626

                     22                     23                     24
                      A                      A                      A
 Frequencies --    458.6881               478.2356               490.0602
 Red. masses --      3.4543                 3.5108                 3.8986
 Frc consts  --      0.4282                 0.4731                 0.5516
 IR Inten    --      7.5519                 4.2174                 2.4319

                     25                     26                     27
                      A                      A                      A
 Frequencies --    524.7856               545.3338               574.1946
 Red. masses --      4.5166                 3.3738                 3.4502
 Frc consts  --      0.7329                 0.5911                 0.6702
 IR Inten    --      2.1905                 4.1533                 8.4621

                     28                     29                     30
                      A                      A                      A
 Frequencies --    597.4449               611.6302               639.9638
 Red. masses --      5.3858                 3.0091                 3.5333
 Frc consts  --      1.1327                 0.6632                 0.8526
 IR Inten    --      1.2873                 2.1972                 0.8364

                     31                     32                     33
                      A                      A                      A
 Frequencies --    662.3365               715.9583               736.9960
 Red. masses --      7.0887                 5.4168                 3.6832
 Frc consts  --      1.8322                 1.6359                 1.1787
 IR Inten    --      2.6966                 4.2206                 8.1693

                     34                     35                     36
                      A                      A                      A
 Frequencies --    752.2138               783.1582               831.2697
 Red. masses --      3.3305                 4.5226                 2.8182
 Frc consts  --      1.1103                 1.6343                 1.1474
 IR Inten    --      9.2550                 8.0105                25.8243

                     37                     38                     39
                      A                      A                      A
 Frequencies --    838.7498               851.5644               854.6171
 Red. masses --      1.8678                 1.4423                 1.5833
 Frc consts  --      0.7742                 0.6162                 0.6813
 IR Inten    --     27.8033                 4.3809                41.0326

                     40                     41                     42
                      A                      A                      A
 Frequencies --    887.4192               898.9482               930.9449
 Red. masses --      4.5692                 1.6677                 3.8063
 Frc consts  --      2.1201                 0.7940                 1.9435
 IR Inten    --     26.9420               189.1179                 2.0315

                     43                     44                     45
                      A                      A                      A
 Frequencies --    942.9444               948.2129               954.5675
 Red. masses --      2.0115                 1.3383                 1.4752
 Frc consts  --      1.0538                 0.7089                 0.7920
 IR Inten    --     23.8772                 2.6701                 4.9209

                     46                     47                     48
                      A                      A                      A
 Frequencies --    990.3368              1016.1599              1024.0791
 Red. masses --      1.3365                 1.7200                 1.8879
 Frc consts  --      0.7723                 1.0464                 1.1665
 IR Inten    --      1.3235                 8.2226                 3.6990

                     49                     50                     51
                      A                      A                      A
 Frequencies --   1038.8581              1054.9939              1075.2902
 Red. masses --      2.4535                 2.6149                 1.5796
 Frc consts  --      1.5601                 1.7147                 1.0761
 IR Inten    --     27.3611                 5.4707                 7.3454

                     52                     53                     54
                      A                      A                      A
 Frequencies --   1084.8834              1098.7012              1134.3626
 Red. masses --      4.0393                 4.6806                 1.7833
 Frc consts  --      2.8011                 3.3290                 1.3520
 IR Inten    --     39.3783               122.8935                 6.8346

                     55                     56                     57
                      A                      A                      A
 Frequencies --   1156.0461              1165.7000              1182.1724
 Red. masses --      1.9986                 1.2841                 1.5067
 Frc consts  --      1.5737                 1.0281                 1.2406
 IR Inten    --      1.0990                14.9310                 1.4060

                     58                     59                     60
                      A                      A                      A
 Frequencies --   1187.3011              1187.7746              1224.8137
 Red. masses --      1.6608                 1.2859                 1.4593
 Frc consts  --      1.3794                 1.0689                 1.2898
 IR Inten    --     25.7866                 1.8890                 1.3091

                     61                     62                     63
                      A                      A                      A
 Frequencies --   1242.1125              1250.4331              1262.0833
 Red. masses --      2.4814                 1.8253                 1.9882
 Frc consts  --      2.2557                 1.6815                 1.8659
 IR Inten    --      0.7294               117.4939               318.2336

                     64                     65                     66
                      A                      A                      A
 Frequencies --   1274.5645              1298.9666              1312.6161
 Red. masses --      2.1147                 2.7577                 2.2588
 Frc consts  --      2.0241                 2.7415                 2.2930
 IR Inten    --      6.4866                13.2695               106.9049

                     67                     68                     69
                      A                      A                      A
 Frequencies --   1318.3455              1323.0348              1344.3556
 Red. masses --      3.5352                 1.8742                 1.4319
 Frc consts  --      3.6201                 1.9329                 1.5247
 IR Inten    --     18.5321                19.5109                 4.7188

                     70                     71                     72
                      A                      A                      A
 Frequencies --   1355.9738              1374.3480              1381.4962
 Red. masses --      1.3740                 5.8026                 1.4819
 Frc consts  --      1.4884                 6.4575                 1.6664
 IR Inten    --     21.8434                36.4057                76.5864

                     73                     74                     75
                      A                      A                      A
 Frequencies --   1399.6159              1426.9095              1439.0084
 Red. masses --      1.7536                 1.4691                 1.2737
 Frc consts  --      2.0239                 1.7624                 1.5540
 IR Inten    --      7.2393                12.8186                 0.4641

                     76                     77                     78
                      A                      A                      A
 Frequencies --   1444.8550              1472.2931              1502.6852
 Red. masses --      2.1266                 3.0345                 1.2975
 Frc consts  --      2.6157                 3.8755                 1.7262
 IR Inten    --      6.4782                67.2191                20.3184

                     79                     80                     81
                      A                      A                      A
 Frequencies --   1506.6108              1507.0567              1518.8780
 Red. masses --      1.0454                 1.1097                 1.1205
 Frc consts  --      1.3981                 1.4850                 1.5230
 IR Inten    --      5.2361                 1.3560                15.8625

                     82                     83                     84
                      A                      A                      A
 Frequencies --   1519.9063              1535.0099              1540.9451
 Red. masses --      1.0481                 1.1612                 2.7180
 Frc consts  --      1.4265                 1.6120                 3.8026
 IR Inten    --      5.8254               139.2535                39.1504

                     85                     86                     87
                      A                      A                      A
 Frequencies --   1551.1899              1627.9951              1643.8906
 Red. masses --      2.2075                 5.4473                 8.1304
 Frc consts  --      3.1295                 8.5063                12.9452
 IR Inten    --    224.7031                15.0683                 2.6603

                     88                     89                     90
                      A                      A                      A
 Frequencies --   1663.3578              1677.9946              1697.5091
 Red. masses --      5.9349                 5.9930                 1.0948
 Frc consts  --      9.6746                 9.9420                 1.8587
 IR Inten    --     30.7283                11.2590                14.6316

                     91                     92                     93
                      A                      A                      A
 Frequencies --   2996.0924              3017.1805              3022.3403
 Red. masses --      1.0833                 1.0356                 1.0830
 Frc consts  --      5.7295                 5.5543                 5.8286
 IR Inten    --     23.9505                54.3845                25.3105

                     94                     95                     96
                      A                      A                      A
 Frequencies --   3054.5796              3056.3065              3072.3429
 Red. masses --      1.0673                 1.0359                 1.1062
 Frc consts  --      5.8674                 5.7013                 6.1522
 IR Inten    --     26.4707                23.5067                48.8257

                     97                     98                     99
                      A                      A                      A
 Frequencies --   3115.7303              3123.5265              3137.2710
 Red. masses --      1.1008                 1.0981                 1.1031
 Frc consts  --      6.2963                 6.3119                 6.3968
 IR Inten    --     13.2127                20.0053                18.8867

                    100                    101                    102
                      A                      A                      A
 Frequencies --   3146.7247              3156.3296              3197.4091
 Red. masses --      1.0898                 1.0987                 1.0893
 Frc consts  --      6.3578                 6.4491                 6.5611
 IR Inten    --     30.2950                32.2071                16.2488

                    103                    104                    105
                      A                      A                      A
 Frequencies --   3208.4895              3216.3083              3221.9269
 Red. masses --      1.0876                 1.0878                 1.0936
 Frc consts  --      6.5966                 6.6303                 6.6886
 IR Inten    --      8.5175                12.1911                 6.3705

                    106                    107                    108
                      A                      A                      A
 Frequencies --   3223.6849              3462.6484              3553.2573
 Red. masses --      1.0951                 1.0499                 1.0918
 Frc consts  --      6.7054                 7.4167                 8.1213
 IR Inten    --      7.4619                 1.6069                 1.4687

 - Thermochemistry -
 -------------------
 Temperature   298.150 Kelvin.  Pressure   1.00000 Atm.
 Atom     1 has atomic number  6 and mass  12.00000

 Molecular mass:   270.13683 amu.
 Principal axes and moments of inertia in atomic units:
                           1         2         3
     Eigenvalues --  1723.79019********************
           X            0.99996   0.00873   0.00233
           Y           -0.00874   0.99993   0.00828
           Z           -0.00225  -0.00830   0.99996
 This molecule is an asymmetric top.
 Rotational symmetry number  1.
 Warning -- assumption of classical behavior for rotation
           may cause significant error
 Rotational temperatures (Kelvin)      0.05025     0.00680     0.00624
 Rotational constants (GHZ):           1.04696     0.14164     0.12996
 Zero-point vibrational energy     832315.1 (Joules/Mol)
                                  198.92809 (Kcal/Mol)
 Warning -- explicit consideration of  29 degrees of freedom as
           vibrations may cause significant error
 Vibrational temperatures:     30.50    38.28    70.04    76.22   105.68
          (Kelvin)            147.75   190.61   212.30   238.31   258.44
                              308.76   344.88   380.83   403.34   465.90
                              493.91   531.92   556.39   580.00   604.20
                              615.10   659.95   688.07   705.09   755.05
                              784.61   826.14   859.59   880.00   920.77
                              952.95  1030.10  1060.37  1082.27  1126.79
                             1196.01  1206.77  1225.21  1229.60  1276.80
                             1293.39  1339.42  1356.69  1364.27  1373.41
                             1424.87  1462.03  1473.42  1494.69  1517.90
                             1547.10  1560.91  1580.79  1632.09  1663.29
                             1677.18  1700.88  1708.26  1708.94  1762.23
                             1787.12  1799.09  1815.86  1833.81  1868.92
                             1888.56  1896.81  1903.55  1934.23  1950.94
                             1977.38  1987.66  2013.74  2053.00  2070.41
                             2078.82  2118.30  2162.03  2167.68  2168.32
                             2185.33  2186.81  2208.54  2217.08  2231.82
                             2342.32  2365.19  2393.20  2414.26  2442.34
                             4310.71  4341.05  4348.47  4394.86  4397.34
                             4420.42  4482.84  4494.06  4513.83  4527.44
                             4541.25  4600.36  4616.30  4627.55  4635.63
                             4638.16  4981.98  5112.34

 Zero-point correction=                           0.317012 (Hartree/Particle)
 Thermal correction to Energy=                    0.335009
 Thermal correction to Enthalpy=                  0.335953
 Thermal correction to Gibbs Free Energy=         0.269224
 Sum of electronic and zero-point Energies=           -880.237099
 Sum of electronic and thermal Energies=              -880.219102
 Sum of electronic and thermal Enthalpies=            -880.218158
 Sum of electronic and thermal Free Energies=         -880.284887

                     E (Thermal)             CV                S
                      KCal/Mol        Cal/Mol-Kelvin    Cal/Mol-Kelvin
 Total                  210.221             69.442            140.443
 Electronic               0.000              0.000              0.000
 Translational            0.889              2.981             42.680
 Rotational               0.889              2.981             34.077
 Vibrational            208.444             63.480             63.686
 Vibration     1          0.593              1.985              6.518
 Vibration     2          0.593              1.984              6.067
 Vibration     3          0.595              1.978              4.870
 Vibration     4          0.596              1.976              4.703
 Vibration     5          0.599              1.967              4.059
 Vibration     6          0.605              1.947              3.403
 Vibration     7          0.613              1.921              2.910
 Vibration     8          0.617              1.905              2.703
 Vibration     9          0.624              1.885              2.484
 Vibration    10          0.629              1.867              2.332
 Vibration    11          0.645              1.819              2.004
 Vibration    12          0.657              1.780              1.805
 Vibration    13          0.671              1.738              1.631
 Vibration    14          0.680              1.710              1.532
 Vibration    15          0.708              1.628              1.291
 Vibration    16          0.722              1.589              1.197
 Vibration    17          0.742              1.534              1.081
 Vibration    18          0.755              1.499              1.013
 Vibration    19          0.769              1.463              0.951
 Vibration    20          0.783              1.427              0.892
 Vibration    21          0.789              1.410              0.867
 Vibration    22          0.817              1.342              0.770
 Vibration    23          0.835              1.298              0.715
 Vibration    24          0.846              1.272              0.683
 Vibration    25          0.880              1.195              0.599
 Vibration    26          0.900              1.150              0.554
 Vibration    27          0.930              1.087              0.496
 Vibration    28          0.955              1.037              0.454
 Vibration    29          0.971              1.007              0.430

 Optimization completed.
    -- Stationary point found.
 Normal termination of Gaussian 16 at Sun Dec 13 13:18:43 2020.

 ----------------------------------------------------------------------
 # B3LYP/6-311++G(d,p) empiricaldispersion=gd3bj scf=xqc pop=npa geom=c
 heck
 ----------------------------------------------------------------------

 ----------------------------------------
 CID_114709908_JID_10022_Energie_neutraal
 ----------------------------------------
 Structure from the checkpoint file:  "JID_10022.chk"
 Charge =  0 Multiplicity = 1

 SCF Done:  E(RB3LYP) =  -880.792900212     A.U. after   15 cycles
 Normal termination of Gaussian 16 at Sun Dec 13 13:27:56 2020.

 ----------------------------------------------------------------------
 # B3LYP/6-311++G(d,p) empiricaldispersion=gd3bj scf=xqc pop=npa geom=c
 heck
 ----------------------------------------------------------------------

 --------------------------------------
 CID_114709908_JID_10022_Energie_kation
 --------------------------------------
 Structure from the checkpoint file:  "JID_10022.chk"
 Charge =  1 Multiplicity = 2

 SCF Done:  E(UB3LYP) =  -880.519579096     A.U. after   26 cycles
 Normal termination of Gaussian 16 at Sun Dec 13 13:51:23 2020.
 Gaussian 16:  ES64L-G16RevA.03 25-Dec-2016

 ----------------------------------------------------------------------
 # B3LYP/6-311++G(d,p) empiricaldispersion=gd3bj scf=xqc pop=npa geom=c
 heck
 ----------------------------------------------------------------------

 -------------------------------------
 CID_114709908_JID_10022_Energie_anion
 -------------------------------------
 Structure from the checkpoint file:  "JID_10022.chk"
 Charge = -1 Multiplicity = 2

                         Standard orientation:
 ---------------------------------------------------------------------
 Center     Atomic      Atomic             Coordinates (Angstroms)
 Number     Number       Type             X           Y           Z
 ---------------------------------------------------------------------
      1          6           0       -6.574472   -0.403781   -0.361343
      2          6           0       -5.087152   -0.276779   -0.156006
      3          7           0       -4.688932    0.517968    0.852450
      4          6           0       -3.378757    0.651367    1.066576
      5          6           0       -2.385980    0.026345    0.307145
      6          6           0       -2.805661   -0.800796   -0.734861
      7          6           0       -4.169267   -0.955299   -0.966345
      8          6           0       -0.929032    0.295453    0.578577
      9          6           0       -0.394727    1.476552   -0.232891
     10          6           0        1.068121    1.753629    0.120516
     11          6           0        1.843085    0.436356    0.122076
     12          6           0        1.167150   -0.786575    0.193191
     13          8           0       -0.200525   -0.898519    0.265015
     14          6           0        1.879438   -1.992361    0.170277
     15          6           0        3.261787   -1.989648    0.085679
     16          6           0        3.957008   -0.773234    0.025720
     17          6           0        3.244212    0.424528    0.041828
     18          8           0        5.320829   -0.869331   -0.050012
     19          6           0        6.061889    0.334202   -0.113099
     20          7           0        1.584886    2.803652   -0.763421
     21          1           0       -7.049688   -0.816130    0.535782
     22          1           0       -7.020581    0.581577   -0.535316
     23          1           0       -6.811855   -1.050942   -1.210746
     24          1           0       -3.096708    1.296602    1.899475
     25          1           0       -2.070389   -1.322560   -1.338511
     26          1           0       -4.523506   -1.597753   -1.767066
     27          1           0       -0.791137    0.510603    1.650102
     28          1           0       -0.484412    1.233444   -1.299997
     29          1           0       -0.998974    2.369090   -0.048796
     30          1           0        1.094420    2.174195    1.135941
     31          1           0        1.323178   -2.922796    0.220941
     32          1           0        3.826420   -2.915908    0.067462
     33          1           0        3.765179    1.372752   -0.022315
     34          1           0        5.808349    0.919313   -1.008023
     35          1           0        5.899401    0.956533    0.777720
     36          1           0        7.112050    0.040825   -0.161005
     37          1           0        2.489033    3.132711   -0.431087
     38          1           0        1.749254    2.410147   -1.690029
 ---------------------------------------------------------------------

 SCF Done:  E(UB3LYP) =  -880.788021152     A.U. after   33 cycles
 SCF Done:  E(UB3LYP) =  -880.788021152     a.u. after    1 cycles

 The electronic state is 2-A.
 Alpha  occ. eigenvalues --  -19.05616 -19.05201 -14.19880 -14.19600 -10.14205
 Alpha  occ. eigenvalues --  -10.13395 -10.13160 -10.12376 -10.11227 -10.10995
 Alpha  occ. eigenvalues --  -10.10199 -10.08249 -10.08187 -10.08048 -10.07909
 Alpha  occ. eigenvalues --  -10.07785 -10.07719 -10.07666 -10.07512 -10.07482
 Alpha  occ. eigenvalues --   -0.97215  -0.97117  -0.84051  -0.80073  -0.75832
 Alpha  occ. eigenvalues --   -0.72174  -0.69023  -0.67959  -0.66469  -0.64937
 Alpha  occ. eigenvalues --   -0.62037  -0.59796  -0.55127  -0.54415  -0.53198
 Alpha  occ. eigenvalues --   -0.50885  -0.49795  -0.46729  -0.44018  -0.42988
 Alpha  occ. eigenvalues --   -0.42117  -0.40331  -0.39670  -0.38026  -0.37269
 Alpha  occ. eigenvalues --   -0.36806  -0.36609  -0.34561  -0.34134  -0.34088
 Alpha  occ. eigenvalues --   -0.33646  -0.32255  -0.31993  -0.31386  -0.31042
 Alpha  occ. eigenvalues --   -0.30105  -0.28825  -0.28203  -0.28079  -0.27281
 Alpha  occ. eigenvalues --   -0.26692  -0.26146  -0.24491  -0.23766  -0.22613
 Alpha  occ. eigenvalues --   -0.19810  -0.18688  -0.16767  -0.15679  -0.15448
 Alpha  occ. eigenvalues --   -0.14698  -0.11022   0.03919
 Alpha virt. eigenvalues --    0.05317   0.06389   0.06789   0.07661   0.07736
 Alpha virt. eigenvalues --    0.07865   0.08352   0.08714   0.08950   0.09952
 Alpha virt. eigenvalues --    0.10333   0.10529   0.10716   0.10848   0.11360

  Beta  occ. eigenvalues --  -19.05610 -19.05198 -14.19836 -14.19387 -10.14204
  Beta  occ. eigenvalues --  -10.13403 -10.13159 -10.12327 -10.11219 -10.10940
  Beta  occ. eigenvalues --  -10.10175 -10.08222 -10.08185 -10.08054 -10.07899
  Beta  occ. eigenvalues --  -10.07795 -10.07688 -10.07654 -10.07473 -10.07274
  Beta  occ. eigenvalues --   -0.97201  -0.97105  -0.83761  -0.79996  -0.75786
  Beta  occ. eigenvalues --   -0.72028  -0.68812  -0.67871  -0.66394  -0.64884
  Beta  occ. eigenvalues --   -0.61971  -0.59720  -0.55062  -0.54351  -0.52982
  Beta  occ. eigenvalues --   -0.50831  -0.49670  -0.46667  -0.43973  -0.42936
  Beta  occ. eigenvalues --   -0.42071  -0.40245  -0.39611  -0.37958  -0.37236
  Beta  occ. eigenvalues --   -0.36747  -0.36523  -0.34519  -0.34084  -0.33884
  Beta  occ. eigenvalues --   -0.33593  -0.32214  -0.31952  -0.31328  -0.31007
  Beta  occ. eigenvalues --   -0.30015  -0.28721  -0.28133  -0.27850  -0.27077
  Beta  occ. eigenvalues --   -0.26637  -0.26080  -0.24430  -0.23728  -0.22576
  Beta  occ. eigenvalues --   -0.19718  -0.17737  -0.16656  -0.15438  -0.15117
  Beta  occ. eigenvalues --   -0.14524  -0.10944
  Beta virt. eigenvalues --    0.06310   0.06517   0.07186   0.07323   0.07739
  Beta virt. eigenvalues --    0.07883   0.08182   0.08445   0.08817   0.09456
  Beta virt. eigenvalues --    0.10007   0.10594   0.10631   0.10823   0.10984

 Mulliken charges and spin densities:
               1          2
     1  C   -0.554927  -0.025415
     2  C   -0.130883   0.027352
     3  N   -0.043965   0.102672
     4  C   -0.513690  -0.062934
     5  C    0.345090   0.025347
     6  C   -0.051679   0.171341
     7  C   -0.256240   0.010097
     8  C    0.206527  -0.029782
     9  C   -0.881113   0.112817
    10  C    0.903912  -0.859697
    11  C    0.747722  -0.032904
    12  C   -0.621499   0.031069
    13  O   -0.023789  -0.000329
    14  C   -0.115122   0.003119
    15  C   -0.135369   0.126525
    16  C   -1.312289   0.199077
    17  C    0.473767  -0.140020
    18  O   -0.217834   0.056669
    19  C    0.828824  -1.187921
    20  N   -0.209432  -0.023861
    21  H    0.132302   0.014873
    22  H    0.144981   0.002481
    23  H    0.126211  -0.000580
    24  H    0.129663   0.033005
    25  H    0.179542  -0.012406
    26  H    0.132972   0.003707
    27  H    0.200794  -0.002812
    28  H    0.148035   0.029059
    29  H    0.182100   0.028981
    30  H   -0.154008   0.360164
    31  H    0.140112   0.009603
    32  H    0.119288   0.048998
    33  H    0.394222  -0.301712
    34  H   -0.335816   0.495265
    35  H   -0.448014   0.612068
    36  H   -0.329361   0.494575
    37  H   -0.307315   0.573932
    38  H    0.106279   0.107579
 Sum of Mulliken charges =  -1.00000   1.00000

 Dipole moment (field-independent basis, Debye):
    X=             -6.6553    Y=             -5.2297    Z=             -1.1514  Tot=              8.5421
 Quadrupole moment (field-independent basis, Debye-Ang):
   XX=           -242.1700   YY=           -157.9957   ZZ=           -137.9971
   XY=            -12.3720   XZ=              7.5195   YZ=              1.8445

 Summary of Natural Population Analysis:

                                       Natural Population
                Natural  -----------------------------------------------
    Atom  No    Charge         Core      Valence    Rydberg      Total
 -----------------------------------------------------------------------
      C    1   -0.29665      0.99964     2.29191    0.00510     3.29665
      C    2    0.10919      0.99956     1.87879    0.01247     2.89081
      N    3   -0.21741      0.99967     2.70571    0.01203     3.71741
      C    4    0.03756      0.99954     1.95002    0.01288     2.96244
      C    5   -0.04819      0.99947     2.03813    0.01059     3.04819
      C    6   -0.04188      0.99952     2.03394    0.00843     3.04188
      C    7   -0.12661      0.99952     2.11942    0.00768     3.12661
      C    8    0.06456      0.99949     1.92205    0.01390     2.93544
      C    9   -0.19535      0.99960     2.18604    0.00971     3.19535
      C   10   -0.01726      0.99956     2.00453    0.01317     3.01726
      C   11   -0.04345      0.99947     2.03439    0.00960     3.04345
      C   12    0.14469      0.99932     1.84202    0.01397     2.85531
      O   13   -0.28305      0.99986     3.27446    0.00873     4.28305
      C   14   -0.11155      0.99953     2.10326    0.00876     3.11155
      C   15   -0.11056      0.99953     2.10230    0.00873     3.11056
      C   16    0.14835      0.99938     1.83811    0.01417     2.85165
      C   17   -0.13179      0.99948     2.12316    0.00915     3.13179
      O   18   -0.27629      0.99986     3.26687    0.00956     4.27629
      C   19   -0.10054      0.99960     2.09163    0.00930     3.10054
      N   20   -0.41574      0.99977     2.90593    0.01003     3.91574
      H   21    0.10421      0.00000     0.39472    0.00107     0.39579
      H   22    0.10448      0.00000     0.39447    0.00104     0.39552
      H   23    0.09445      0.00000     0.40475    0.00080     0.40555
      H   24    0.08405      0.00000     0.41294    0.00302     0.41595
      H   25    0.10346      0.00000     0.39556    0.00098     0.39654
      H   26    0.09609      0.00000     0.40285    0.00107     0.40391
      H   27    0.08623      0.00000     0.41179    0.00198     0.41377
      H   28    0.09934      0.00000     0.39946    0.00120     0.40066
      H   29    0.11034      0.00000     0.38869    0.00098     0.38966
      H   30    0.09735      0.00000     0.40065    0.00200     0.40265
      H   31    0.10420      0.00000     0.39485    0.00095     0.39580
      H   32    0.10351      0.00000     0.39557    0.00091     0.39649
      H   33    0.10784      0.00000     0.38981    0.00234     0.39216
      H   34    0.08518      0.00000     0.41280    0.00202     0.41482
      H   35    0.08695      0.00000     0.41097    0.00209     0.41305
      H   36    0.09200      0.00000     0.40679    0.00121     0.40800
      H   37    0.18007      0.00000     0.31653    0.00340     0.31993
      H   38    0.17226      0.00000     0.32591    0.00183     0.32774
 =======================================================================
   * Total *    0.00000     19.99136    51.77178    0.23685    72.00000

 Normal termination of Gaussian 16 at Sun Dec 13 14:21:25 2020.
