 Gaussian 16, Revision A.03,

 -----------------------------------------------------------
 # opt freq B3LYP/6-31G(d) empiricaldispersion=gd3bj scf=xqc
 -----------------------------------------------------------

 -------------------------------
 CID_116593371_JID_4757_neutraal
 -------------------------------
 Symbolic Z-matrix:
 Charge =  0 Multiplicity = 1

 SCF Done:  E(RB3LYP) =  -615.948687582     A.U. after   14 cycles
 SCF Done:  E(RB3LYP) =  -615.956616040     A.U. after   13 cycles
 SCF Done:  E(RB3LYP) =  -615.955295662     A.U. after   12 cycles
 SCF Done:  E(RB3LYP) =  -615.957110992     A.U. after   12 cycles
 SCF Done:  E(RB3LYP) =  -615.957463940     A.U. after   11 cycles
 SCF Done:  E(RB3LYP) =  -615.957502208     A.U. after   11 cycles
 SCF Done:  E(RB3LYP) =  -615.957520936     A.U. after   10 cycles
 SCF Done:  E(RB3LYP) =  -615.957529824     A.U. after   10 cycles
 SCF Done:  E(RB3LYP) =  -615.957533424     A.U. after   10 cycles
 SCF Done:  E(RB3LYP) =  -615.957534409     A.U. after    8 cycles
 SCF Done:  E(RB3LYP) =  -615.957534590     A.U. after    7 cycles
 SCF Done:  E(RB3LYP) =  -615.957534680     A.U. after    6 cycles
 Optimization completed.
    -- Stationary point found.
 Normal termination of Gaussian 16 at Thu Dec 10 10:35:42 2020.

 --------------------------------------------------------------------
 #N Geom=AllCheck Guess=TCheck SCRF=Check GenChk RB3LYP/6-31G(d) Freq
 --------------------------------------------------------------------

 Structure from the checkpoint file:  "JID_4757.chk"
 -------------------------------
 CID_116593371_JID_4757_neutraal
 -------------------------------
 Charge =  0 Multiplicity = 1

 SCF Done:  E(RB3LYP) =  -615.957534680     A.U. after    1 cycles

  Exact polarizability: 138.031   1.646 124.697   0.019   1.287 114.605
 Approx polarizability: 175.485   4.411 183.760   3.728   7.505 170.431

                      1                      2                      3
                      A                      A                      A
 Frequencies --     38.7470                50.0492                59.3640
 Red. masses --      4.1728                 3.1865                 3.3358
 Frc consts  --      0.0037                 0.0047                 0.0069
 IR Inten    --      0.7885                 1.0828                 2.5548

                      4                      5                      6
                      A                      A                      A
 Frequencies --     79.2667               109.6746               154.5083
 Red. masses --      3.6690                 3.2735                 2.5877
 Frc consts  --      0.0136                 0.0232                 0.0364
 IR Inten    --      2.4940                 0.6653                 1.0105

                      7                      8                      9
                      A                      A                      A
 Frequencies --    200.9245               239.5220               241.7384
 Red. masses --      3.1968                 2.6623                 1.8476
 Frc consts  --      0.0760                 0.0900                 0.0636
 IR Inten    --      0.5746                 1.2610                 3.6023

                     10                     11                     12
                      A                      A                      A
 Frequencies --    266.0796               297.8036               317.0547
 Red. masses --      1.6152                 1.7702                 2.4630
 Frc consts  --      0.0674                 0.0925                 0.1459
 IR Inten    --     29.3488                14.8852                 2.6548

                     13                     14                     15
                      A                      A                      A
 Frequencies --    357.0462               383.7259               414.4031
 Red. masses --      3.0544                 2.3402                 3.4634
 Frc consts  --      0.2294                 0.2030                 0.3504
 IR Inten    --     10.9810                 2.0503                 1.1155

                     16                     17                     18
                      A                      A                      A
 Frequencies --    444.5821               468.3668               495.0236
 Red. masses --      3.1561                 1.9395                 2.5456
 Frc consts  --      0.3675                 0.2507                 0.3675
 IR Inten    --      4.3067                 3.2032                 1.6392

                     19                     20                     21
                      A                      A                      A
 Frequencies --    501.0823               578.5913               643.3677
 Red. masses --      3.5370                 3.1353                 2.1644
 Frc consts  --      0.5232                 0.6184                 0.5278
 IR Inten    --      3.6358                 8.6464                20.7616

                     22                     23                     24
                      A                      A                      A
 Frequencies --    684.2712               766.6898               790.9153
 Red. masses --      2.6710                 1.8257                 1.3591
 Frc consts  --      0.7369                 0.6323                 0.5009
 IR Inten    --      2.1589                 0.4767                 5.0299

                     25                     26                     27
                      A                      A                      A
 Frequencies --    805.3713               828.1412               853.0886
 Red. masses --      2.3434                 1.5117                 2.3206
 Frc consts  --      0.8956                 0.6108                 0.9950
 IR Inten    --     10.7728                 0.7464                26.5416

                     28                     29                     30
                      A                      A                      A
 Frequencies --    886.6848               902.9888               921.8975
 Red. masses --      2.6310                 1.7046                 2.1022
 Frc consts  --      1.2187                 0.8189                 1.0527
 IR Inten    --      6.8969               116.9318                20.2315

                     31                     32                     33
                      A                      A                      A
 Frequencies --    946.9584               953.6205               960.2963
 Red. masses --      2.2556                 1.8701                 1.8457
 Frc consts  --      1.1917                 1.0020                 1.0028
 IR Inten    --      3.4137                33.5254                 9.2239

                     34                     35                     36
                      A                      A                      A
 Frequencies --    993.3536              1005.0765              1015.3659
 Red. masses --      1.4479                 1.9465                 1.6037
 Frc consts  --      0.8418                 1.1585                 0.9741
 IR Inten    --      7.6203                 7.8234                 1.4886

                     37                     38                     39
                      A                      A                      A
 Frequencies --   1033.2422              1039.9997              1058.0468
 Red. masses --      2.1312                 2.4293                 1.9438
 Frc consts  --      1.3405                 1.5481                 1.2820
 IR Inten    --      1.8875                 5.6279                 8.2167

                     40                     41                     42
                      A                      A                      A
 Frequencies --   1077.1737              1118.6562              1134.4845
 Red. masses --      1.5515                 2.7501                 2.5436
 Frc consts  --      1.0606                 2.0277                 1.9288
 IR Inten    --      6.0295                25.4550                18.9443

                     43                     44                     45
                      A                      A                      A
 Frequencies --   1141.5667              1164.7653              1174.6835
 Red. masses --      2.3550                 2.9305                 1.6813
 Frc consts  --      1.8082                 2.3424                 1.3669
 IR Inten    --      3.8815                13.4774                26.2924

                     46                     47                     48
                      A                      A                      A
 Frequencies --   1200.1714              1217.1136              1221.5414
 Red. masses --      1.3089                 1.4519                 1.5651
 Frc consts  --      1.1109                 1.2672                 1.3760
 IR Inten    --      3.5442                 4.9643                 8.5065

                     49                     50                     51
                      A                      A                      A
 Frequencies --   1251.6960              1260.1632              1269.8373
 Red. masses --      1.7551                 1.3287                 1.3162
 Frc consts  --      1.6201                 1.2432                 1.2505
 IR Inten    --     17.4046                 1.4636                 2.3206

                     52                     53                     54
                      A                      A                      A
 Frequencies --   1278.0207              1286.7992              1293.3234
 Red. masses --      1.4323                 1.4027                 1.4133
 Frc consts  --      1.3783                 1.3685                 1.3928
 IR Inten    --     24.3360                24.4551                 1.0029

                     55                     56                     57
                      A                      A                      A
 Frequencies --   1299.0001              1309.5356              1317.6285
 Red. masses --      1.3804                 1.4066                 1.2919
 Frc consts  --      1.3723                 1.4212                 1.3215
 IR Inten    --      1.7726                19.2700                 9.3535

                     58                     59                     60
                      A                      A                      A
 Frequencies --   1342.1879              1355.6894              1368.9527
 Red. masses --      1.3881                 1.3331                 1.5558
 Frc consts  --      1.4733                 1.4436                 1.7178
 IR Inten    --     19.6156                 3.2439                 1.0298

                     61                     62                     63
                      A                      A                      A
 Frequencies --   1381.0580              1391.3963              1398.8387
 Red. masses --      1.4501                 1.2687                 1.4306
 Frc consts  --      1.6296                 1.4471                 1.6493
 IR Inten    --     14.3792                 2.4262                 5.6229

                     64                     65                     66
                      A                      A                      A
 Frequencies --   1414.3104              1440.8548              1450.5429
 Red. masses --      1.4376                 1.5628                 1.4337
 Frc consts  --      1.6943                 1.9116                 1.7773
 IR Inten    --      2.4091                21.3655                 5.4914

                     67                     68                     69
                      A                      A                      A
 Frequencies --   1497.8789              1501.7352              1508.5786
 Red. masses --      1.0908                 1.0928                 1.0869
 Frc consts  --      1.4420                 1.4520                 1.4573
 IR Inten    --      0.0872                 1.6410                 4.0670

                     70                     71                     72
                      A                      A                      A
 Frequencies --   1511.0268              1517.6366              1525.6558
 Red. masses --      1.0875                 1.1026                 1.0802
 Frc consts  --      1.4629                 1.4963                 1.4813
 IR Inten    --      0.3090                 6.2454                 1.3605

                     73                     74                     75
                      A                      A                      A
 Frequencies --   1535.4388              1542.0278              1696.0029
 Red. masses --      1.1278                 1.1070                 1.0913
 Frc consts  --      1.5665                 1.5509                 1.8494
 IR Inten    --      1.6018                 8.8354                25.8467

                     76                     77                     78
                      A                      A                      A
 Frequencies --   1797.8021              2919.8913              2927.3696
 Red. masses --     11.2097                 1.0739                 1.0730
 Frc consts  --     21.3466                 5.3944                 5.4175
 IR Inten    --    153.5703                27.0834                99.3776

                     79                     80                     81
                      A                      A                      A
 Frequencies --   2984.4115              3018.0943              3029.4425
 Red. masses --      1.0670                 1.0816                 1.0619
 Frc consts  --      5.5992                 5.8049                 5.7422
 IR Inten    --     60.4935                 9.3272                17.9053

                     82                     83                     84
                      A                      A                      A
 Frequencies --   3039.0129              3064.9436              3071.9008
 Red. masses --      1.0672                 1.0935                 1.0585
 Frc consts  --      5.8070                 6.0520                 5.8850
 IR Inten    --     51.8787                 7.7942                41.6586

                     85                     86                     87
                      A                      A                      A
 Frequencies --   3076.5662              3077.0093              3082.8627
 Red. masses --      1.1002                 1.0906                 1.0749
 Frc consts  --      6.1357                 6.0837                 6.0190
 IR Inten    --     15.5727                91.1578                25.3706

                     88                     89                     90
                      A                      A                      A
 Frequencies --   3085.7362              3092.2382              3095.6972
 Red. masses --      1.0712                 1.0874                 1.0618
 Frc consts  --      6.0093                 6.1262                 5.9953
 IR Inten    --     39.2545                25.3858                30.6427

                     91                     92                     93
                      A                      A                      A
 Frequencies --   3104.7059              3117.6757              3147.5563
 Red. masses --      1.0972                 1.1089                 1.1051
 Frc consts  --      6.2312                 6.3504                 6.4508
 IR Inten    --     34.9711                12.3007                23.4247

                     94                     95                     96
                      A                      A                      A
 Frequencies --   3161.6900              3443.9011              3529.5214
 Red. masses --      1.1051                 1.0495                 1.0916
 Frc consts  --      6.5086                 7.3341                 8.0121
 IR Inten    --     41.6696                 2.6231                 1.3383

 - Thermochemistry -
 -------------------
 Temperature   298.150 Kelvin.  Pressure   1.00000 Atm.
 Atom     1 has atomic number  6 and mass  12.00000

 Molecular mass:   196.15756 amu.
 Principal axes and moments of inertia in atomic units:
                           1         2         3
     Eigenvalues --  1669.802304297.212614803.29911
           X            0.99974  -0.02144  -0.00744
           Y            0.02119   0.99929  -0.03100
           Z            0.00810   0.03083   0.99949
 This molecule is an asymmetric top.
 Rotational symmetry number  1.
 Warning -- assumption of classical behavior for rotation
           may cause significant error
 Rotational temperatures (Kelvin)      0.05187     0.02016     0.01803
 Rotational constants (GHZ):           1.08081     0.41998     0.37573
 Zero-point vibrational energy     807784.0 (Joules/Mol)
                                  193.06500 (Kcal/Mol)
 Warning -- explicit consideration of  20 degrees of freedom as
           vibrations may cause significant error
 Vibrational temperatures:     55.75    72.01    85.41   114.05   157.80
          (Kelvin)            222.30   289.09   344.62   347.81   382.83
                              428.47   456.17   513.71   552.10   596.23
                              639.65   673.88   712.23   720.95   832.46
                              925.66   984.51  1103.10  1137.95  1158.75
                             1191.51  1227.40  1275.74  1299.20  1326.40
                             1362.46  1372.05  1381.65  1429.21  1446.08
                             1460.89  1486.61  1496.33  1522.29  1549.81
                             1609.50  1632.27  1642.46  1675.84  1690.11
                             1726.78  1751.16  1757.53  1800.91  1813.09
                             1827.01  1838.79  1851.42  1860.80  1868.97
                             1884.13  1895.77  1931.11  1950.53  1969.62
                             1987.03  2001.91  2012.62  2034.88  2073.07
                             2087.01  2155.11  2160.66  2170.51  2174.03
                             2183.54  2195.08  2209.15  2218.63  2440.17
                             2586.64  4201.07  4211.83  4293.90  4342.36
                             4358.69  4372.46  4409.77  4419.78  4426.49
                             4427.13  4435.55  4439.69  4449.04  4454.02
                             4466.98  4485.64  4528.63  4548.97  4955.01
                             5078.19

 Zero-point correction=                           0.307669 (Hartree/Particle)
 Thermal correction to Energy=                    0.321625
 Thermal correction to Enthalpy=                  0.322570
 Thermal correction to Gibbs Free Energy=         0.266249
 Sum of electronic and zero-point Energies=           -615.649866
 Sum of electronic and thermal Energies=              -615.635909
 Sum of electronic and thermal Enthalpies=            -615.634965
 Sum of electronic and thermal Free Energies=         -615.691285

                     E (Thermal)             CV                S
                      KCal/Mol        Cal/Mol-Kelvin    Cal/Mol-Kelvin
 Total                  201.823             53.924            118.536
 Electronic               0.000              0.000              0.000
 Translational            0.889              2.981             41.726
 Rotational               0.889              2.981             31.911
 Vibrational            200.046             47.962             44.898
 Vibration     1          0.594              1.981              5.322
 Vibration     2          0.595              1.978              4.815
 Vibration     3          0.597              1.974              4.478
 Vibration     4          0.600              1.963              3.909
 Vibration     5          0.606              1.941              3.275
 Vibration     6          0.620              1.898              2.616
 Vibration     7          0.638              1.839              2.125
 Vibration     8          0.657              1.780              1.806
 Vibration     9          0.658              1.776              1.790
 Vibration    10          0.672              1.735              1.622
 Vibration    11          0.691              1.678              1.429
 Vibration    12          0.704              1.641              1.325
 Vibration    13          0.732              1.561              1.135
 Vibration    14          0.753              1.505              1.024
 Vibration    15          0.778              1.439              0.911
 Vibration    16          0.804              1.373              0.812
 Vibration    17          0.826              1.320              0.742
 Vibration    18          0.851              1.261              0.671
 Vibration    19          0.856              1.248              0.655
 Vibration    20          0.935              1.078              0.488

 Optimization completed.
    -- Stationary point found.
 Normal termination of Gaussian 16 at Thu Dec 10 10:46:33 2020.

 ----------------------------------------------------------------------
 # B3LYP/6-311++G(d,p) empiricaldispersion=gd3bj scf=xqc pop=npa geom=c
 heck
 ----------------------------------------------------------------------

 ---------------------------------------
 CID_116593371_JID_4757_Energie_neutraal
 ---------------------------------------
 Structure from the checkpoint file:  "JID_4757.chk"
 Charge =  0 Multiplicity = 1

 SCF Done:  E(RB3LYP) =  -616.136192251     A.U. after   14 cycles
 Normal termination of Gaussian 16 at Thu Dec 10 10:51:40 2020.

 ----------------------------------------------------------------------
 # B3LYP/6-311++G(d,p) empiricaldispersion=gd3bj scf=xqc pop=npa geom=c
 heck
 ----------------------------------------------------------------------

 -------------------------------------
 CID_116593371_JID_4757_Energie_kation
 -------------------------------------
 Structure from the checkpoint file:  "JID_4757.chk"
 Charge =  1 Multiplicity = 2

 SCF Done:  E(UB3LYP) =  -615.839023540     A.U. after   25 cycles
 Normal termination of Gaussian 16 at Thu Dec 10 11:07:51 2020.
 Gaussian 16:  ES64L-G16RevA.03 25-Dec-2016

 ----------------------------------------------------------------------
 # B3LYP/6-311++G(d,p) empiricaldispersion=gd3bj scf=xqc pop=npa geom=c
 heck
 ----------------------------------------------------------------------

 ------------------------------------
 CID_116593371_JID_4757_Energie_anion
 ------------------------------------
 Structure from the checkpoint file:  "JID_4757.chk"
 Charge = -1 Multiplicity = 2

                         Standard orientation:
 ---------------------------------------------------------------------
 Center     Atomic      Atomic             Coordinates (Angstroms)
 Number     Number       Type             X           Y           Z
 ---------------------------------------------------------------------
      1          6           0       -2.223961    2.400018    0.032712
      2          6           0       -1.976701    1.328992   -1.059339
      3          6           0       -2.632778    0.275279   -0.103973
      4          6           0       -2.357156    1.255165    1.069562
      5          6           0       -2.101768   -1.142454   -0.127143
      6          8           0       -2.622118   -1.992524   -0.828681
      7          6           0       -0.893119   -1.488199    0.744829
      8          7           0        0.259160   -0.654686    0.421271
      9          6           0        0.845258   -1.035606   -0.866411
     10          6           0        1.954339   -0.061420   -1.263647
     11          6           0        3.042939    0.023670   -0.180739
     12          6           0        2.388931    0.331117    1.168491
     13          6           0        1.266958   -0.658033    1.482678
     14          7           0        4.110131    0.993721   -0.444249
     15          1           0       -3.173126    2.923748   -0.120634
     16          1           0       -1.436472    3.141185    0.198019
     17          1           0       -2.445378    1.461587   -2.038259
     18          1           0       -0.910452    1.134296   -1.185466
     19          1           0       -3.703440    0.214641   -0.323978
     20          1           0       -1.394713    1.047249    1.541805
     21          1           0       -3.130739    1.342412    1.838662
     22          1           0       -1.169097   -1.300847    1.790669
     23          1           0       -0.693892   -2.567935    0.634943
     24          1           0        0.053710   -1.044494   -1.622808
     25          1           0        1.251648   -2.066169   -0.821589
     26          1           0        1.521335    0.938139   -1.410769
     27          1           0        2.393023   -0.372651   -2.220570
     28          1           0        3.524248   -0.962692   -0.105134
     29          1           0        3.146918    0.312378    1.958507
     30          1           0        1.965510    1.345117    1.139282
     31          1           0        0.775050   -0.381001    2.421983
     32          1           0        1.694245   -1.671119    1.626046
     33          1           0        4.549744    0.781319   -1.339765
     34          1           0        3.696141    1.920616   -0.552780
 ---------------------------------------------------------------------

 SCF Done:  E(UB3LYP) =  -616.124191906     A.U. after   33 cycles
 SCF Done:  E(UB3LYP) =  -616.124191906     a.u. after    1 cycles

 The electronic state is 2-A.
 Alpha  occ. eigenvalues --  -18.99035 -14.20987 -14.18915 -10.12999 -10.09659
 Alpha  occ. eigenvalues --  -10.09640 -10.09372 -10.09322 -10.07154 -10.06663
 Alpha  occ. eigenvalues --  -10.06608 -10.06434 -10.06431 -10.06209  -0.92484
 Alpha  occ. eigenvalues --   -0.83579  -0.78597  -0.74474  -0.67874  -0.65769
 Alpha  occ. eigenvalues --   -0.61167  -0.56943  -0.55749  -0.53248  -0.51275
 Alpha  occ. eigenvalues --   -0.46659  -0.46272  -0.42936  -0.40374  -0.38643
 Alpha  occ. eigenvalues --   -0.38089  -0.37606  -0.36061  -0.34734  -0.33972
 Alpha  occ. eigenvalues --   -0.33213  -0.31485  -0.30361  -0.30082  -0.28891
 Alpha  occ. eigenvalues --   -0.28631  -0.27810  -0.26306  -0.25326  -0.24693
 Alpha  occ. eigenvalues --   -0.24270  -0.23354  -0.23073  -0.22021  -0.21266
 Alpha  occ. eigenvalues --   -0.20459  -0.14278  -0.13861  -0.12136   0.04598
 Alpha virt. eigenvalues --    0.06489   0.06975   0.07172   0.07866   0.08884
 Alpha virt. eigenvalues --    0.09285   0.09688   0.10042   0.10822   0.11416
 Alpha virt. eigenvalues --    0.11703   0.12209   0.12599   0.12906   0.13739

  Beta  occ. eigenvalues --  -18.98842 -14.20957 -14.18873 -10.12807 -10.09642
  Beta  occ. eigenvalues --  -10.09633 -10.09380 -10.09314 -10.07169 -10.06650
  Beta  occ. eigenvalues --  -10.06589 -10.06417 -10.06382 -10.06183  -0.92113
  Beta  occ. eigenvalues --   -0.83536  -0.78536  -0.74421  -0.67802  -0.65734
  Beta  occ. eigenvalues --   -0.60978  -0.56864  -0.55688  -0.53196  -0.51192
  Beta  occ. eigenvalues --   -0.46522  -0.46191  -0.42778  -0.40272  -0.38571
  Beta  occ. eigenvalues --   -0.38032  -0.37517  -0.36003  -0.34627  -0.33901
  Beta  occ. eigenvalues --   -0.33116  -0.31322  -0.30302  -0.29900  -0.28644
  Beta  occ. eigenvalues --   -0.28577  -0.27733  -0.26159  -0.25281  -0.24624
  Beta  occ. eigenvalues --   -0.23998  -0.23164  -0.23006  -0.21980  -0.21202
  Beta  occ. eigenvalues --   -0.20244  -0.14225  -0.13750  -0.12028
  Beta virt. eigenvalues --    0.06826   0.07440   0.07663   0.08254   0.08533
  Beta virt. eigenvalues --    0.09234   0.09540   0.09982   0.10317   0.11105
  Beta virt. eigenvalues --    0.11653   0.12011   0.12378   0.12658   0.13199

 Mulliken charges and spin densities:
               1          2
     1  C   -0.100918  -0.255384
     2  C    0.442571  -0.735590
     3  C   -0.536084   0.949837
     4  C   -0.078214  -0.291726
     5  C   -0.428480   0.040844
     6  O   -0.260842   0.063356
     7  C   -0.078600  -0.157985
     8  N    0.278771   0.009820
     9  C    0.076498  -0.533859
    10  C   -0.606257   0.514162
    11  C    0.796447  -1.439523
    12  C    0.301220  -0.543497
    13  C   -0.160238  -0.145060
    14  N   -0.443851   0.211418
    15  H    0.062637   0.051825
    16  H   -0.348769   0.503146
    17  H   -0.198539   0.353603
    18  H    0.704821  -0.626556
    19  H    0.072262   0.156849
    20  H    0.362730  -0.244771
    21  H   -0.083817   0.224187
    22  H   -0.043988   0.182015
    23  H    0.169301  -0.019624
    24  H    0.177869   0.020065
    25  H    0.006427   0.108875
    26  H   -0.339594   0.484678
    27  H   -0.357823   0.519349
    28  H    0.099697   0.058434
    29  H   -0.027908   0.204989
    30  H   -0.016787   0.171783
    31  H   -0.191722   0.344548
    32  H    0.074438   0.034340
    33  H   -0.251605   0.483380
    34  H   -0.071653   0.302070
 Sum of Mulliken charges =  -1.00000   1.00000

 Dipole moment (field-independent basis, Debye):
    X=             -2.5523    Y=             -2.4680    Z=              3.1521  Tot=              4.7477
 Quadrupole moment (field-independent basis, Debye-Ang):
   XX=           -163.1928   YY=           -128.6730   ZZ=           -122.4506
   XY=            -12.6373   XZ=              1.3463   YZ=              0.1839

 Summary of Natural Population Analysis:

                                       Natural Population
                Natural  -----------------------------------------------
    Atom  No    Charge         Core      Valence    Rydberg      Total
 -----------------------------------------------------------------------
      C    1   -0.18936      0.99965     2.18102    0.00869     3.18936
      C    2   -0.17512      0.99962     2.16737    0.00813     3.17512
      C    3   -0.15302      0.99956     2.14161    0.01185     3.15302
      C    4   -0.18589      0.99963     2.17887    0.00739     3.18589
      C    5    0.31207      0.99962     1.66747    0.02084     2.68793
      O    6   -0.27583      0.99988     3.26952    0.00644     4.27583
      C    7   -0.12563      0.99958     2.11517    0.01088     3.12563
      N    8   -0.28585      0.99970     2.77493    0.01122     3.78585
      C    9   -0.08378      0.99961     2.07390    0.01027     3.08378
      C   10   -0.20243      0.99960     2.19170    0.01113     3.20243
      C   11   -0.01233      0.99958     2.00069    0.01206     3.01233
      C   12   -0.19601      0.99960     2.18662    0.00980     3.19601
      C   13   -0.07839      0.99961     2.06784    0.01094     3.07839
      N   14   -0.41965      0.99977     2.90945    0.01043     3.91965
      H   15    0.09264      0.00000     0.40619    0.00117     0.40736
      H   16    0.09682      0.00000     0.40208    0.00109     0.40318
      H   17    0.09549      0.00000     0.40335    0.00116     0.40451
      H   18    0.10313      0.00000     0.39460    0.00226     0.39687
      H   19    0.10522      0.00000     0.39314    0.00164     0.39478
      H   20    0.10253      0.00000     0.39546    0.00201     0.39747
      H   21    0.09143      0.00000     0.40770    0.00087     0.40857
      H   22    0.10297      0.00000     0.39573    0.00129     0.39703
      H   23    0.09073      0.00000     0.40769    0.00158     0.40927
      H   24    0.10237      0.00000     0.39644    0.00119     0.39763
      H   25    0.07971      0.00000     0.41887    0.00142     0.42029
      H   26    0.09884      0.00000     0.39871    0.00245     0.40116
      H   27    0.10045      0.00000     0.39814    0.00142     0.39955
      H   28    0.08498      0.00000     0.41311    0.00191     0.41502
      H   29    0.10338      0.00000     0.39560    0.00102     0.39662
      H   30    0.09800      0.00000     0.40020    0.00179     0.40200
      H   31    0.09649      0.00000     0.40242    0.00108     0.40351
      H   32    0.07747      0.00000     0.42116    0.00137     0.42253
      H   33    0.17560      0.00000     0.32176    0.00265     0.32440
      H   34    0.17296      0.00000     0.32426    0.00279     0.32704
 =======================================================================
   * Total *    0.00000     13.99502    39.82276    0.18222    54.00000

 Normal termination of Gaussian 16 at Thu Dec 10 11:23:55 2020.
