 Gaussian 16, Revision A.03,

 -----------------------------------------------------------
 # opt freq B3LYP/6-31G(d) empiricaldispersion=gd3bj scf=xqc
 -----------------------------------------------------------

 ------------------------------
 CID_91179368_JID_2101_neutraal
 ------------------------------
 Symbolic Z-matrix:
 Charge =  0 Multiplicity = 1

 SCF Done:  E(RB3LYP) =  -1011.25000438     A.U. after   14 cycles
 SCF Done:  E(RB3LYP) =  -1011.25468816     A.U. after   13 cycles
 SCF Done:  E(RB3LYP) =  -1011.25459898     A.U. after   13 cycles
 SCF Done:  E(RB3LYP) =  -1011.25611997     A.U. after   13 cycles
 SCF Done:  E(RB3LYP) =  -1011.25650549     A.U. after   13 cycles
 SCF Done:  E(RB3LYP) =  -1011.25656159     A.U. after   12 cycles
 SCF Done:  E(RB3LYP) =  -1011.25715085     A.U. after   12 cycles
 SCF Done:  E(RB3LYP) =  -1011.25674448     A.U. after   12 cycles
 SCF Done:  E(RB3LYP) =  -1011.25645810     A.U. after   12 cycles
 SCF Done:  E(RB3LYP) =  -1011.25654003     A.U. after   12 cycles
 SCF Done:  E(RB3LYP) =  -1011.25733787     A.U. after    8 cycles
 SCF Done:  E(RB3LYP) =  -1011.25733983     A.U. after    9 cycles
 SCF Done:  E(RB3LYP) =  -1011.25734308     A.U. after    9 cycles
 SCF Done:  E(RB3LYP) =  -1011.25734564     A.U. after   10 cycles
 SCF Done:  E(RB3LYP) =  -1011.25734651     A.U. after    8 cycles
 SCF Done:  E(RB3LYP) =  -1011.25734656     A.U. after    7 cycles
 Optimization completed.
    -- Stationary point found.
 Normal termination of Gaussian 16 at Wed Dec  9 16:53:47 2020.

 --------------------------------------------------------------------
 #N Geom=AllCheck Guess=TCheck SCRF=Check GenChk RB3LYP/6-31G(d) Freq
 --------------------------------------------------------------------

 Structure from the checkpoint file:  "JID_2101.chk"
 ------------------------------
 CID_91179368_JID_2101_neutraal
 ------------------------------
 Charge =  0 Multiplicity = 1

 SCF Done:  E(RB3LYP) =  -1011.25734656     A.U. after    1 cycles

  Exact polarizability: 102.712  -0.470  97.848  -0.458   1.787  86.807
 Approx polarizability: 146.608   3.615 135.648  -2.997   7.225 139.114

                      1                      2                      3
                      A                      A                      A
 Frequencies --     37.0159                86.6288                88.2274
 Red. masses --      3.3533                 7.8031                 2.8240
 Frc consts  --      0.0027                 0.0345                 0.0130
 IR Inten    --      1.0989                 2.3468                 1.5646

                      4                      5                      6
                      A                      A                      A
 Frequencies --    118.1720               134.6935               155.3308
 Red. masses --      4.5378                 5.5287                 5.8524
 Frc consts  --      0.0373                 0.0591                 0.0832
 IR Inten    --      2.9254                 6.0305                 1.7719

                      7                      8                      9
                      A                      A                      A
 Frequencies --    178.2544               193.8469               204.4213
 Red. masses --      1.8981                 3.5822                 1.6312
 Frc consts  --      0.0355                 0.0793                 0.0402
 IR Inten    --     32.6801                42.9345                 0.8268

                     10                     11                     12
                      A                      A                      A
 Frequencies --    235.3795               267.5973               309.6284
 Red. masses --      2.8015                 1.5937                 3.9310
 Frc consts  --      0.0914                 0.0672                 0.2220
 IR Inten    --     18.5179                 4.0967                22.4517

                     13                     14                     15
                      A                      A                      A
 Frequencies --    321.4742               331.5544               356.2900
 Red. masses --      3.2549                 5.0436                 2.4002
 Frc consts  --      0.1982                 0.3267                 0.1795
 IR Inten    --      1.2203                 2.9529                 6.5051

                     16                     17                     18
                      A                      A                      A
 Frequencies --    379.8809               419.4936               442.1264
 Red. masses --      2.0083                 1.8606                 2.0260
 Frc consts  --      0.1708                 0.1929                 0.2333
 IR Inten    --     21.8388               127.7529               116.7611

                     19                     20                     21
                      A                      A                      A
 Frequencies --    466.6498               501.2292               544.6813
 Red. masses --      4.2222                 2.2211                 3.9022
 Frc consts  --      0.5417                 0.3288                 0.6821
 IR Inten    --     31.8220                 9.8530                36.2492

                     22                     23                     24
                      A                      A                      A
 Frequencies --    593.5383               658.1422               765.5020
 Red. masses --      2.8263                 4.6303                 3.4945
 Frc consts  --      0.5866                 1.1817                 1.2065
 IR Inten    --     18.6886                19.0819               106.5032

                     25                     26                     27
                      A                      A                      A
 Frequencies --    792.3968               818.9318               849.2072
 Red. masses --      2.1591                 2.9921                 1.7995
 Frc consts  --      0.7988                 1.1823                 0.7646
 IR Inten    --     49.1293                19.6810                 9.0525

                     28                     29                     30
                      A                      A                      A
 Frequencies --    886.3086               896.6600               947.6326
 Red. masses --      3.3511                 2.0195                 2.1614
 Frc consts  --      1.5510                 0.9566                 1.1436
 IR Inten    --     18.8134                 1.8900                 1.3622

                     31                     32                     33
                      A                      A                      A
 Frequencies --   1004.8626              1048.5472              1062.2276
 Red. masses --      1.9660                 1.8899                 3.0049
 Frc consts  --      1.1696                 1.2242                 1.9976
 IR Inten    --      8.3857                10.2934                10.6748

                     34                     35                     36
                      A                      A                      A
 Frequencies --   1097.0373              1101.0178              1118.5622
 Red. masses --      2.0059                 2.2373                 3.2001
 Frc consts  --      1.4224                 1.5979                 2.3590
 IR Inten    --      3.9011                 9.3983                76.5315

                     37                     38                     39
                      A                      A                      A
 Frequencies --   1144.2710              1162.6440              1173.3130
 Red. masses --      1.8557                 2.0507                 1.9273
 Frc consts  --      1.4316                 1.6332                 1.5632
 IR Inten    --     14.2094               110.9051                33.9436

                     40                     41                     42
                      A                      A                      A
 Frequencies --   1249.7997              1266.4324              1298.7313
 Red. masses --      1.2741                 1.1765                 1.3163
 Frc consts  --      1.1726                 1.1118                 1.3082
 IR Inten    --      1.3408                 1.0003                 3.4292

                     43                     44                     45
                      A                      A                      A
 Frequencies --   1306.1827              1343.4720              1357.4597
 Red. masses --      1.2752                 1.2929                 3.1977
 Frc consts  --      1.2818                 1.3749                 3.4717
 IR Inten    --     25.8166                28.9707               166.2199

                     46                     47                     48
                      A                      A                      A
 Frequencies --   1372.8434              1392.4384              1398.9951
 Red. masses --      1.2950                 1.3358                 1.3959
 Frc consts  --      1.4380                 1.5260                 1.6097
 IR Inten    --      5.8224                12.7990                 0.4745

                     49                     50                     51
                      A                      A                      A
 Frequencies --   1421.0786              1437.7749              1444.2744
 Red. masses --      1.4597                 1.2708                 1.2258
 Frc consts  --      1.7368                 1.5478                 1.5065
 IR Inten    --      1.3854                10.3978                 1.4704

                     52                     53                     54
                      A                      A                      A
 Frequencies --   1458.1621              1498.0002              1518.6639
 Red. masses --      1.1454                 1.0883                 1.0649
 Frc consts  --      1.4349                 1.4389                 1.4471
 IR Inten    --     47.5682                 4.8744                13.5085

                     55                     56                     57
                      A                      A                      A
 Frequencies --   1523.1625              1528.0758              1536.3841
 Red. masses --      1.0891                 1.0424                 1.0615
 Frc consts  --      1.4887                 1.4341                 1.4763
 IR Inten    --      0.7104                 4.1084                 6.5580

                     58                     59                     60
                      A                      A                      A
 Frequencies --   1543.4622              3043.0028              3053.4812
 Red. masses --      1.0766                 1.0640                 1.0766
 Frc consts  --      1.5111                 5.8048                 5.9143
 IR Inten    --      3.6634                16.3473                 2.2949

                     61                     62                     63
                      A                      A                      A
 Frequencies --   3055.8145              3064.4109              3068.6009
 Red. masses --      1.0427                 1.0703                 1.0670
 Frc consts  --      5.7365                 5.9216                 5.9199
 IR Inten    --     14.5634                44.1329                12.4191

                     64                     65                     66
                      A                      A                      A
 Frequencies --   3072.5385              3089.1647              3110.4393
 Red. masses --      1.0619                 1.0989                 1.1010
 Frc consts  --      5.9065                 6.1788                 6.2757
 IR Inten    --      9.1499                18.3004                 1.0707

                     67                     68                     69
                      A                      A                      A
 Frequencies --   3119.5610              3128.0419              3134.9709
 Red. masses --      1.1002                 1.1014                 1.1032
 Frc consts  --      6.3085                 6.3496                 6.3881
 IR Inten    --     25.7618                28.4226                33.9965

                     70                     71                     72
                      A                      A                      A
 Frequencies --   3167.5653              3629.4605              3698.8339
 Red. masses --      1.0900                 1.0682                 1.0659
 Frc consts  --      6.4438                 8.2906                 8.5919
 IR Inten    --      1.7590                55.2561               113.3726

 - Thermochemistry -
 -------------------
 Temperature   298.150 Kelvin.  Pressure   1.00000 Atm.
 Atom     1 has atomic number  6 and mass  12.00000

 Molecular mass:   198.05620 amu.
 Principal axes and moments of inertia in atomic units:
                           1         2         3
     Eigenvalues --  1800.394052749.745693742.78114
           X            0.99765  -0.06827   0.00524
           Y            0.06833   0.99760  -0.01119
           Z           -0.00447   0.01152   0.99992
 This molecule is an asymmetric top.
 Rotational symmetry number  1.
 Warning -- assumption of classical behavior for rotation
           may cause significant error
 Rotational temperatures (Kelvin)      0.04811     0.03150     0.02314
 Rotational constants (GHZ):           1.00241     0.65633     0.48219
 Zero-point vibrational energy     563588.6 (Joules/Mol)
                                  134.70091 (Kcal/Mol)
 Warning -- explicit consideration of  22 degrees of freedom as
           vibrations may cause significant error
 Vibrational temperatures:     53.26   124.64   126.94   170.02   193.79
          (Kelvin)            223.49   256.47   278.90   294.12   338.66
                              385.01   445.49   462.53   477.03   512.62
                              546.56   603.56   636.12   671.41   721.16
                              783.67   853.97   946.92  1101.39  1140.08
                             1178.26  1221.82  1275.20  1290.09  1363.43
                             1445.77  1508.63  1528.31  1578.39  1584.12
                             1609.36  1646.35  1672.79  1688.14  1798.18
                             1822.11  1868.58  1879.31  1932.96  1953.08
                             1975.22  2003.41  2012.84  2044.62  2068.64
                             2077.99  2097.97  2155.29  2185.02  2191.49
                             2198.56  2210.51  2220.70  4378.20  4393.28
                             4396.64  4409.00  4415.03  4420.70  4444.62
                             4475.23  4488.35  4500.55  4510.52  4557.42
                             5221.98  5321.80

 Zero-point correction=                           0.214660 (Hartree/Particle)
 Thermal correction to Energy=                    0.228792
 Thermal correction to Enthalpy=                  0.229736
 Thermal correction to Gibbs Free Energy=         0.173997
 Sum of electronic and zero-point Energies=          -1011.042687
 Sum of electronic and thermal Energies=             -1011.028555
 Sum of electronic and thermal Enthalpies=           -1011.027611
 Sum of electronic and thermal Free Energies=        -1011.083349

                     E (Thermal)             CV                S
                      KCal/Mol        Cal/Mol-Kelvin    Cal/Mol-Kelvin
 Total                  143.569             51.703            117.312
 Electronic               0.000              0.000              0.000
 Translational            0.889              2.981             41.755
 Rotational               0.889              2.981             31.294
 Vibrational            141.792             45.742             44.263
 Vibration     1          0.594              1.982              5.413
 Vibration     2          0.601              1.959              3.735
 Vibration     3          0.601              1.957              3.699
 Vibration     4          0.608              1.934              3.130
 Vibration     5          0.613              1.919              2.878
 Vibration     6          0.620              1.897              2.606
 Vibration     7          0.629              1.869              2.347
 Vibration     8          0.635              1.848              2.191
 Vibration     9          0.640              1.834              2.093
 Vibration    10          0.655              1.787              1.838
 Vibration    11          0.673              1.733              1.612
 Vibration    12          0.699              1.655              1.364
 Vibration    13          0.707              1.632              1.303
 Vibration    14          0.714              1.612              1.252
 Vibration    15          0.732              1.562              1.138
 Vibration    16          0.750              1.513              1.040
 Vibration    17          0.782              1.428              0.894
 Vibration    18          0.802              1.378              0.820
 Vibration    19          0.824              1.324              0.747
 Vibration    20          0.857              1.247              0.655
 Vibration    21          0.900              1.151              0.555
 Vibration    22          0.951              1.046              0.461

 Optimization completed.
    -- Stationary point found.
 Normal termination of Gaussian 16 at Wed Dec  9 16:59:42 2020.

 ----------------------------------------------------------------------
 # B3LYP/6-311++G(d,p) empiricaldispersion=gd3bj scf=xqc pop=npa geom=c
 heck
 ----------------------------------------------------------------------

 --------------------------------------
 CID_91179368_JID_2101_Energie_neutraal
 --------------------------------------
 Structure from the checkpoint file:  "JID_2101.chk"
 Charge =  0 Multiplicity = 1

 SCF Done:  E(RB3LYP) =  -1011.48218303     A.U. after   14 cycles
 Normal termination of Gaussian 16 at Wed Dec  9 17:01:59 2020.

 ----------------------------------------------------------------------
 # B3LYP/6-311++G(d,p) empiricaldispersion=gd3bj scf=xqc pop=npa geom=c
 heck
 ----------------------------------------------------------------------

 ------------------------------------
 CID_91179368_JID_2101_Energie_kation
 ------------------------------------
 Structure from the checkpoint file:  "JID_2101.chk"
 Charge =  1 Multiplicity = 2

 SCF Done:  E(UB3LYP) =  -1011.13265237     A.U. after   29 cycles
 Normal termination of Gaussian 16 at Wed Dec  9 17:08:52 2020.
 Gaussian 16:  ES64L-G16RevA.03 25-Dec-2016

 ----------------------------------------------------------------------
 # B3LYP/6-311++G(d,p) empiricaldispersion=gd3bj scf=xqc pop=npa geom=c
 heck
 ----------------------------------------------------------------------

 -----------------------------------
 CID_91179368_JID_2101_Energie_anion
 -----------------------------------
 Structure from the checkpoint file:  "JID_2101.chk"
 Charge = -1 Multiplicity = 2

                         Standard orientation:
 ---------------------------------------------------------------------
 Center     Atomic      Atomic             Coordinates (Angstroms)
 Number     Number       Type             X           Y           Z
 ---------------------------------------------------------------------
      1          6           0       -2.480430    2.489227   -0.185295
      2          6           0       -2.036917    1.118529    0.334637
      3          6           0       -1.029332    0.440202   -0.605584
      4          6           0        0.281454    1.197472   -0.874951
      5          6           0        1.125434    1.668730    0.324020
      6          6           0        2.034078    0.642995    1.008985
      7          8           0        3.227661    0.313335    0.303281
      8          8           0        2.890535   -0.309028   -0.965933
      9         16           0       -0.803522   -1.304549   -0.092757
     10          8           0       -2.068298   -2.015884   -0.287391
     11          8           0        0.442724   -1.840518   -0.637148
     12          8           0       -0.594204   -1.183702    1.544852
     13          1           0       -1.652606    3.204841   -0.203901
     14          1           0       -3.261903    2.902560    0.460135
     15          1           0       -2.888256    2.417185   -1.200211
     16          1           0       -1.597905    1.218640    1.331773
     17          1           0       -2.912698    0.467791    0.433483
     18          1           0       -1.516209    0.276233   -1.576068
     19          1           0        0.906473    0.609691   -1.546693
     20          1           0       -0.027112    2.086056   -1.438761
     21          1           0        1.773199    2.481506   -0.024378
     22          1           0        0.473883    2.104273    1.093445
     23          1           0        2.433984    1.080388    1.932034
     24          1           0        1.498774   -0.270006    1.288973
     25          1           0        2.434127   -1.129551   -0.686610
     26          1           0       -1.360478   -1.633386    1.948736
 ---------------------------------------------------------------------

 SCF Done:  E(UB3LYP) =  -1011.47861594     A.U. after   29 cycles

 The electronic state is 2-A.
 Alpha  occ. eigenvalues --  -88.97693 -19.08032 -19.07136 -19.07045 -19.03441
 Alpha  occ. eigenvalues --  -19.02921 -10.12526 -10.12223 -10.08364 -10.08011
 Alpha  occ. eigenvalues --  -10.07983 -10.06652  -8.03890  -6.00283  -6.00100
 Alpha  occ. eigenvalues --   -5.99862  -1.05017  -1.01936  -0.94018  -0.92386
 Alpha  occ. eigenvalues --   -0.81475  -0.74154  -0.67556  -0.63714  -0.58834
 Alpha  occ. eigenvalues --   -0.54666  -0.52310  -0.48659  -0.43473  -0.42208
 Alpha  occ. eigenvalues --   -0.42084  -0.39833  -0.38675  -0.37868  -0.36950
 Alpha  occ. eigenvalues --   -0.35077  -0.33772  -0.32937  -0.30818  -0.29889
 Alpha  occ. eigenvalues --   -0.29448  -0.28112  -0.27410  -0.27315  -0.26000
 Alpha  occ. eigenvalues --   -0.24762  -0.24449  -0.23762  -0.23086  -0.22225
 Alpha  occ. eigenvalues --   -0.21321  -0.20506  -0.16362   0.04026
 Alpha virt. eigenvalues --    0.06640   0.07734   0.08176   0.09468   0.09783
 Alpha virt. eigenvalues --    0.10535   0.10823   0.11706   0.11749   0.12761
 Alpha virt. eigenvalues --    0.12862   0.13572   0.14384   0.14983   0.15346

  Beta  occ. eigenvalues --  -88.97670 -19.08026 -19.07130 -19.06938 -19.03406
  Beta  occ. eigenvalues --  -19.02897 -10.12490 -10.12210 -10.08353 -10.07976
  Beta  occ. eigenvalues --  -10.07966 -10.06600  -8.03862  -6.00244  -6.00079
  Beta  occ. eigenvalues --   -5.99844  -1.04891  -1.01922  -0.93803  -0.92307
  Beta  occ. eigenvalues --   -0.81460  -0.74085  -0.67511  -0.63621  -0.58757
  Beta  occ. eigenvalues --   -0.54531  -0.52230  -0.48550  -0.43413  -0.42175
  Beta  occ. eigenvalues --   -0.42022  -0.39800  -0.38630  -0.37836  -0.36909
  Beta  occ. eigenvalues --   -0.35010  -0.33713  -0.32890  -0.30783  -0.29843
  Beta  occ. eigenvalues --   -0.29387  -0.28055  -0.27326  -0.27271  -0.25949
  Beta  occ. eigenvalues --   -0.24665  -0.24400  -0.23698  -0.23040  -0.22172
  Beta  occ. eigenvalues --   -0.21228  -0.20482  -0.16348
  Beta virt. eigenvalues --    0.06674   0.07968   0.08238   0.08753   0.09874
  Beta virt. eigenvalues --    0.10193   0.10798   0.11199   0.12051   0.12152
  Beta virt. eigenvalues --    0.13101   0.13217   0.14112   0.14594   0.15297

 Mulliken charges and spin densities:
               1          2
     1  C    1.138562  -1.798286
     2  C   -0.452461   0.121180
     3  C   -0.640769   0.641623
     4  C   -0.216903  -0.165543
     5  C    0.299028  -0.526538
     6  C   -0.469472  -0.233535
     7  O   -0.093912   0.008485
     8  O   -0.132095   0.003736
     9  S    1.608833  -1.354719
    10  O   -0.212081   0.043657
    11  O   -0.226259   0.014419
    12  O   -0.174133  -0.009411
    13  H   -0.215981   0.360587
    14  H   -0.563517   0.720157
    15  H   -0.258272   0.402566
    16  H   -0.107373   0.303790
    17  H   -0.249884   0.443619
    18  H   -0.104783   0.412486
    19  H    0.219686   0.000488
    20  H   -0.018468   0.192542
    21  H    0.167598   0.022177
    22  H   -0.056029   0.198825
    23  H   -0.167926   0.345128
    24  H    0.187584   0.018710
    25  H    0.231786   0.013205
    26  H   -0.492760   0.820654
 Sum of Mulliken charges =  -1.00000   1.00000

 Dipole moment (field-independent basis, Debye):
    X=              4.0093    Y=             -0.1539    Z=             -2.7869  Tot=              4.8851
 Quadrupole moment (field-independent basis, Debye-Ang):
   XX=           -140.4146   YY=           -123.4235   ZZ=           -115.7102
   XY=              4.3861   XZ=              7.6328   YZ=              0.1862

 Summary of Natural Population Analysis:

                                       Natural Population
                Natural  -----------------------------------------------
    Atom  No    Charge         Core      Valence    Rydberg      Total
 -----------------------------------------------------------------------
      C    1   -0.28443      0.99966     2.27893    0.00583     3.28443
      C    2   -0.20675      0.99961     2.19634    0.01081     3.20675
      C    3   -0.18751      0.99952     2.17216    0.01583     3.18751
      C    4   -0.20733      0.99958     2.19762    0.01012     3.20733
      C    5   -0.20873      0.99961     2.20006    0.00906     3.20873
      C    6   -0.02290      0.99958     2.00878    0.01453     3.02290
      O    7   -0.16429      0.99990     3.15478    0.00961     4.16429
      O    8   -0.23473      0.99991     3.22789    0.00694     4.23473
      S    9    1.12753      4.99929     1.77448    0.09871     6.87247
      O   10   -0.45716      0.99990     3.45173    0.00552     4.45716
      O   11   -0.46747      0.99989     3.46180    0.00578     4.46747
      O   12   -0.44170      0.99992     3.43457    0.00722     4.44170
      H   13    0.09675      0.00000     0.40204    0.00120     0.40325
      H   14    0.10706      0.00000     0.39129    0.00164     0.39294
      H   15    0.09762      0.00000     0.40114    0.00124     0.40238
      H   16    0.10804      0.00000     0.38897    0.00299     0.39196
      H   17    0.11042      0.00000     0.38739    0.00219     0.38958
      H   18    0.11787      0.00000     0.38086    0.00127     0.38213
      H   19    0.12038      0.00000     0.37828    0.00134     0.37962
      H   20    0.10644      0.00000     0.39250    0.00106     0.39356
      H   21    0.10284      0.00000     0.39603    0.00114     0.39716
      H   22    0.10494      0.00000     0.39362    0.00144     0.39506
      H   23    0.09582      0.00000     0.40287    0.00130     0.40418
      H   24    0.09227      0.00000     0.40531    0.00243     0.40773
      H   25    0.23554      0.00000     0.26122    0.00324     0.26446
      H   26    0.25947      0.00000     0.22141    0.01912     0.24053
 =======================================================================
   * Total *   -0.00000     15.99637    36.76206    0.24156    53.00000

 Normal termination of Gaussian 16 at Wed Dec  9 17:15:19 2020.
