 Gaussian 16, Revision A.03,

 -----------------------------------------------------------
 # opt freq B3LYP/6-31G(d) empiricaldispersion=gd3bj scf=xqc
 -----------------------------------------------------------

 -------------------------------
 CID_106310298_JID_2344_neutraal
 -------------------------------
 Symbolic Z-matrix:
 Charge =  0 Multiplicity = 1

 SCF Done:  E(RB3LYP) =  -897.388000632     A.U. after   15 cycles
 SCF Done:  E(RB3LYP) =  -897.409765762     A.U. after   13 cycles
 SCF Done:  E(RB3LYP) =  -897.375779391     A.U. after   14 cycles
 SCF Done:  E(RB3LYP) =  -897.404748088     A.U. after   13 cycles
 SCF Done:  E(RB3LYP) =  -897.410200592     A.U. after   10 cycles
 SCF Done:  E(RB3LYP) =  -897.411224134     A.U. after   13 cycles
 SCF Done:  E(RB3LYP) =  -897.411049936     A.U. after   13 cycles
 SCF Done:  E(RB3LYP) =  -897.412960447     A.U. after   11 cycles
 SCF Done:  E(RB3LYP) =  -897.413641746     A.U. after   12 cycles
 SCF Done:  E(RB3LYP) =  -897.413641295     A.U. after   12 cycles
 SCF Done:  E(RB3LYP) =  -897.414503549     A.U. after   10 cycles
 SCF Done:  E(RB3LYP) =  -897.414516558     A.U. after    9 cycles
 SCF Done:  E(RB3LYP) =  -897.414521576     A.U. after    9 cycles
 SCF Done:  E(RB3LYP) =  -897.414522770     A.U. after    8 cycles
 SCF Done:  E(RB3LYP) =  -897.414523175     A.U. after    8 cycles
 SCF Done:  E(RB3LYP) =  -897.414523328     A.U. after    7 cycles
 Optimization completed.
    -- Stationary point found.
 Normal termination of Gaussian 16 at Wed Dec  9 17:29:41 2020.

 --------------------------------------------------------------------
 #N Geom=AllCheck Guess=TCheck SCRF=Check GenChk RB3LYP/6-31G(d) Freq
 --------------------------------------------------------------------

 Structure from the checkpoint file:  "JID_2344.chk"
 -------------------------------
 CID_106310298_JID_2344_neutraal
 -------------------------------
 Charge =  0 Multiplicity = 1

 SCF Done:  E(RB3LYP) =  -897.414523328     A.U. after    1 cycles

  Exact polarizability: 118.239   3.848 110.159   8.517   0.572 110.870
 Approx polarizability: 149.478   4.714 154.117  15.448   1.365 183.074

                      1                      2                      3
                      A                      A                      A
 Frequencies --     28.1590                36.0513                72.8094
 Red. masses --      6.0954                 9.0994                 3.9227
 Frc consts  --      0.0028                 0.0070                 0.0123
 IR Inten    --      0.5758                 1.2368                 4.6302

                      4                      5                      6
                      A                      A                      A
 Frequencies --     84.6297                96.5385               130.5528
 Red. masses --      3.8068                 3.6874                 4.0586
 Frc consts  --      0.0161                 0.0202                 0.0408
 IR Inten    --      0.4335                 7.0844                 3.3524

                      7                      8                      9
                      A                      A                      A
 Frequencies --    162.5159               173.0362               210.6352
 Red. masses --      4.0160                 3.8790                 2.6179
 Frc consts  --      0.0625                 0.0684                 0.0684
 IR Inten    --      6.2635                15.9042                 4.8647

                     10                     11                     12
                      A                      A                      A
 Frequencies --    219.8934               275.5275               289.2032
 Red. masses --      2.9661                 2.4805                 2.7685
 Frc consts  --      0.0845                 0.1109                 0.1364
 IR Inten    --      2.0996                 0.7056                 1.4771

                     13                     14                     15
                      A                      A                      A
 Frequencies --    323.8724               346.0200               384.3518
 Red. masses --      2.4399                 2.5066                 3.9970
 Frc consts  --      0.1508                 0.1768                 0.3479
 IR Inten    --      7.5080                10.2697                 0.3078

                     16                     17                     18
                      A                      A                      A
 Frequencies --    398.2712               485.7178               505.0016
 Red. masses --      2.4342                 2.8864                 2.4886
 Frc consts  --      0.2275                 0.4012                 0.3739
 IR Inten    --      0.9440                 1.5495                 7.1921

                     19                     20                     21
                      A                      A                      A
 Frequencies --    580.7246               628.0979               647.4487
 Red. masses --      1.8574                 1.6225                 3.7354
 Frc consts  --      0.3691                 0.3771                 0.9226
 IR Inten    --    101.3463               125.7793                 5.0642

                     22                     23                     24
                      A                      A                      A
 Frequencies --    721.9542               756.8923               799.0609
 Red. masses --      3.3434                 1.5000                 2.0532
 Frc consts  --      1.0267                 0.5063                 0.7724
 IR Inten    --      0.5270                 1.2559                10.6376

                     25                     26                     27
                      A                      A                      A
 Frequencies --    822.0131               876.8353               895.9355
 Red. masses --      2.0261                 2.2434                 2.1030
 Frc consts  --      0.8066                 1.0162                 0.9946
 IR Inten    --     14.7510                 4.2770                44.1854

                     28                     29                     30
                      A                      A                      A
 Frequencies --    902.4762               946.2972               980.2670
 Red. masses --      1.7390                 1.6248                 2.1368
 Frc consts  --      0.8345                 0.8572                 1.2098
 IR Inten    --     37.3780                 5.9351                16.4824

                     31                     32                     33
                      A                      A                      A
 Frequencies --   1005.1728              1015.1992              1052.4353
 Red. masses --      2.1690                 2.0735                 2.0041
 Frc consts  --      1.2912                 1.2591                 1.3079
 IR Inten    --     16.3671                26.6025                13.1426

                     34                     35                     36
                      A                      A                      A
 Frequencies --   1072.1454              1104.1300              1110.5570
 Red. masses --      2.0380                 2.0283                 4.4720
 Frc consts  --      1.3803                 1.4569                 3.2496
 IR Inten    --     11.4671                21.2151                38.1066

                     37                     38                     39
                      A                      A                      A
 Frequencies --   1132.8146              1158.4721              1190.9496
 Red. masses --      1.7815                 2.8993                 1.1741
 Frc consts  --      1.3469                 2.2925                 0.9811
 IR Inten    --      1.2946                46.6037                20.5061

                     40                     41                     42
                      A                      A                      A
 Frequencies --   1231.0621              1241.4322              1254.9700
 Red. masses --      1.1722                 1.1806                 1.1432
 Frc consts  --      1.0467                 1.0720                 1.0608
 IR Inten    --      2.8216                 9.4190                 3.3130

                     43                     44                     45
                      A                      A                      A
 Frequencies --   1261.2606              1300.9802              1316.8696
 Red. masses --      1.2572                 1.2235                 1.1605
 Frc consts  --      1.1784                 1.2201                 1.1857
 IR Inten    --      2.7487                 4.2487                12.2382

                     46                     47                     48
                      A                      A                      A
 Frequencies --   1331.2411              1357.1022              1376.3545
 Red. masses --      1.3571                 1.2573                 1.2169
 Frc consts  --      1.4170                 1.3643                 1.3582
 IR Inten    --     11.9507                 7.3928                 7.5226

                     49                     50                     51
                      A                      A                      A
 Frequencies --   1399.6870              1404.8820              1408.1152
 Red. masses --      1.2971                 1.2690                 1.2587
 Frc consts  --      1.4972                 1.4757                 1.4705
 IR Inten    --      6.9921                 2.3723                 9.9086

                     52                     53                     54
                      A                      A                      A
 Frequencies --   1426.2712              1480.1407              1481.0521
 Red. masses --      1.3253                 1.1008                 1.1687
 Frc consts  --      1.5884                 1.4210                 1.5104
 IR Inten    --      2.6964                12.6998                48.4897

                     55                     56                     57
                      A                      A                      A
 Frequencies --   1496.1715              1509.2457              1512.8446
 Red. masses --      1.0937                 1.1020                 1.1087
 Frc consts  --      1.4425                 1.4790                 1.4951
 IR Inten    --      8.0642                12.6199                11.5167

                     58                     59                     60
                      A                      A                      A
 Frequencies --   1522.0436              1526.0675              1531.5420
 Red. masses --      1.0946                 1.1012                 1.1419
 Frc consts  --      1.4940                 1.5110                 1.5781
 IR Inten    --      5.5582                 9.9619                45.1951

                     61                     62                     63
                      A                      A                      A
 Frequencies --   1552.6234              2369.4247              2991.3418
 Red. masses --      1.0972                12.5845                 1.0712
 Frc consts  --      1.5584                41.6266                 5.6476
 IR Inten    --      0.1919                 5.9857               113.4757

                     64                     65                     66
                      A                      A                      A
 Frequencies --   3006.6951              3052.8411              3058.6436
 Red. masses --      1.0614                 1.0976                 1.0824
 Frc consts  --      5.6534                 6.0269                 5.9663
 IR Inten    --     41.5208                16.7354                25.8549

                     67                     68                     69
                      A                      A                      A
 Frequencies --   3066.4567              3068.9002              3071.0439
 Red. masses --      1.0602                 1.0716                 1.0604
 Frc consts  --      5.8736                 5.9462                 5.8924
 IR Inten    --      6.3387                26.1079                26.4774

                     70                     71                     72
                      A                      A                      A
 Frequencies --   3078.9055              3086.6487              3103.3046
 Red. masses --      1.0631                 1.0695                 1.0952
 Frc consts  --      5.9379                 6.0038                 6.2144
 IR Inten    --     34.5168                 3.8561                49.0363

                     73                     74                     75
                      A                      A                      A
 Frequencies --   3104.8800              3124.2132              3126.4036
 Red. masses --      1.1041                 1.1058                 1.1038
 Frc consts  --      6.2714                 6.3593                 6.3566
 IR Inten    --      5.2819                14.8032                16.2839

                     76                     77                     78
                      A                      A                      A
 Frequencies --   3143.4807              3502.9370              3554.5128
 Red. masses --      1.1014                 1.0737                 1.0682
 Frc consts  --      6.4125                 7.7622                 7.9517
 IR Inten    --     14.5058                 2.6600               306.6136

 - Thermochemistry -
 -------------------
 Temperature   298.150 Kelvin.  Pressure   1.00000 Atm.
 Atom     1 has atomic number  6 and mass  12.00000

 Molecular mass:   188.09834 amu.
 Principal axes and moments of inertia in atomic units:
                           1         2         3
     Eigenvalues --  1934.293643645.585274348.93648
           X            0.99949   0.02215   0.02316
           Y           -0.02281   0.99932   0.02897
           Z           -0.02250  -0.02948   0.99931
 This molecule is an asymmetric top.
 Rotational symmetry number  1.
 Warning -- assumption of classical behavior for rotation
           may cause significant error
 Rotational temperatures (Kelvin)      0.04478     0.02376     0.01992
 Rotational constants (GHZ):           0.93302     0.49505     0.41498
 Zero-point vibrational energy     640332.6 (Joules/Mol)
                                  153.04318 (Kcal/Mol)
 Warning -- explicit consideration of  19 degrees of freedom as
           vibrations may cause significant error
 Vibrational temperatures:     40.51    51.87   104.76   121.76   138.90
          (Kelvin)            187.84   233.82   248.96   303.06   316.38
                              396.42   416.10   465.98   497.85   553.00
                              573.02   698.84   726.58   835.53   903.69
                              931.53  1038.73  1089.00  1149.67  1182.69
                             1261.57  1289.05  1298.46  1361.51  1410.39
                             1446.22  1460.65  1514.22  1542.58  1588.60
                             1597.84  1629.87  1666.78  1713.51  1771.22
                             1786.14  1805.62  1814.67  1871.82  1894.68
                             1915.36  1952.57  1980.27  2013.84  2021.31
                             2025.96  2052.09  2129.59  2130.90  2152.66
                             2171.47  2176.65  2189.88  2195.67  2203.55
                             2233.88  3409.07  4303.87  4325.96  4392.36
                             4400.71  4411.95  4415.46  4418.55  4429.86
                             4441.00  4464.96  4467.23  4495.05  4498.20
                             4522.77  5039.94  5114.15

 Zero-point correction=                           0.243890 (Hartree/Particle)
 Thermal correction to Energy=                    0.257936
 Thermal correction to Enthalpy=                  0.258880
 Thermal correction to Gibbs Free Energy=         0.201505
 Sum of electronic and zero-point Energies=           -897.170634
 Sum of electronic and thermal Energies=              -897.156587
 Sum of electronic and thermal Enthalpies=            -897.155643
 Sum of electronic and thermal Free Energies=         -897.213018

                     E (Thermal)             CV                S
                      KCal/Mol        Cal/Mol-Kelvin    Cal/Mol-Kelvin
 Total                  161.857             50.412            120.756
 Electronic               0.000              0.000              0.000
 Translational            0.889              2.981             41.601
 Rotational               0.889              2.981             31.795
 Vibrational            160.080             44.451             47.359
 Vibration     1          0.593              1.984              5.955
 Vibration     2          0.594              1.982              5.465
 Vibration     3          0.599              1.967              4.076
 Vibration     4          0.601              1.960              3.781
 Vibration     5          0.603              1.952              3.523
 Vibration     6          0.612              1.923              2.938
 Vibration     7          0.623              1.888              2.520
 Vibration     8          0.627              1.876              2.402
 Vibration     9          0.643              1.825              2.038
 Vibration    10          0.647              1.811              1.960
 Vibration    11          0.677              1.719              1.561
 Vibration    12          0.686              1.694              1.479
 Vibration    13          0.708              1.628              1.290
 Vibration    14          0.724              1.583              1.184
 Vibration    15          0.753              1.504              1.022
 Vibration    16          0.765              1.474              0.969
 Vibration    17          0.842              1.282              0.695
 Vibration    18          0.860              1.239              0.646
 Vibration    19          0.937              1.073              0.484

 Optimization completed.
    -- Stationary point found.
 Normal termination of Gaussian 16 at Wed Dec  9 17:36:36 2020.

 ----------------------------------------------------------------------
 # B3LYP/6-311++G(d,p) empiricaldispersion=gd3bj scf=xqc pop=npa geom=c
 heck
 ----------------------------------------------------------------------

 ---------------------------------------
 CID_106310298_JID_2344_Energie_neutraal
 ---------------------------------------
 Structure from the checkpoint file:  "JID_2344.chk"
 Charge =  0 Multiplicity = 1

 SCF Done:  E(RB3LYP) =  -897.597137402     A.U. after   14 cycles
 Normal termination of Gaussian 16 at Wed Dec  9 17:40:17 2020.

 ----------------------------------------------------------------------
 # B3LYP/6-311++G(d,p) empiricaldispersion=gd3bj scf=xqc pop=npa geom=c
 heck
 ----------------------------------------------------------------------

 -------------------------------------
 CID_106310298_JID_2344_Energie_kation
 -------------------------------------
 Structure from the checkpoint file:  "JID_2344.chk"
 Charge =  1 Multiplicity = 2

 SCF Done:  E(UB3LYP) =  -897.290593908     A.U. after   22 cycles
 Normal termination of Gaussian 16 at Wed Dec  9 17:49:20 2020.
 Gaussian 16:  ES64L-G16RevA.03 25-Dec-2016

 ----------------------------------------------------------------------
 # B3LYP/6-311++G(d,p) empiricaldispersion=gd3bj scf=xqc pop=npa geom=c
 heck
 ----------------------------------------------------------------------

 ------------------------------------
 CID_106310298_JID_2344_Energie_anion
 ------------------------------------
 Structure from the checkpoint file:  "JID_2344.chk"
 Charge = -1 Multiplicity = 2

                         Standard orientation:
 ---------------------------------------------------------------------
 Center     Atomic      Atomic             Coordinates (Angstroms)
 Number     Number       Type             X           Y           Z
 ---------------------------------------------------------------------
      1          6           0        2.729777    0.647072   -0.027660
      2          6           0        2.385712    2.138455    0.052804
      3          8           0        0.995008    2.385196   -0.091232
      4          6           0        1.968135   -0.175314    1.020683
      5         16           0        1.538218   -1.903103    0.537758
      6          6           0        0.720680   -1.739495   -1.097013
      7          6           0       -0.708736   -1.200999   -1.110557
      8          7           0       -0.773816    0.197959   -0.672092
      9          6           0       -2.001307    0.900998   -1.024062
     10          6           0       -3.315242    0.286390   -0.469505
     11          6           0       -3.246256    0.123455    0.982795
     12          7           0       -3.121163    0.000871    2.130293
     13          1           0        3.810537    0.500796    0.081036
     14          1           0        2.479993    0.309914   -1.039597
     15          1           0        2.680108    2.551294    1.026169
     16          1           0        2.963152    2.677268   -0.716308
     17          1           0        0.610087    1.684307   -0.656913
     18          1           0        2.574704   -0.314206    1.921085
     19          1           0        1.069081    0.359613    1.329828
     20          1           0        1.345952   -1.145765   -1.769682
     21          1           0        0.717166   -2.765157   -1.481247
     22          1           0       -1.072661   -1.238294   -2.146840
     23          1           0       -1.354382   -1.861175   -0.511532
     24          1           0       -0.667600    0.227321    0.340821
     25          1           0       -1.907032    1.928954   -0.660502
     26          1           0       -2.081938    0.940050   -2.116082
     27          1           0       -4.164407    0.931083   -0.724369
     28          1           0       -3.506054   -0.693100   -0.922455
 ---------------------------------------------------------------------

 SCF Done:  E(UB3LYP) =  -897.590139603     A.U. after   30 cycles

 The electronic state is 2-A.
 Alpha  occ. eigenvalues --  -88.74760 -19.01715 -14.22026 -14.21660 -10.12781
 Alpha  occ. eigenvalues --  -10.11640 -10.11409 -10.11335 -10.11095 -10.10587
 Alpha  occ. eigenvalues --  -10.10457 -10.08846  -7.83350  -5.79758  -5.79370
 Alpha  occ. eigenvalues --   -5.78720  -0.92178  -0.83240  -0.81163  -0.72568
 Alpha  occ. eigenvalues --   -0.69574  -0.67028  -0.62608  -0.57302  -0.54341
 Alpha  occ. eigenvalues --   -0.52399  -0.48214  -0.42030  -0.41401  -0.39674
 Alpha  occ. eigenvalues --   -0.39379  -0.38698  -0.37188  -0.35466  -0.33922
 Alpha  occ. eigenvalues --   -0.33479  -0.31778  -0.30510  -0.29628  -0.29060
 Alpha  occ. eigenvalues --   -0.28114  -0.27411  -0.26691  -0.25010  -0.23993
 Alpha  occ. eigenvalues --   -0.23559  -0.23348  -0.21181  -0.18234  -0.15591
 Alpha  occ. eigenvalues --   -0.13502   0.04119
 Alpha virt. eigenvalues --    0.06061   0.07112   0.07692   0.08929   0.09081
 Alpha virt. eigenvalues --    0.09386   0.10180   0.10500   0.11246   0.11807
 Alpha virt. eigenvalues --    0.12245   0.12444   0.12922   0.13109   0.13455

  Beta  occ. eigenvalues --  -88.74759 -19.01712 -14.22024 -14.21642 -10.12773
  Beta  occ. eigenvalues --  -10.11635 -10.11373 -10.11281 -10.11094 -10.10563
  Beta  occ. eigenvalues --  -10.10414 -10.08832  -7.83349  -5.79758  -5.79367
  Beta  occ. eigenvalues --   -5.78719  -0.92171  -0.83214  -0.81130  -0.72545
  Beta  occ. eigenvalues --   -0.69511  -0.66974  -0.62572  -0.57236  -0.54282
  Beta  occ. eigenvalues --   -0.52339  -0.48168  -0.41952  -0.41350  -0.39652
  Beta  occ. eigenvalues --   -0.39341  -0.38673  -0.37164  -0.35390  -0.33883
  Beta  occ. eigenvalues --   -0.33399  -0.31752  -0.30489  -0.29557  -0.29023
  Beta  occ. eigenvalues --   -0.28077  -0.27382  -0.26653  -0.24980  -0.23951
  Beta  occ. eigenvalues --   -0.23521  -0.23311  -0.21159  -0.18224  -0.15570
  Beta  occ. eigenvalues --   -0.13488
  Beta virt. eigenvalues --    0.06164   0.07331   0.07829   0.08072   0.09315
  Beta virt. eigenvalues --    0.09533   0.10236   0.10380   0.10622   0.11449
  Beta virt. eigenvalues --    0.12059   0.12602   0.12694   0.13129   0.13425

 Mulliken charges and spin densities:
               1          2
     1  C   -0.104675  -0.144461
     2  C   -0.115771  -0.430896
     3  O   -0.297740   0.009673
     4  C   -0.439233   0.155671
     5  S    0.008386   0.015508
     6  C    1.271229  -1.518219
     7  C   -0.054772  -0.513997
     8  N   -0.265283   0.145168
     9  C    0.249115  -0.549743
    10  C   -0.102717   0.002482
    11  C    1.047905  -1.069368
    12  N   -0.383079   0.065098
    13  H   -0.043126   0.173685
    14  H    0.050605   0.101614
    15  H    0.096708   0.038190
    16  H   -0.042153   0.187128
    17  H    0.324115   0.031351
    18  H    0.160598   0.073003
    19  H    0.164352   0.045184
    20  H    0.007170   0.147655
    21  H   -0.267109   0.530587
    22  H   -0.826214   1.028131
    23  H    0.166046  -0.049061
    24  H    0.252159  -0.122772
    25  H    0.117862   0.052759
    26  H   -0.741636   0.939474
    27  H   -0.874656   1.097933
    28  H   -0.358085   0.558222
 Sum of Mulliken charges =  -1.00000   1.00000

 Dipole moment (field-independent basis, Debye):
    X=              7.5781    Y=              0.5229    Z=              4.4651  Tot=              8.8112
 Quadrupole moment (field-independent basis, Debye-Ang):
   XX=           -147.9696   YY=           -122.4781   ZZ=           -134.1197
   XY=              3.2119   XZ=             -4.8330   YZ=             -1.5286

 Summary of Natural Population Analysis:

                                       Natural Population
                Natural  -----------------------------------------------
    Atom  No    Charge         Core      Valence    Rydberg      Total
 -----------------------------------------------------------------------
      C    1   -0.21451      0.99961     2.20563    0.00926     3.21451
      C    2   -0.00665      0.99961     1.99399    0.01305     3.00665
      O    3   -0.38550      0.99990     3.37853    0.00707     4.38550
      C    4   -0.25097      0.99957     2.24257    0.00883     3.25097
      S    5    0.08197      4.99963     2.90093    0.01747     7.91803
      C    6   -0.25334      0.99958     2.24170    0.01206     3.25334
      C    7   -0.09408      0.99959     2.08112    0.01337     3.09408
      N    8   -0.35938      0.99975     2.84409    0.01555     3.85938
      C    9   -0.07864      0.99961     2.06562    0.01341     3.07864
      C   10   -0.26003      0.99955     2.25007    0.01042     3.26003
      C   11    0.16239      0.99966     1.82140    0.01656     2.83761
      N   12   -0.18926      0.99979     2.67843    0.01104     3.68926
      H   13    0.10159      0.00000     0.39714    0.00127     0.39841
      H   14    0.09969      0.00000     0.39852    0.00180     0.40031
      H   15    0.07871      0.00000     0.42012    0.00117     0.42129
      H   16    0.07660      0.00000     0.42211    0.00129     0.42340
      H   17    0.24238      0.00000     0.25377    0.00385     0.25762
      H   18    0.10453      0.00000     0.39456    0.00091     0.39547
      H   19    0.10150      0.00000     0.39635    0.00215     0.39850
      H   20    0.10250      0.00000     0.39576    0.00174     0.39750
      H   21    0.11151      0.00000     0.38725    0.00123     0.38849
      H   22    0.10403      0.00000     0.39127    0.00470     0.39597
      H   23    0.08720      0.00000     0.41067    0.00212     0.41280
      H   24    0.18070      0.00000     0.31619    0.00311     0.31930
      H   25    0.09921      0.00000     0.39929    0.00150     0.40079
      H   26    0.10504      0.00000     0.39044    0.00452     0.39496
      H   27    0.12774      0.00000     0.36849    0.00377     0.37226
      H   28    0.12505      0.00000     0.37168    0.00327     0.37495
 =======================================================================
   * Total *   -0.00000     15.99584    34.81768    0.18649    51.00000

 Normal termination of Gaussian 16 at Wed Dec  9 17:58:49 2020.
