 Gaussian 16, Revision A.03,

 -----------------------------------------------------------
 # opt freq B3LYP/6-31G(d) empiricaldispersion=gd3bj scf=xqc
 -----------------------------------------------------------

 ------------------------------
 CID_62430283_JID_4932_neutraal
 ------------------------------
 Symbolic Z-matrix:
 Charge =  0 Multiplicity = 1

 SCF Done:  E(RB3LYP) =  -977.216879240     A.U. after   14 cycles
 SCF Done:  E(RB3LYP) =  -977.221046155     A.U. after   12 cycles
 SCF Done:  E(RB3LYP) =  -977.221446155     A.U. after   12 cycles
 SCF Done:  E(RB3LYP) =  -977.221891319     A.U. after   11 cycles
 SCF Done:  E(RB3LYP) =  -977.222055168     A.U. after   11 cycles
 SCF Done:  E(RB3LYP) =  -977.222077060     A.U. after   10 cycles
 SCF Done:  E(RB3LYP) =  -977.222079738     A.U. after    8 cycles
 SCF Done:  E(RB3LYP) =  -977.222080523     A.U. after    8 cycles
 SCF Done:  E(RB3LYP) =  -977.222080708     A.U. after    7 cycles
 Optimization completed.
    -- Stationary point found.
 Normal termination of Gaussian 16 at Thu Dec 10 10:53:54 2020.

 --------------------------------------------------------------------
 #N Geom=AllCheck Guess=TCheck SCRF=Check GenChk RB3LYP/6-31G(d) Freq
 --------------------------------------------------------------------

 Structure from the checkpoint file:  "JID_4932.chk"
 ------------------------------
 CID_62430283_JID_4932_neutraal
 ------------------------------
 Charge =  0 Multiplicity = 1

 SCF Done:  E(RB3LYP) =  -977.222080708     A.U. after    1 cycles

  Exact polarizability: 166.192  -1.743 123.501   3.162  -4.565 119.639
 Approx polarizability: 213.182  -1.131 186.558  -4.543  -7.075 189.617

                      1                      2                      3
                      A                      A                      A
 Frequencies --     18.9455                31.8993                57.9456
 Red. masses --      4.3532                 4.0429                 2.9468
 Frc consts  --      0.0009                 0.0024                 0.0058
 IR Inten    --      1.0512                 0.6762                 2.0013

                      4                      5                      6
                      A                      A                      A
 Frequencies --     61.3073               110.3862               114.0423
 Red. masses --      3.3666                 4.6735                 3.0250
 Frc consts  --      0.0075                 0.0336                 0.0232
 IR Inten    --      0.6310                 4.0562                 1.3784

                      7                      8                      9
                      A                      A                      A
 Frequencies --    164.0005               186.0896               189.1475
 Red. masses --      2.4768                 3.4778                 2.8685
 Frc consts  --      0.0392                 0.0710                 0.0605
 IR Inten    --      4.4057                 2.1263                 1.5247

                     10                     11                     12
                      A                      A                      A
 Frequencies --    227.1319               283.2616               300.6943
 Red. masses --      1.4768                 2.1662                 2.2535
 Frc consts  --      0.0449                 0.1024                 0.1201
 IR Inten    --      1.0845                 3.9927                 1.7380

                     13                     14                     15
                      A                      A                      A
 Frequencies --    307.3155               329.7563               346.9857
 Red. masses --      2.5613                 2.4176                 1.9759
 Frc consts  --      0.1425                 0.1549                 0.1402
 IR Inten    --      3.4896                 1.3154                 0.6739

                     16                     17                     18
                      A                      A                      A
 Frequencies --    385.8555               420.3229               436.4570
 Red. masses --      1.8351                 2.3790                 2.0176
 Frc consts  --      0.1610                 0.2476                 0.2264
 IR Inten    --      5.9087                 8.0763                 1.1820

                     19                     20                     21
                      A                      A                      A
 Frequencies --    453.5545               467.5654               512.3487
 Red. masses --      2.2886                 2.9084                 2.8595
 Frc consts  --      0.2774                 0.3746                 0.4423
 IR Inten    --      1.8224                10.7139                 3.1161

                     22                     23                     24
                      A                      A                      A
 Frequencies --    556.2298               600.3515               611.0726
 Red. masses --      2.5282                 5.1814                 3.7798
 Frc consts  --      0.4609                 1.1003                 0.8316
 IR Inten    --      1.6410                 9.6985                 8.7914

                     25                     26                     27
                      A                      A                      A
 Frequencies --    626.6860               703.4915               735.8667
 Red. masses --      2.1179                 1.4552                 1.5558
 Frc consts  --      0.4901                 0.4243                 0.4964
 IR Inten    --      3.4700                24.5236                76.6179

                     28                     29                     30
                      A                      A                      A
 Frequencies --    768.9145               807.1659               821.8659
 Red. masses --      2.3481                 2.0461                 2.1003
 Frc consts  --      0.8179                 0.7854                 0.8359
 IR Inten    --     20.0064                17.9407                12.8710

                     31                     32                     33
                      A                      A                      A
 Frequencies --    864.1912               906.2782               932.5125
 Red. masses --      2.0528                 1.8480                 1.9941
 Frc consts  --      0.9033                 0.8943                 1.0216
 IR Inten    --      0.5587                10.2304                 8.2758

                     34                     35                     36
                      A                      A                      A
 Frequencies --    936.2893               978.1157               980.2644
 Red. masses --      1.9329                 1.9571                 1.9429
 Frc consts  --      0.9984                 1.1031                 1.1000
 IR Inten    --      2.6120                 9.3934                14.5008

                     37                     38                     39
                      A                      A                      A
 Frequencies --    996.1346               998.5707              1006.5453
 Red. masses --      1.7818                 1.8477                 1.7864
 Frc consts  --      1.0417                 1.0855                 1.0663
 IR Inten    --      0.9572                10.3720                 1.5428

                     40                     41                     42
                      A                      A                      A
 Frequencies --   1027.2884              1047.2848              1073.3273
 Red. masses --      2.9327                 2.0641                 2.8172
 Frc consts  --      1.8235                 1.3338                 1.9122
 IR Inten    --     90.1116                16.4501                15.7034

                     43                     44                     45
                      A                      A                      A
 Frequencies --   1093.9421              1113.9390              1120.4704
 Red. masses --      2.3387                 2.2845                 1.9383
 Frc consts  --      1.6489                 1.6702                 1.4338
 IR Inten    --     26.3031                10.7875                37.9877

                     46                     47                     48
                      A                      A                      A
 Frequencies --   1148.5736              1155.6292              1171.1556
 Red. masses --      1.6980                 1.9400                 1.5351
 Frc consts  --      1.3198                 1.5265                 1.2405
 IR Inten    --      3.5757                16.9613                 6.4949

                     49                     50                     51
                      A                      A                      A
 Frequencies --   1177.8609              1192.1437              1226.8444
 Red. masses --      1.3084                 1.7843                 1.3534
 Frc consts  --      1.0695                 1.4941                 1.2002
 IR Inten    --      5.7043                21.4680                 4.9470

                     52                     53                     54
                      A                      A                      A
 Frequencies --   1231.5570              1250.4029              1261.6950
 Red. masses --      1.3409                 1.3509                 1.4958
 Frc consts  --      1.1983                 1.2445                 1.4029
 IR Inten    --      7.4941                 2.0885                 8.4711

                     55                     56                     57
                      A                      A                      A
 Frequencies --   1303.6411              1306.4460              1324.0084
 Red. masses --      1.3806                 1.4383                 1.2120
 Frc consts  --      1.3824                 1.4464                 1.2518
 IR Inten    --      0.4642                 7.8366                 4.2971

                     58                     59                     60
                      A                      A                      A
 Frequencies --   1342.5246              1366.1773              1383.8971
 Red. masses --      1.2442                 1.1789                 1.3151
 Frc consts  --      1.3213                 1.2964                 1.4839
 IR Inten    --      2.1645                10.0285                18.7082

                     61                     62                     63
                      A                      A                      A
 Frequencies --   1393.6990              1397.0080              1399.9904
 Red. masses --      1.3134                 1.3620                 1.4478
 Frc consts  --      1.5031                 1.5661                 1.6719
 IR Inten    --      8.5815                 9.6013                17.1676

                     64                     65                     66
                      A                      A                      A
 Frequencies --   1411.4321              1418.5477              1421.8547
 Red. masses --      1.3171                 1.2583                 1.3360
 Frc consts  --      1.5459                 1.4919                 1.5913
 IR Inten    --      1.3057                11.5836                 2.3433

                     67                     68                     69
                      A                      A                      A
 Frequencies --   1444.9089              1474.4466              1480.6570
 Red. masses --      1.3869                 1.0963                 1.1544
 Frc consts  --      1.7059                 1.4042                 1.4911
 IR Inten    --      3.7519                 1.7914                 0.2777

                     70                     71                     72
                      A                      A                      A
 Frequencies --   1485.9987              1503.9606              1505.5895
 Red. masses --      1.0938                 1.0790                 1.0867
 Frc consts  --      1.4231                 1.4379                 1.4513
 IR Inten    --     13.5677                 6.7764                 2.1550

                     73                     74                     75
                      A                      A                      A
 Frequencies --   1506.8389              1517.3396              1520.9260
 Red. masses --      1.1386                 1.1274                 1.0927
 Frc consts  --      1.5233                 1.5293                 1.4893
 IR Inten    --      9.9783                 5.6075                 9.8053

                     76                     77                     78
                      A                      A                      A
 Frequencies --   1524.0967              1528.9178              1532.3635
 Red. masses --      1.0716                 1.1024                 1.0879
 Frc consts  --      1.4666                 1.5184                 1.5052
 IR Inten    --      8.0858                 4.6588                17.2399

                     79                     80                     81
                      A                      A                      A
 Frequencies --   1545.5586              1551.7977              2948.6927
 Red. masses --      1.0892                 1.0490                 1.0726
 Frc consts  --      1.5330                 1.4883                 5.4947
 IR Inten    --      9.8016                 3.8511                53.4583

                     82                     83                     84
                      A                      A                      A
 Frequencies --   2968.2458              3032.6594              3038.5381
 Red. masses --      1.0590                 1.0640                 1.0671
 Frc consts  --      5.4971                 5.7656                 5.8049
 IR Inten    --     69.7004                17.7652                 3.3851

                     85                     86                     87
                      A                      A                      A
 Frequencies --   3041.5918              3048.8176              3057.3314
 Red. masses --      1.0618                 1.0680                 1.0626
 Frc consts  --      5.7875                 5.8491                 5.8521
 IR Inten    --     58.7162                 4.9248                21.2870

                     88                     89                     90
                      A                      A                      A
 Frequencies --   3065.3768              3068.1240              3071.2169
 Red. masses --      1.0899                 1.0870                 1.0770
 Frc consts  --      6.0338                 6.0286                 5.9851
 IR Inten    --     53.1745                24.8449                57.4685

                     91                     92                     93
                      A                      A                      A
 Frequencies --   3073.5731              3076.7369              3078.3622
 Red. masses --      1.0595                 1.0621                 1.0786
 Frc consts  --      5.8971                 5.9237                 6.0219
 IR Inten    --     11.8458                 4.0753                52.0672

                     94                     95                     96
                      A                      A                      A
 Frequencies --   3081.4329              3085.1895              3092.7498
 Red. masses --      1.0810                 1.1001                 1.0977
 Frc consts  --      6.0474                 6.1695                 6.1862
 IR Inten    --     17.9923                74.7731                70.7194

                     97                     98                     99
                      A                      A                      A
 Frequencies --   3106.5611              3116.8219              3127.7798
 Red. masses --      1.1032                 1.1025                 1.1002
 Frc consts  --      6.2730                 6.3102                 6.3416
 IR Inten    --     13.4451                31.3398                17.8381

                    100                    101                    102
                      A                      A                      A
 Frequencies --   3131.2625              3133.6932              3502.8524
 Red. masses --      1.1062                 1.1074                 1.0737
 Frc consts  --      6.3906                 6.4072                 7.7621
 IR Inten    --      3.6350                21.9238                 1.7794

 - Thermochemistry -
 -------------------
 Temperature   298.150 Kelvin.  Pressure   1.00000 Atm.
 Atom     1 has atomic number  6 and mass  12.00000

 Molecular mass:   218.14529 amu.
 Principal axes and moments of inertia in atomic units:
                           1         2         3
     Eigenvalues --  1239.419827698.194817972.70748
           X            0.99990  -0.01391   0.00302
           Y            0.01406   0.99813  -0.05944
           Z           -0.00219   0.05948   0.99823
 This molecule is an asymmetric top.
 Rotational symmetry number  1.
 Warning -- assumption of classical behavior for rotation
           may cause significant error
 Rotational temperatures (Kelvin)      0.06988     0.01125     0.01086
 Rotational constants (GHZ):           1.45612     0.23444     0.22636
 Zero-point vibrational energy     855736.1 (Joules/Mol)
                                  204.52585 (Kcal/Mol)
 Warning -- explicit consideration of  24 degrees of freedom as
           vibrations may cause significant error
 Vibrational temperatures:     27.26    45.90    83.37    88.21   158.82
          (Kelvin)            164.08   235.96   267.74   272.14   326.79
                              407.55   432.63   442.16   474.45   499.24
                              555.16   604.75   627.96   652.56   672.72
                              737.16   800.29   863.77   879.20   901.66
                             1012.17  1058.75  1106.30  1161.33  1182.48
                             1243.38  1303.93  1341.68  1347.11  1407.29
                             1410.38  1433.22  1436.72  1448.19  1478.04
                             1506.81  1544.28  1573.94  1602.71  1612.11
                             1652.54  1662.69  1685.03  1694.68  1715.23
                             1765.16  1771.94  1799.05  1815.30  1875.65
                             1879.68  1904.95  1931.59  1965.62  1991.12
                             2005.22  2009.98  2014.27  2030.74  2040.97
                             2045.73  2078.90  2121.40  2130.34  2138.02
                             2163.86  2166.21  2168.01  2183.11  2188.27
                             2192.84  2199.77  2204.73  2223.71  2232.69
                             4242.51  4270.64  4363.32  4371.78  4376.17
                             4386.57  4398.82  4410.39  4414.35  4418.80
                             4422.19  4426.74  4429.08  4433.49  4438.90
                             4449.78  4469.65  4484.41  4500.18  4505.19
                             4508.69  5039.82

 Zero-point correction=                           0.325933 (Hartree/Particle)
 Thermal correction to Energy=                    0.341503
 Thermal correction to Enthalpy=                  0.342447
 Thermal correction to Gibbs Free Energy=         0.281453
 Sum of electronic and zero-point Energies=           -976.896148
 Sum of electronic and thermal Energies=              -976.880578
 Sum of electronic and thermal Enthalpies=            -976.879634
 Sum of electronic and thermal Free Energies=         -976.940628

                     E (Thermal)             CV                S
                      KCal/Mol        Cal/Mol-Kelvin    Cal/Mol-Kelvin
 Total                  214.296             59.247            128.372
 Electronic               0.000              0.000              0.000
 Translational            0.889              2.981             42.043
 Rotational               0.889              2.981             32.698
 Vibrational            212.519             53.286             53.632
 Vibration     1          0.593              1.986              6.742
 Vibration     2          0.594              1.983              5.708
 Vibration     3          0.596              1.974              4.526
 Vibration     4          0.597              1.973              4.415
 Vibration     5          0.606              1.941              3.262
 Vibration     6          0.607              1.938              3.199
 Vibration     7          0.623              1.887              2.503
 Vibration     8          0.632              1.859              2.266
 Vibration     9          0.633              1.855              2.236
 Vibration    10          0.651              1.800              1.902
 Vibration    11          0.682              1.705              1.514
 Vibration    12          0.693              1.672              1.413
 Vibration    13          0.697              1.660              1.377
 Vibration    14          0.713              1.616              1.261
 Vibration    15          0.725              1.581              1.180
 Vibration    16          0.755              1.500              1.016
 Vibration    17          0.783              1.426              0.891
 Vibration    18          0.797              1.391              0.838
 Vibration    19          0.812              1.353              0.785
 Vibration    20          0.825              1.322              0.744
 Vibration    21          0.867              1.223              0.628
 Vibration    22          0.912              1.126              0.531
 Vibration    23          0.958              1.031              0.449
 Vibration    24          0.970              1.008              0.431

                           ! Non-Optimized Parameters !
 Normal termination of Gaussian 16 at Thu Dec 10 11:06:24 2020.

 ----------------------------------------------------------------------
 # B3LYP/6-311++G(d,p) empiricaldispersion=gd3bj scf=xqc pop=npa geom=c
 heck
 ----------------------------------------------------------------------

 --------------------------------------
 CID_62430283_JID_4932_Energie_neutraal
 --------------------------------------
 Structure from the checkpoint file:  "JID_4932.chk"
 Charge =  0 Multiplicity = 1

 SCF Done:  E(RB3LYP) =  -977.419167933     A.U. after   14 cycles
 Normal termination of Gaussian 16 at Thu Dec 10 11:12:50 2020.

 ----------------------------------------------------------------------
 # B3LYP/6-311++G(d,p) empiricaldispersion=gd3bj scf=xqc pop=npa geom=c
 heck
 ----------------------------------------------------------------------

 ------------------------------------
 CID_62430283_JID_4932_Energie_kation
 ------------------------------------
 Structure from the checkpoint file:  "JID_4932.chk"
 Charge =  1 Multiplicity = 2

 SCF Done:  E(UB3LYP) =  -977.140232562     A.U. after   25 cycles
 Normal termination of Gaussian 16 at Thu Dec 10 11:28:11 2020.
 Gaussian 16:  ES64L-G16RevA.03 25-Dec-2016

 ----------------------------------------------------------------------
 # B3LYP/6-311++G(d,p) empiricaldispersion=gd3bj scf=xqc pop=npa geom=c
 heck
 ----------------------------------------------------------------------

 -----------------------------------
 CID_62430283_JID_4932_Energie_anion
 -----------------------------------
 Structure from the checkpoint file:  "JID_4932.chk"
 Charge = -1 Multiplicity = 2

                         Standard orientation:
 ---------------------------------------------------------------------
 Center     Atomic      Atomic             Coordinates (Angstroms)
 Number     Number       Type             X           Y           Z
 ---------------------------------------------------------------------
      1          6           0        5.439073   -0.802245    0.185715
      2          7           0        4.689103    0.328023   -0.347735
      3          6           0        3.505927   -0.036859   -1.122898
      4          6           0        2.422605   -0.863479   -0.401082
      5          6           0        1.904728   -0.236155    0.902590
      6          6           0        1.300326    1.174012    0.762364
      7          6           0        0.065337    1.309943   -0.146792
      8          7           0       -1.210315    1.253253    0.571959
      9          6           0       -2.351111    1.589532   -0.277214
     10          6           0       -2.705279    0.529345   -1.330433
     11         16           0       -3.236474   -1.045831   -0.514640
     12          8           0       -4.329655   -0.668921    0.468636
     13          6           0       -1.684526   -1.222150    0.481936
     14          6           0       -1.463750    0.033556    1.335068
     15          1           0        5.779389   -1.427816   -0.648232
     16          1           0        4.883687   -1.453471    0.883749
     17          1           0        6.327967   -0.431159    0.706507
     18          1           0        4.425364    0.953559    0.410253
     19          1           0        3.067343    0.893031   -1.505223
     20          1           0        3.848377   -0.598020   -2.002615
     21          1           0        1.593206   -1.024389   -1.103230
     22          1           0        2.814476   -1.862436   -0.171853
     23          1           0        1.178268   -0.922138    1.352529
     24          1           0        2.735192   -0.177730    1.619081
     25          1           0        1.037245    1.566950    1.751852
     26          1           0        2.077357    1.843846    0.374219
     27          1           0        0.089728    2.293912   -0.629423
     28          1           0        0.134500    0.574410   -0.969423
     29          1           0       -3.227882    1.730357    0.364016
     30          1           0       -2.148667    2.543625   -0.777894
     31          1           0       -1.871248    0.290298   -1.999059
     32          1           0       -3.560245    0.842260   -1.937648
     33          1           0       -0.861308   -1.424536   -0.211913
     34          1           0       -1.841341   -2.107432    1.105909
     35          1           0       -0.643370   -0.133296    2.037288
     36          1           0       -2.368707    0.192898    1.931174
 ---------------------------------------------------------------------

 SCF Done:  E(UB3LYP) =  -977.409860555     A.U. after   27 cycles

 The electronic state is 2-A.
 Alpha  occ. eigenvalues --  -88.85353 -18.99069 -14.21668 -14.20206 -10.11100
 Alpha  occ. eigenvalues --  -10.11089 -10.10899 -10.10761 -10.09977 -10.09256
 Alpha  occ. eigenvalues --  -10.09076 -10.07539 -10.07309 -10.06631  -7.93092
 Alpha  occ. eigenvalues --   -5.89362  -5.89207  -5.88694  -0.92067  -0.84253
 Alpha  occ. eigenvalues --   -0.80809  -0.71241  -0.69548  -0.68312  -0.64442
 Alpha  occ. eigenvalues --   -0.60346  -0.57331  -0.55618  -0.54194  -0.51666
 Alpha  occ. eigenvalues --   -0.47520  -0.45032  -0.41761  -0.40408  -0.39859
 Alpha  occ. eigenvalues --   -0.37660  -0.36949  -0.36293  -0.35897  -0.34948
 Alpha  occ. eigenvalues --   -0.33776  -0.33161  -0.32602  -0.31855  -0.30154
 Alpha  occ. eigenvalues --   -0.29624  -0.28771  -0.28167  -0.27462  -0.27144
 Alpha  occ. eigenvalues --   -0.26979  -0.26112  -0.25742  -0.23498  -0.22891
 Alpha  occ. eigenvalues --   -0.22781  -0.17787  -0.15240  -0.12994  -0.12257
 Alpha  occ. eigenvalues --    0.03964
 Alpha virt. eigenvalues --    0.05885   0.06632   0.07094   0.07870   0.08297
 Alpha virt. eigenvalues --    0.09035   0.09159   0.09724   0.10270   0.10490
 Alpha virt. eigenvalues --    0.10792   0.11323   0.12044   0.12389   0.12831

  Beta  occ. eigenvalues --  -88.85352 -18.99065 -14.21669 -14.20197 -10.11091
  Beta  occ. eigenvalues --  -10.11077 -10.10877 -10.10732 -10.09949 -10.09240
  Beta  occ. eigenvalues --  -10.09041 -10.07527 -10.07291 -10.06604  -7.93091
  Beta  occ. eigenvalues --   -5.89361  -5.89207  -5.88689  -0.92058  -0.84240
  Beta  occ. eigenvalues --   -0.80785  -0.71207  -0.69516  -0.68276  -0.64399
  Beta  occ. eigenvalues --   -0.60298  -0.57277  -0.55571  -0.54153  -0.51611
  Beta  occ. eigenvalues --   -0.47463  -0.44970  -0.41722  -0.40373  -0.39820
  Beta  occ. eigenvalues --   -0.37626  -0.36917  -0.36256  -0.35865  -0.34918
  Beta  occ. eigenvalues --   -0.33736  -0.33130  -0.32565  -0.31818  -0.30118
  Beta  occ. eigenvalues --   -0.29584  -0.28745  -0.28134  -0.27440  -0.27106
  Beta  occ. eigenvalues --   -0.26954  -0.26085  -0.25714  -0.23472  -0.22845
  Beta  occ. eigenvalues --   -0.22746  -0.17774  -0.15225  -0.12973  -0.12241
  Beta virt. eigenvalues --    0.06163   0.06894   0.07287   0.07495   0.08276
  Beta virt. eigenvalues --    0.08722   0.09225   0.09445   0.10106   0.10578
  Beta virt. eigenvalues --    0.10740   0.10995   0.11591   0.12256   0.12661

 Mulliken charges and spin densities:
               1          2
     1  C    0.559325  -0.956500
     2  N   -0.204229   0.116260
     3  C   -0.061819  -0.769079
     4  C    0.598148  -0.553028
     5  C   -0.789247   0.645241
     6  C    1.135541  -1.451075
     7  C   -0.531425  -0.107915
     8  N    0.167096   0.119595
     9  C   -0.030187  -0.177573
    10  C   -0.178803  -0.457615
    11  S    1.243412  -0.574237
    12  O   -0.487857   0.024154
    13  C   -0.701794  -0.082925
    14  C   -0.181715  -0.045861
    15  H   -0.127672   0.270378
    16  H   -0.192905   0.309982
    17  H   -0.204024   0.344276
    18  H    0.060503   0.162552
    19  H   -0.277005   0.473916
    20  H   -0.055396   0.218611
    21  H   -0.509377   0.626909
    22  H   -0.169762   0.367878
    23  H   -0.461685   0.577411
    24  H   -0.187893   0.382827
    25  H    0.128514   0.065401
    26  H    0.084442   0.043676
    27  H   -0.194983   0.365370
    28  H    1.187920  -1.108926
    29  H    0.187552   0.012115
    30  H   -0.264147   0.430148
    31  H   -0.799664   0.980278
    32  H   -0.029993   0.282832
    33  H   -0.057683   0.196276
    34  H    0.049206   0.203640
    35  H    0.143897  -0.002035
    36  H    0.153711   0.067041
 Sum of Mulliken charges =  -1.00000   1.00000

 Dipole moment (field-independent basis, Debye):
    X=             -2.5961    Y=              0.6338    Z=              1.9078  Tot=              3.2835
 Quadrupole moment (field-independent basis, Debye-Ang):
   XX=           -201.1598   YY=           -135.7475   ZZ=           -136.4037
   XY=              2.9657   XZ=              1.6736   YZ=              4.0705

 Summary of Natural Population Analysis:

                                       Natural Population
                Natural  -----------------------------------------------
    Atom  No    Charge         Core      Valence    Rydberg      Total
 -----------------------------------------------------------------------
      C    1   -0.17880      0.99966     2.17193    0.00721     3.17880
      N    2   -0.33965      0.99976     2.82786    0.01203     3.83965
      C    3   -0.08826      0.99962     2.07671    0.01193     3.08826
      C    4   -0.20299      0.99962     2.19427    0.00910     3.20299
      C    5   -0.19420      0.99962     2.18526    0.00932     3.19420
      C    6   -0.19931      0.99962     2.19155    0.00814     3.19931
      C    7   -0.09082      0.99960     2.07856    0.01266     3.09082
      N    8   -0.27623      0.99973     2.76399    0.01250     3.77623
      C    9   -0.09558      0.99960     2.08258    0.01340     3.09558
      C   10   -0.28536      0.99959     2.27394    0.01183     3.28536
      S   11    0.57825      4.99946     2.36885    0.05343     7.42175
      O   12   -0.48995      0.99993     3.48420    0.00581     4.48995
      C   13   -0.28693      0.99959     2.27660    0.01073     3.28693
      C   14   -0.09912      0.99959     2.08727    0.01225     3.09912
      H   15    0.09057      0.00000     0.40806    0.00137     0.40943
      H   16    0.08017      0.00000     0.41781    0.00202     0.41983
      H   17    0.09309      0.00000     0.40574    0.00117     0.40691
      H   18    0.16879      0.00000     0.32752    0.00369     0.33121
      H   19    0.09297      0.00000     0.40553    0.00150     0.40703
      H   20    0.09248      0.00000     0.40635    0.00117     0.40752
      H   21    0.09830      0.00000     0.39970    0.00200     0.40170
      H   22    0.09913      0.00000     0.39937    0.00150     0.40087
      H   23    0.09585      0.00000     0.40264    0.00151     0.40415
      H   24    0.09673      0.00000     0.40180    0.00147     0.40327
      H   25    0.10221      0.00000     0.39639    0.00140     0.39779
      H   26    0.09858      0.00000     0.40015    0.00127     0.40142
      H   27    0.09855      0.00000     0.39989    0.00156     0.40145
      H   28    0.08208      0.00000     0.41539    0.00253     0.41792
      H   29    0.10550      0.00000     0.39329    0.00121     0.39450
      H   30    0.10281      0.00000     0.39601    0.00119     0.39719
      H   31    0.11023      0.00000     0.38629    0.00348     0.38977
      H   32    0.11043      0.00000     0.38828    0.00129     0.38957
      H   33    0.10975      0.00000     0.38722    0.00303     0.39025
      H   34    0.11004      0.00000     0.38873    0.00123     0.38996
      H   35    0.10301      0.00000     0.39576    0.00123     0.39699
      H   36    0.10767      0.00000     0.39118    0.00115     0.39233
 =======================================================================
   * Total *    0.00000     17.99500    41.77667    0.22833    60.00000

 Normal termination of Gaussian 16 at Thu Dec 10 11:44:24 2020.
