 Gaussian 16, Revision A.03,

 -----------------------------------------------------------
 # opt freq B3LYP/6-31G(d) empiricaldispersion=gd3bj scf=xqc
 -----------------------------------------------------------

 -------------------------------
 CID_123588252_JID_2634_neutraal
 -------------------------------
 Symbolic Z-matrix:
 Charge =  0 Multiplicity = 1

 SCF Done:  E(RB3LYP) =  -570.777206961     A.U. after   14 cycles
 SCF Done:  E(RB3LYP) =  -570.780528777     A.U. after   14 cycles
 SCF Done:  E(RB3LYP) =  -570.782609102     A.U. after   14 cycles
 SCF Done:  E(RB3LYP) =  -570.783084213     A.U. after   15 cycles
 SCF Done:  E(RB3LYP) =  -570.783183819     A.U. after   14 cycles
 SCF Done:  E(RB3LYP) =  -570.783379433     A.U. after   13 cycles
 SCF Done:  E(RB3LYP) =  -570.783413629     A.U. after   12 cycles
 SCF Done:  E(RB3LYP) =  -570.783475581     A.U. after   13 cycles
 SCF Done:  E(RB3LYP) =  -570.783548337     A.U. after   13 cycles
 SCF Done:  E(RB3LYP) =  -570.783609981     A.U. after   13 cycles
 SCF Done:  E(RB3LYP) =  -570.784337126     A.U. after    9 cycles
 SCF Done:  E(RB3LYP) =  -570.784337515     A.U. after    9 cycles
 SCF Done:  E(RB3LYP) =  -570.784337693     A.U. after    9 cycles
 SCF Done:  E(RB3LYP) =  -570.784337741     A.U. after    8 cycles
 SCF Done:  E(RB3LYP) =  -570.784337764     A.U. after    7 cycles
 Optimization completed.
    -- Stationary point found.
 Normal termination of Gaussian 16 at Wed Dec  9 18:09:00 2020.

 --------------------------------------------------------------------
 #N Geom=AllCheck Guess=TCheck SCRF=Check GenChk RB3LYP/6-31G(d) Freq
 --------------------------------------------------------------------

 Structure from the checkpoint file:  "JID_2634.chk"
 -------------------------------
 CID_123588252_JID_2634_neutraal
 -------------------------------
 Charge =  0 Multiplicity = 1

 SCF Done:  E(RB3LYP) =  -570.784337764     A.U. after    1 cycles

  Exact polarizability: 138.377   7.413 113.624  -1.594   4.710  57.792
 Approx polarizability: 209.328  16.204 178.964 -10.152   7.887  86.257

                      1                      2                      3
                      A                      A                      A
 Frequencies --     41.2928                66.6549                91.7411
 Red. masses --      5.0118                 5.0567                 3.2917
 Frc consts  --      0.0050                 0.0132                 0.0163
 IR Inten    --      0.1530                 1.0573                 1.3995

                      4                      5                      6
                      A                      A                      A
 Frequencies --    118.4245               204.8036               212.5320
 Red. masses --      6.7835                 2.2864                 3.1519
 Frc consts  --      0.0561                 0.0565                 0.0839
 IR Inten    --      1.6930                 0.7973                 0.3366

                      7                      8                      9
                      A                      A                      A
 Frequencies --    240.6505               278.1155               283.2251
 Red. masses --      5.2577                 3.5781                 1.5651
 Frc consts  --      0.1794                 0.1631                 0.0740
 IR Inten    --      0.5303                 1.8751                 1.2894

                     10                     11                     12
                      A                      A                      A
 Frequencies --    346.0101               389.5950               406.6958
 Red. masses --      1.0996                 5.5177                 4.0589
 Frc consts  --      0.0776                 0.4934                 0.3955
 IR Inten    --    112.4648                 0.4687                10.5921

                     13                     14                     15
                      A                      A                      A
 Frequencies --    453.5284               501.3167               536.2436
 Red. masses --      3.4293                 3.3699                 4.6257
 Frc consts  --      0.4156                 0.4990                 0.7837
 IR Inten    --      1.8934                 7.6909                 9.7457

                     16                     17                     18
                      A                      A                      A
 Frequencies --    555.5621               565.9879               642.4262
 Red. masses --      5.8515                 2.9922                 3.8706
 Frc consts  --      1.0641                 0.5647                 0.9412
 IR Inten    --      3.3668                10.5452                 3.0859

                     19                     20                     21
                      A                      A                      A
 Frequencies --    722.2943               749.4572               787.3080
 Red. masses --      2.8850                 5.0811                 2.5125
 Frc consts  --      0.8868                 1.6815                 0.9176
 IR Inten    --      0.3122                 3.5825                 2.6242

                     22                     23                     24
                      A                      A                      A
 Frequencies --    803.6123               824.8773               887.4515
 Red. masses --      1.9679                 1.4871                 2.6387
 Frc consts  --      0.7487                 0.5962                 1.2244
 IR Inten    --     23.5939                33.8384                10.2518

                     25                     26                     27
                      A                      A                      A
 Frequencies --    943.1817               982.4290              1005.7630
 Red. masses --      1.2970                 3.3832                 2.0134
 Frc consts  --      0.6798                 1.9239                 1.2000
 IR Inten    --      2.1146                 9.9352                43.4183

                     28                     29                     30
                      A                      A                      A
 Frequencies --   1027.0060              1080.3864              1155.5611
 Red. masses --      1.7989                 4.0542                 1.4826
 Frc consts  --      1.1179                 2.7881                 1.1665
 IR Inten    --     33.7636                48.5711                36.3019

                     31                     32                     33
                      A                      A                      A
 Frequencies --   1186.6071              1204.8279              1215.4795
 Red. masses --      1.2707                 2.0304                 1.3924
 Frc consts  --      1.0542                 1.7365                 1.2120
 IR Inten    --      0.7503                51.7131               177.3146

                     34                     35                     36
                      A                      A                      A
 Frequencies --   1228.9901              1245.4781              1252.8286
 Red. masses --      1.6484                 1.3250                 1.8392
 Frc consts  --      1.4669                 1.2110                 1.7009
 IR Inten    --      5.0295                40.0971                99.5218

                     37                     38                     39
                      A                      A                      A
 Frequencies --   1331.4152              1351.3303              1366.5727
 Red. masses --      1.8124                 2.9433                 1.4370
 Frc consts  --      1.8929                 3.1668                 1.5812
 IR Inten    --     65.6020                73.8112                28.4026

                     40                     41                     42
                      A                      A                      A
 Frequencies --   1394.8724              1483.4890              1494.6077
 Red. masses --      4.1390                 1.7259                 1.1015
 Frc consts  --      4.7448                 2.2378                 1.4498
 IR Inten    --     28.0378                34.2180                 3.9685

                     43                     44                     45
                      A                      A                      A
 Frequencies --   1513.7017              1520.5864              1521.7372
 Red. masses --      1.4875                 1.4858                 1.0547
 Frc consts  --      2.0081                 2.0241                 1.4390
 IR Inten    --     22.3719                37.2895                 5.9208

                     46                     47                     48
                      A                      A                      A
 Frequencies --   1533.4749              1566.6829              1652.9715
 Red. masses --      1.0891                 2.7680                 9.4616
 Frc consts  --      1.5089                 4.0030                15.2317
 IR Inten    --     47.6082                72.3771                12.2250

                     49                     50                     51
                      A                      A                      A
 Frequencies --   1664.2064              1673.1733              3024.5575
 Red. masses --      6.4600                 6.4641                 1.0351
 Frc consts  --     10.5414                10.6621                 5.5792
 IR Inten    --     39.2392               175.8364                52.4510

                     52                     53                     54
                      A                      A                      A
 Frequencies --   3053.1999              3083.3040              3109.5797
 Red. masses --      1.0560                 1.1066                 1.1077
 Frc consts  --      5.8000                 6.1982                 6.3106
 IR Inten    --     23.0985                42.4320                10.7578

                     55                     56                     57
                      A                      A                      A
 Frequencies --   3163.8050              3189.2094              3204.3483
 Red. masses --      1.0993                 1.0893                 1.0894
 Frc consts  --      6.4830                 6.5276                 6.5902
 IR Inten    --     18.4902                14.7759                10.8473

                     58                     59                     60
                      A                      A                      A
 Frequencies --   3219.3553              3227.3294              3753.6427
 Red. masses --      1.0737                 1.0932                 1.0659
 Frc consts  --      6.5564                 6.7085                 8.8486
 IR Inten    --     62.0273                 6.0111                39.2461

 - Thermochemistry -
 -------------------
 Temperature   298.150 Kelvin.  Pressure   1.00000 Atm.
 Atom     1 has atomic number  6 and mass  12.00000

 Molecular mass:   166.07423 amu.
 Principal axes and moments of inertia in atomic units:
                           1         2         3
     Eigenvalues --  1191.513472709.234153684.13148
           X            1.00000  -0.00216  -0.00208
           Y            0.00219   0.99994   0.01093
           Z            0.00205  -0.01093   0.99994
 This molecule is an asymmetric top.
 Rotational symmetry number  1.
 Warning -- assumption of classical behavior for rotation
           may cause significant error
 Rotational temperatures (Kelvin)      0.07269     0.03197     0.02351
 Rotational constants (GHZ):           1.51466     0.66614     0.48987
 Zero-point vibrational energy     462569.0 (Joules/Mol)
                                  110.55664 (Kcal/Mol)
 Warning -- explicit consideration of  17 degrees of freedom as
           vibrations may cause significant error
 Vibrational temperatures:     59.41    95.90   131.99   170.39   294.67
          (Kelvin)            305.79   346.24   400.15   407.50   497.83
                              560.54   585.14   652.53   721.28   771.53
                              799.33   814.33   924.31  1039.22  1078.30
                             1132.76  1156.22  1186.81  1276.84  1357.03
                             1413.50  1447.07  1477.63  1554.44  1662.59
                             1707.26  1733.48  1748.80  1768.24  1791.97
                             1802.54  1915.61  1944.26  1966.19  2006.91
                             2134.41  2150.41  2177.88  2187.78  2189.44
                             2206.33  2254.11  2378.26  2394.42  2407.32
                             4351.66  4392.87  4436.19  4473.99  4552.01
                             4588.56  4610.34  4631.93  4643.41  5400.65

 Zero-point correction=                           0.176183 (Hartree/Particle)
 Thermal correction to Energy=                    0.187633
 Thermal correction to Enthalpy=                  0.188577
 Thermal correction to Gibbs Free Energy=         0.138204
 Sum of electronic and zero-point Energies=           -570.608155
 Sum of electronic and thermal Energies=              -570.596705
 Sum of electronic and thermal Enthalpies=            -570.595761
 Sum of electronic and thermal Free Energies=         -570.646134

                     E (Thermal)             CV                S
                      KCal/Mol        Cal/Mol-Kelvin    Cal/Mol-Kelvin
 Total                  117.741             42.443            106.019
 Electronic               0.000              0.000              0.000
 Translational            0.889              2.981             41.230
 Rotational               0.889              2.981             30.854
 Vibrational            115.964             36.481             33.935
 Vibration     1          0.594              1.981              5.196
 Vibration     2          0.598              1.970              4.250
 Vibration     3          0.602              1.955              3.623
 Vibration     4          0.609              1.934              3.126
 Vibration     5          0.640              1.833              2.090
 Vibration     6          0.644              1.822              2.022
 Vibration     7          0.658              1.778              1.798
 Vibration     8          0.679              1.714              1.545
 Vibration     9          0.682              1.705              1.514
 Vibration    10          0.724              1.583              1.184
 Vibration    11          0.758              1.492              1.002
 Vibration    12          0.771              1.456              0.938
 Vibration    13          0.812              1.353              0.785
 Vibration    14          0.857              1.247              0.655
 Vibration    15          0.891              1.170              0.573
 Vibration    16          0.911              1.128              0.533
 Vibration    17          0.922              1.105              0.512

 Optimization completed.
    -- Stationary point found.
 Normal termination of Gaussian 16 at Wed Dec  9 18:13:50 2020.

 ----------------------------------------------------------------------
 # B3LYP/6-311++G(d,p) empiricaldispersion=gd3bj scf=xqc pop=npa geom=c
 heck
 ----------------------------------------------------------------------

 ---------------------------------------
 CID_123588252_JID_2634_Energie_neutraal
 ---------------------------------------
 Structure from the checkpoint file:  "JID_2634.chk"
 Charge =  0 Multiplicity = 1

 SCF Done:  E(RB3LYP) =  -570.955364584     A.U. after   15 cycles
 Normal termination of Gaussian 16 at Wed Dec  9 18:17:25 2020.

 ----------------------------------------------------------------------
 # B3LYP/6-311++G(d,p) empiricaldispersion=gd3bj scf=xqc pop=npa geom=c
 heck
 ----------------------------------------------------------------------

 -------------------------------------
 CID_123588252_JID_2634_Energie_kation
 -------------------------------------
 Structure from the checkpoint file:  "JID_2634.chk"
 Charge =  1 Multiplicity = 2

 SCF Done:  E(UB3LYP) =  -570.669524588     A.U. after   26 cycles
 Normal termination of Gaussian 16 at Wed Dec  9 18:23:00 2020.
 Gaussian 16:  ES64L-G16RevA.03 25-Dec-2016

 ----------------------------------------------------------------------
 # B3LYP/6-311++G(d,p) empiricaldispersion=gd3bj scf=xqc pop=npa geom=c
 heck
 ----------------------------------------------------------------------

 ------------------------------------
 CID_123588252_JID_2634_Energie_anion
 ------------------------------------
 Structure from the checkpoint file:  "JID_2634.chk"
 Charge = -1 Multiplicity = 2

                         Standard orientation:
 ---------------------------------------------------------------------
 Center     Atomic      Atomic             Coordinates (Angstroms)
 Number     Number       Type             X           Y           Z
 ---------------------------------------------------------------------
      1          6           0        0.565975    2.836641   -0.137796
      2          8           0        0.912793    1.474878   -0.312694
      3          6           0       -0.064210    0.532372   -0.202677
      4          6           0        0.354987   -0.800715   -0.378678
      5          6           0       -0.604207   -1.807128   -0.270078
      6          6           0       -1.944374   -1.533377   -0.007654
      7          6           0       -2.337590   -0.205803    0.157480
      8          6           0       -1.403632    0.832667    0.060199
      9          8           0       -3.658543    0.036034    0.413396
     10          6           0        1.807274   -1.106131   -0.638091
     11          7           0        2.569891   -1.048107    0.634266
     12          7           0        3.515173   -0.240323    0.575556
     13          1           0       -0.161589    3.166851   -0.891162
     14          1           0        1.493410    3.398098   -0.259249
     15          1           0        0.157204    3.020868    0.864454
     16          1           0       -0.289661   -2.839723   -0.396983
     17          1           0       -2.683967   -2.322051    0.071029
     18          1           0       -1.729644    1.859216    0.191908
     19          1           0       -3.791926    0.991668    0.507180
     20          1           0        1.902459   -2.138569   -0.993958
     21          1           0        2.252677   -0.423254   -1.369883
     22          1           0        3.976254   -0.272549    1.506065
 ---------------------------------------------------------------------

 SCF Done:  E(UB3LYP) =  -570.950685705     A.U. after   33 cycles
 SCF Done:  E(UB3LYP) =  -570.950685705     a.u. after    1 cycles

 The electronic state is 2-A.
 Alpha  occ. eigenvalues --  -19.04368 -19.03867 -14.20926 -14.19903 -10.12457
 Alpha  occ. eigenvalues --  -10.12364 -10.11605 -10.07084 -10.06378 -10.05813
 Alpha  occ. eigenvalues --  -10.05760 -10.05279  -0.96193  -0.94964  -0.88267
 Alpha  occ. eigenvalues --   -0.74283  -0.66751  -0.64446  -0.60911  -0.58421
 Alpha  occ. eigenvalues --   -0.51244  -0.49045  -0.45976  -0.44167  -0.41035
 Alpha  occ. eigenvalues --   -0.37369  -0.36836  -0.36067  -0.34797  -0.32651
 Alpha  occ. eigenvalues --   -0.31561  -0.31068  -0.29863  -0.28292  -0.27452
 Alpha  occ. eigenvalues --   -0.25198  -0.24612  -0.23960  -0.22719  -0.21204
 Alpha  occ. eigenvalues --   -0.19810  -0.13096  -0.10672  -0.09159   0.04642
 Alpha virt. eigenvalues --    0.06261   0.08365   0.08702   0.09971   0.10191
 Alpha virt. eigenvalues --    0.10757   0.10987   0.11540   0.11767   0.12373
 Alpha virt. eigenvalues --    0.13547   0.14462   0.15307   0.15793   0.16900

  Beta  occ. eigenvalues --  -19.04362 -19.03809 -14.20562 -14.19567 -10.12459
  Beta  occ. eigenvalues --  -10.12341 -10.11575 -10.07102 -10.06344 -10.05799
  Beta  occ. eigenvalues --  -10.05722 -10.05279  -0.96174  -0.94848  -0.87595
  Beta  occ. eigenvalues --   -0.74231  -0.66614  -0.64392  -0.60740  -0.58260
  Beta  occ. eigenvalues --   -0.51031  -0.48895  -0.45715  -0.44049  -0.40982
  Beta  occ. eigenvalues --   -0.37293  -0.36724  -0.35997  -0.34596  -0.32562
  Beta  occ. eigenvalues --   -0.31490  -0.30659  -0.29739  -0.28025  -0.27247
  Beta  occ. eigenvalues --   -0.25106  -0.24497  -0.23619  -0.22413  -0.20128
  Beta  occ. eigenvalues --   -0.19671  -0.12982  -0.10504  -0.08800
  Beta virt. eigenvalues --    0.07767   0.08347   0.09095   0.09436   0.10105
  Beta virt. eigenvalues --    0.10782   0.11108   0.11195   0.11908   0.12075
  Beta virt. eigenvalues --    0.12637   0.13554   0.14819   0.15521   0.15858

 Mulliken charges and spin densities:
               1          2
     1  C    0.429890  -0.727568
     2  O   -0.114006   0.025932
     3  C   -0.633068   0.131442
     4  C    0.752733   0.097138
     5  C   -0.703444   0.198886
     6  C    0.859333  -0.978975
     7  C    0.750290  -1.224380
     8  C   -0.734655   0.977246
     9  O   -0.303666   0.067065
    10  C    0.016617  -0.421279
    11  N   -0.172905   0.157647
    12  N   -0.301166   0.183711
    13  H   -0.235649   0.390568
    14  H    0.116553   0.043053
    15  H   -0.093403   0.249750
    16  H    0.064517   0.035053
    17  H    0.142350   0.017410
    18  H   -0.842350   1.002268
    19  H   -0.402045   0.686745
    20  H    0.093704   0.092159
    21  H    0.107134  -0.002863
    22  H    0.203237  -0.001007
 Sum of Mulliken charges =  -1.00000   1.00000

 Dipole moment (field-independent basis, Debye):
    X=              3.1573    Y=             -3.4591    Z=             -0.7685  Tot=              4.7460
 Quadrupole moment (field-independent basis, Debye-Ang):
   XX=           -132.3904   YY=           -101.0638   ZZ=            -87.6179
   XY=             15.5301   XZ=              3.3145   YZ=              1.4369

 Summary of Natural Population Analysis:

                                       Natural Population
                Natural  -----------------------------------------------
    Atom  No    Charge         Core      Valence    Rydberg      Total
 -----------------------------------------------------------------------
      C    1   -0.10046      0.99960     2.09186    0.00901     3.10046
      O    2   -0.26844      0.99985     3.25843    0.01016     4.26844
      C    3    0.17662      0.99935     1.80956    0.01447     2.82338
      C    4   -0.05787      0.99946     2.04492    0.01349     3.05787
      C    5   -0.07565      0.99953     2.06786    0.00826     3.07565
      C    6   -0.14629      0.99952     2.13757    0.00920     3.14629
      C    7    0.17081      0.99940     1.81578    0.01401     2.82919
      C    8   -0.17957      0.99948     2.17031    0.00977     3.17957
      O    9   -0.34222      0.99988     3.33522    0.00713     4.34222
      C   10   -0.12110      0.99958     2.10554    0.01597     3.12110
      N   11   -0.05487      0.99979     2.53408    0.02100     3.55487
      N   12   -0.14409      0.99978     2.62939    0.01493     3.64409
      H   13    0.08617      0.00000     0.41230    0.00153     0.41383
      H   14    0.09159      0.00000     0.40754    0.00088     0.40841
      H   15    0.08543      0.00000     0.41327    0.00131     0.41457
      H   16    0.09631      0.00000     0.40263    0.00106     0.40369
      H   17    0.10171      0.00000     0.39720    0.00109     0.39829
      H   18    0.10939      0.00000     0.38645    0.00416     0.39061
      H   19    0.24039      0.00000     0.24701    0.01260     0.25961
      H   20    0.09532      0.00000     0.40264    0.00203     0.40468
      H   21    0.09810      0.00000     0.39886    0.00304     0.40190
      H   22    0.13872      0.00000     0.35793    0.00335     0.36128
 =======================================================================
   * Total *   -0.00000     11.99522    31.82634    0.17844    44.00000

 Normal termination of Gaussian 16 at Wed Dec  9 18:28:53 2020.
