 Gaussian 16, Revision A.03,

 -----------------------------------------------------------
 # opt freq B3LYP/6-31G(d) empiricaldispersion=gd3bj scf=xqc
 -----------------------------------------------------------

 ------------------------------
 CID_79650564_JID_7326_neutraal
 ------------------------------
 Symbolic Z-matrix:
 Charge =  0 Multiplicity = 1

 SCF Done:  E(RB3LYP) =  -771.047510283     A.U. after   14 cycles
 SCF Done:  E(RB3LYP) =  -771.052358979     A.U. after   12 cycles
 SCF Done:  E(RB3LYP) =  -771.051871945     A.U. after   12 cycles
 SCF Done:  E(RB3LYP) =  -771.053152376     A.U. after   11 cycles
 SCF Done:  E(RB3LYP) =  -771.053029810     A.U. after   11 cycles
 SCF Done:  E(RB3LYP) =  -771.053397007     A.U. after   12 cycles
 SCF Done:  E(RB3LYP) =  -771.053239457     A.U. after   11 cycles
 SCF Done:  E(RB3LYP) =  -771.053554159     A.U. after   11 cycles
 SCF Done:  E(RB3LYP) =  -771.053631905     A.U. after   10 cycles
 SCF Done:  E(RB3LYP) =  -771.053694554     A.U. after   10 cycles
 SCF Done:  E(RB3LYP) =  -771.057424254     A.U. after    9 cycles
 SCF Done:  E(RB3LYP) =  -771.057426910     A.U. after    9 cycles
 SCF Done:  E(RB3LYP) =  -771.057427406     A.U. after    9 cycles
 SCF Done:  E(RB3LYP) =  -771.057427734     A.U. after    7 cycles
 SCF Done:  E(RB3LYP) =  -771.057427836     A.U. after    7 cycles
 SCF Done:  E(RB3LYP) =  -771.057427847     A.U. after    6 cycles
 Optimization completed.
    -- Stationary point found.
 Normal termination of Gaussian 16 at Sun Dec 13 16:40:07 2020.

 --------------------------------------------------------------------
 #N Geom=AllCheck Guess=TCheck SCRF=Check GenChk RB3LYP/6-31G(d) Freq
 --------------------------------------------------------------------

 Structure from the checkpoint file:  "JID_7326.chk"
 ------------------------------
 CID_79650564_JID_7326_neutraal
 ------------------------------
 Charge =  0 Multiplicity = 1

 SCF Done:  E(RB3LYP) =  -771.057427847     A.U. after    1 cycles

  Exact polarizability: 178.149   1.875 149.655  -0.846  -1.612 134.292
 Approx polarizability: 213.861   1.633 210.745  -6.121  -6.298 206.961

                      1                      2                      3
                      A                      A                      A
 Frequencies --     13.4036                31.8126                38.1727
 Red. masses --      3.7822                 3.6465                 3.3939
 Frc consts  --      0.0004                 0.0022                 0.0029
 IR Inten    --      0.1167                 0.0356                 0.1392

                      4                      5                      6
                      A                      A                      A
 Frequencies --     55.8004                61.0993               109.0052
 Red. masses --      4.8837                 2.5301                 2.3229
 Frc consts  --      0.0090                 0.0056                 0.0163
 IR Inten    --      1.0642                 0.0385                 0.3560

                      7                      8                      9
                      A                      A                      A
 Frequencies --    116.6350               134.0836               140.8147
 Red. masses --      2.9584                 1.4133                 1.6505
 Frc consts  --      0.0237                 0.0150                 0.0193
 IR Inten    --      0.1695                 0.3832                 0.5142

                     10                     11                     12
                      A                      A                      A
 Frequencies --    149.7729               168.2481               183.8482
 Red. masses --      1.6228                 3.0200                 1.8714
 Frc consts  --      0.0214                 0.0504                 0.0373
 IR Inten    --      0.6118                 4.0044                 0.6735

                     13                     14                     15
                      A                      A                      A
 Frequencies --    204.8351               229.6567               237.1725
 Red. masses --      1.5642                 2.3241                 1.6049
 Frc consts  --      0.0387                 0.0722                 0.0532
 IR Inten    --      0.7931                 0.7922                 1.6151

                     16                     17                     18
                      A                      A                      A
 Frequencies --    251.5476               265.9184               291.5382
 Red. masses --      1.6676                 1.9364                 2.2293
 Frc consts  --      0.0622                 0.0807                 0.1116
 IR Inten    --      0.3674                 1.6891                 0.9448

                     19                     20                     21
                      A                      A                      A
 Frequencies --    309.1163               339.7992               354.2305
 Red. masses --      2.7934                 2.7168                 2.4520
 Frc consts  --      0.1573                 0.1848                 0.1813
 IR Inten    --      1.5132                11.0599                 1.0012

                     22                     23                     24
                      A                      A                      A
 Frequencies --    367.7614               381.9554               417.9095
 Red. masses --      2.9431                 2.1790                 3.3433
 Frc consts  --      0.2345                 0.1873                 0.3440
 IR Inten    --     15.1497                 1.0054                 2.5104

                     25                     26                     27
                      A                      A                      A
 Frequencies --    425.5523               465.9392               501.2675
 Red. masses --      2.8681                 2.8574                 2.8434
 Frc consts  --      0.3060                 0.3655                 0.4210
 IR Inten    --      8.6132                 2.2569                 1.3838

                     28                     29                     30
                      A                      A                      A
 Frequencies --    507.1479               549.8979               630.4579
 Red. masses --      2.1317                 3.3482                 2.6747
 Frc consts  --      0.3230                 0.5965                 0.6264
 IR Inten    --      2.2750                 4.1615                 4.3011

                     31                     32                     33
                      A                      A                      A
 Frequencies --    689.7540               745.0314               773.9823
 Red. masses --      3.5200                 1.2617                 5.1128
 Frc consts  --      0.9867                 0.4126                 1.8046
 IR Inten    --      7.2586                 7.5606                10.9188

                     34                     35                     36
                      A                      A                      A
 Frequencies --    798.2950               814.6367               825.1018
 Red. masses --      2.8972                 1.6544                 2.3571
 Frc consts  --      1.0878                 0.6469                 0.9455
 IR Inten    --      5.4820                80.4310                 0.5855

                     37                     38                     39
                      A                      A                      A
 Frequencies --    829.6017               860.3333               881.1626
 Red. masses --      2.7675                 1.8183                 1.9635
 Frc consts  --      1.1222                 0.7930                 0.8983
 IR Inten    --      2.5281                 6.7237                12.5769

                     40                     41                     42
                      A                      A                      A
 Frequencies --    887.6340               926.3003               972.6388
 Red. masses --      2.2749                 1.7596                 2.0778
 Frc consts  --      1.0560                 0.8896                 1.1581
 IR Inten    --      7.6844                 5.5321                 2.1646

                     43                     44                     45
                      A                      A                      A
 Frequencies --    981.6993               996.1740              1005.3217
 Red. masses --      1.9252                 1.9059                 1.7188
 Frc consts  --      1.0932                 1.1143                 1.0235
 IR Inten    --      6.3527                12.4977                 2.5140

                     46                     47                     48
                      A                      A                      A
 Frequencies --   1033.3119              1045.8684              1053.0440
 Red. masses --      2.9549                 2.5684                 1.7828
 Frc consts  --      1.8589                 1.6553                 1.1648
 IR Inten    --     34.4305                13.7398                39.1475

                     49                     50                     51
                      A                      A                      A
 Frequencies --   1066.9054              1082.5032              1099.2426
 Red. masses --      1.9955                 2.3728                 2.0454
 Frc consts  --      1.3383                 1.6382                 1.4562
 IR Inten    --      9.8766                 6.6208                32.2273

                     52                     53                     54
                      A                      A                      A
 Frequencies --   1111.4859              1127.8336              1133.6688
 Red. masses --      2.4897                 1.6069                 2.2348
 Frc consts  --      1.8122                 1.2043                 1.6922
 IR Inten    --      6.8460                 3.6965                20.6899

                     55                     56                     57
                      A                      A                      A
 Frequencies --   1152.6280              1169.0295              1177.5774
 Red. masses --      2.5765                 1.4839                 1.4898
 Frc consts  --      2.0168                 1.1948                 1.2172
 IR Inten    --     29.6870                 5.8679                 0.4821

                     58                     59                     60
                      A                      A                      A
 Frequencies --   1185.6220              1193.3608              1205.9994
 Red. masses --      1.2787                 1.9949                 2.4348
 Frc consts  --      1.0591                 1.6738                 2.0865
 IR Inten    --      1.4747                21.5894               162.4864

                     61                     62                     63
                      A                      A                      A
 Frequencies --   1222.3167              1238.7227              1251.3137
 Red. masses --      1.6807                 1.5283                 1.7580
 Frc consts  --      1.4795                 1.3817                 1.6218
 IR Inten    --     84.4615                13.0700                 1.1161

                     64                     65                     66
                      A                      A                      A
 Frequencies --   1265.1662              1282.0681              1295.0853
 Red. masses --      2.3609                 1.6192                 1.4801
 Frc consts  --      2.2265                 1.5681                 1.4626
 IR Inten    --     82.4564                15.4750                 1.0180

                     67                     68                     69
                      A                      A                      A
 Frequencies --   1302.7142              1315.0260              1321.4522
 Red. masses --      1.7510                 1.5317                 1.5756
 Frc consts  --      1.7508                 1.5606                 1.6211
 IR Inten    --     33.4458                 5.9995                 5.7231

                     70                     71                     72
                      A                      A                      A
 Frequencies --   1346.2423              1361.6719              1364.8292
 Red. masses --      1.1848                 1.4120                 1.2645
 Frc consts  --      1.2652                 1.5425                 1.3878
 IR Inten    --      4.2032                 6.6501                 4.1962

                     73                     74                     75
                      A                      A                      A
 Frequencies --   1378.2743              1392.1247              1409.8440
 Red. masses --      1.4440                 1.3503                 1.4666
 Frc consts  --      1.6162                 1.5418                 1.7175
 IR Inten    --      2.4360                15.5139                 1.3327

                     76                     77                     78
                      A                      A                      A
 Frequencies --   1423.4964              1439.2104              1453.0558
 Red. masses --      1.4145                 1.2791                 1.3042
 Frc consts  --      1.6887                 1.5610                 1.6225
 IR Inten    --     39.8244                 5.3383                 3.9551

                     79                     80                     81
                      A                      A                      A
 Frequencies --   1480.0921              1488.3918              1490.0769
 Red. masses --      1.1761                 1.1853                 1.1941
 Frc consts  --      1.5180                 1.5470                 1.5621
 IR Inten    --      0.4329                 2.3355                 3.0351

                     82                     83                     84
                      A                      A                      A
 Frequencies --   1502.4454              1509.0955              1512.4699
 Red. masses --      1.1019                 1.0671                 1.0489
 Frc consts  --      1.4655                 1.4318                 1.4137
 IR Inten    --      2.1625                 3.4775                 6.6300

                     85                     86                     87
                      A                      A                      A
 Frequencies --   1512.8887              1515.2172              1520.5492
 Red. masses --      1.0802                 1.0756                 1.1830
 Frc consts  --      1.4568                 1.4550                 1.6116
 IR Inten    --      2.2327                 6.0100                 4.4340

                     88                     89                     90
                      A                      A                      A
 Frequencies --   1523.7924              1524.8661              1526.4964
 Red. masses --      1.0604                 1.0485                 1.0502
 Frc consts  --      1.4507                 1.4365                 1.4419
 IR Inten    --      8.6820                 6.4350                 0.6115

                     91                     92                     93
                      A                      A                      A
 Frequencies --   1530.3997              1533.0643              1536.1053
 Red. masses --      1.0884                 1.0805                 1.0872
 Frc consts  --      1.5019                 1.4963                 1.5115
 IR Inten    --      9.7812                 5.0708                 8.7022

                     94                     95                     96
                      A                      A                      A
 Frequencies --   1544.0695              1546.7267              1554.4403
 Red. masses --      1.0603                 1.0579                 1.0578
 Frc consts  --      1.4894                 1.4911                 1.5059
 IR Inten    --      6.1016                 2.4836                 5.9118

                     97                     98                     99
                      A                      A                      A
 Frequencies --   1808.3165              2925.1556              2948.7716
 Red. masses --     11.5874                 1.0739                 1.0631
 Frc consts  --     22.3246                 5.4137                 5.4462
 IR Inten    --    215.8532                59.7077                81.0454

                    100                    101                    102
                      A                      A                      A
 Frequencies --   3010.0285              3033.9992              3041.7852
 Red. masses --      1.0510                 1.0626                 1.0813
 Frc consts  --      5.6103                 5.7628                 5.8945
 IR Inten    --     59.7179                30.5246                16.9186

                    103                    104                    105
                      A                      A                      A
 Frequencies --   3042.6262              3044.8381              3063.6135
 Red. masses --      1.0460                 1.0614                 1.0953
 Frc consts  --      5.7052                 5.7975                 6.0569
 IR Inten    --     27.9173                30.5599                 6.4085

                    106                    107                    108
                      A                      A                      A
 Frequencies --   3074.3096              3076.0512              3077.0003
 Red. masses --      1.0600                 1.0297                 1.0631
 Frc consts  --      5.9026                 5.7406                 5.9306
 IR Inten    --     21.8338                35.4141                15.7782

                    109                    110                    111
                      A                      A                      A
 Frequencies --   3078.4582              3082.3144              3089.0517
 Red. masses --      1.0633                 1.0906                 1.0935
 Frc consts  --      5.9373                 6.1047                 6.1476
 IR Inten    --      3.4492                22.6843                52.2583

                    112                    113                    114
                      A                      A                      A
 Frequencies --   3096.6666              3098.5993              3108.2123
 Red. masses --      1.0824                 1.0722                 1.1004
 Frc consts  --      6.1157                 6.0654                 6.2635
 IR Inten    --     44.9212                46.2303                54.0030

                    115                    116                    117
                      A                      A                      A
 Frequencies --   3121.3612              3122.1002              3126.1275
 Red. masses --      1.1028                 1.1016                 1.1043
 Frc consts  --      6.3305                 6.3266                 6.3586
 IR Inten    --     28.3776                60.7543                18.9930

                    118                    119                    120
                      A                      A                      A
 Frequencies --   3130.5192              3135.3504              3146.9223
 Red. masses --      1.1030                 1.1046                 1.0994
 Frc consts  --      6.3690                 6.3980                 6.4150
 IR Inten    --     30.8405                23.8944                34.6410

                    121                    122                    123
                      A                      A                      A
 Frequencies --   3150.9484              3182.4551              3490.9742
 Red. masses --      1.1075                 1.1073                 1.0733
 Frc consts  --      6.4783                 6.6077                 7.7065
 IR Inten    --     19.3847                15.7497                 0.7694

 - Thermochemistry -
 -------------------
 Temperature   298.150 Kelvin.  Pressure   1.00000 Atm.
 Atom     1 has atomic number  6 and mass  12.00000

 Molecular mass:   242.19943 amu.
 Principal axes and moments of inertia in atomic units:
                           1         2         3
     Eigenvalues --  2125.462948064.463868949.93890
           X            0.99999   0.00095   0.00407
           Y           -0.00100   0.99993   0.01154
           Z           -0.00405  -0.01155   0.99993
 This molecule is an asymmetric top.
 Rotational symmetry number  1.
 Warning -- assumption of classical behavior for rotation
           may cause significant error
 Rotational temperatures (Kelvin)      0.04075     0.01074     0.00968
 Rotational constants (GHZ):           0.84910     0.22379     0.20165
 Zero-point vibrational energy    1025681.2 (Joules/Mol)
                                  245.14369 (Kcal/Mol)
 Warning -- explicit consideration of  29 degrees of freedom as
           vibrations may cause significant error
 Vibrational temperatures:     19.28    45.77    54.92    80.28    87.91
          (Kelvin)            156.83   167.81   192.92   202.60   215.49
                              242.07   264.52   294.71   330.42   341.24
                              361.92   382.60   419.46   444.75   488.90
                              509.66   529.13   549.55   601.28   612.27
                              670.38   721.21   729.67   791.18   907.09
                              992.40  1071.93  1113.59  1148.57  1172.08
                             1187.14  1193.61  1237.83  1267.80  1277.11
                             1332.74  1399.41  1412.45  1433.27  1446.43
                             1486.71  1504.77  1515.10  1535.04  1557.48
                             1581.56  1599.18  1622.70  1631.10  1658.37
                             1681.97  1694.27  1705.85  1716.98  1735.16
                             1758.64  1782.25  1800.36  1820.29  1844.61
                             1863.34  1874.32  1892.03  1901.27  1936.94
                             1959.14  1963.68  1983.03  2002.96  2028.45
                             2048.09  2070.70  2090.62  2129.52  2141.46
                             2143.89  2161.68  2171.25  2176.11  2176.71
                             2180.06  2187.73  2192.40  2193.94  2196.29
                             2201.90  2205.74  2210.11  2221.57  2225.39
                             2236.49  2601.76  4208.65  4242.62  4330.76
                             4365.25  4376.45  4377.66  4380.84  4407.86
                             4423.25  4425.75  4427.12  4429.21  4434.76
                             4444.46  4455.41  4458.19  4472.02  4490.94
                             4492.01  4497.80  4504.12  4511.07  4527.72
                             4533.51  4578.84  5022.73

 Zero-point correction=                           0.390661 (Hartree/Particle)
 Thermal correction to Energy=                    0.410322
 Thermal correction to Enthalpy=                  0.411266
 Thermal correction to Gibbs Free Energy=         0.340905
 Sum of electronic and zero-point Energies=           -770.666767
 Sum of electronic and thermal Energies=              -770.647106
 Sum of electronic and thermal Enthalpies=            -770.646161
 Sum of electronic and thermal Free Energies=         -770.716523

                     E (Thermal)             CV                S
                      KCal/Mol        Cal/Mol-Kelvin    Cal/Mol-Kelvin
 Total                  257.481             72.521            148.089
 Electronic               0.000              0.000              0.000
 Translational            0.889              2.981             42.355
 Rotational               0.889              2.981             33.394
 Vibrational            255.704             66.559             72.340
 Vibration     1          0.593              1.987              7.429
 Vibration     2          0.594              1.983              5.713
 Vibration     3          0.594              1.982              5.352
 Vibration     4          0.596              1.975              4.600
 Vibration     5          0.597              1.973              4.421
 Vibration     6          0.606              1.942              3.287
 Vibration     7          0.608              1.936              3.155
 Vibration     8          0.613              1.919              2.887
 Vibration     9          0.615              1.912              2.793
 Vibration    10          0.618              1.903              2.675
 Vibration    11          0.625              1.882              2.455
 Vibration    12          0.631              1.862              2.289
 Vibration    13          0.640              1.833              2.089
 Vibration    14          0.652              1.796              1.882
 Vibration    15          0.656              1.784              1.824
 Vibration    16          0.664              1.760              1.720
 Vibration    17          0.672              1.736              1.623
 Vibration    18          0.687              1.689              1.465
 Vibration    19          0.698              1.656              1.367
 Vibration    20          0.720              1.596              1.213
 Vibration    21          0.730              1.567              1.147
 Vibration    22          0.740              1.539              1.089
 Vibration    23          0.751              1.509              1.031
 Vibration    24          0.781              1.431              0.899
 Vibration    25          0.787              1.415              0.873
 Vibration    26          0.823              1.326              0.749
 Vibration    27          0.857              1.247              0.655
 Vibration    28          0.862              1.234              0.640
 Vibration    29          0.905              1.140              0.544

 Optimization completed.
    -- Stationary point found.
 Normal termination of Gaussian 16 at Sun Dec 13 17:00:17 2020.

 ----------------------------------------------------------------------
 # B3LYP/6-311++G(d,p) empiricaldispersion=gd3bj scf=xqc pop=npa geom=c
 heck
 ----------------------------------------------------------------------

 --------------------------------------
 CID_79650564_JID_7326_Energie_neutraal
 --------------------------------------
 Structure from the checkpoint file:  "JID_7326.chk"
 Charge =  0 Multiplicity = 1

 SCF Done:  E(RB3LYP) =  -771.279127856     A.U. after   14 cycles
 Normal termination of Gaussian 16 at Sun Dec 13 17:09:16 2020.

 ----------------------------------------------------------------------
 # B3LYP/6-311++G(d,p) empiricaldispersion=gd3bj scf=xqc pop=npa geom=c
 heck
 ----------------------------------------------------------------------

 ------------------------------------
 CID_79650564_JID_7326_Energie_kation
 ------------------------------------
 Structure from the checkpoint file:  "JID_7326.chk"
 Charge =  1 Multiplicity = 2

 SCF Done:  E(UB3LYP) =  -771.002351517     A.U. after   23 cycles
 Normal termination of Gaussian 16 at Sun Dec 13 17:29:15 2020.
 Gaussian 16:  ES64L-G16RevA.03 25-Dec-2016

 ----------------------------------------------------------------------
 # B3LYP/6-311++G(d,p) empiricaldispersion=gd3bj scf=xqc pop=npa geom=c
 heck
 ----------------------------------------------------------------------

 -----------------------------------
 CID_79650564_JID_7326_Energie_anion
 -----------------------------------
 Structure from the checkpoint file:  "JID_7326.chk"
 Charge = -1 Multiplicity = 2

                         Standard orientation:
 ---------------------------------------------------------------------
 Center     Atomic      Atomic             Coordinates (Angstroms)
 Number     Number       Type             X           Y           Z
 ---------------------------------------------------------------------
      1          6           0       -4.875932    1.262011    0.756412
      2          6           0       -4.867028   -0.205335    0.320280
      3          6           0       -4.194359   -0.442342   -1.038293
      4          6           0       -2.734316    0.026365   -1.101439
      5          7           0       -1.917456   -0.482032   -0.000665
      6          6           0       -1.722641   -1.921476   -0.087271
      7          6           0       -0.702220    0.299260    0.210507
      8          6           0        0.002051    0.068746    1.554400
      9          6           0        1.300135    0.865428    1.390465
     10          6           0        1.728034    0.678968   -0.097995
     11          6           0        0.446463    0.143318   -0.818446
     12          6           0        2.822128   -0.382480   -0.273854
     13          8           0        3.705321   -0.329548   -1.104644
     14          8           0        2.658134   -1.435363    0.559698
     15          6           0        3.596971   -2.508999    0.387396
     16          7           0        2.130052    1.950159   -0.698329
     17          6           0        3.265969    2.603902   -0.043249
     18          1           0       -3.858929    1.625050    0.938285
     19          1           0       -5.443491    1.393880    1.684414
     20          1           0       -5.332763    1.903646   -0.007983
     21          1           0       -4.350086   -0.799203    1.082685
     22          1           0       -5.898068   -0.579655    0.270171
     23          1           0       -4.259774   -1.507184   -1.295562
     24          1           0       -4.746399    0.090683   -1.824913
     25          1           0       -2.312252   -0.247361   -2.088754
     26          1           0       -2.710223    1.120153   -1.046645
     27          1           0       -1.282418   -2.251775   -1.047164
     28          1           0       -1.073206   -2.266056    0.720390
     29          1           0       -2.683817   -2.431275    0.026785
     30          1           0       -1.014979    1.350956    0.193445
     31          1           0       -0.606646    0.400842    2.400624
     32          1           0        0.235499   -0.990943    1.698897
     33          1           0        2.079561    0.569347    2.096156
     34          1           0        1.094647    1.930411    1.537986
     35          1           0        0.561408   -0.912572   -1.083595
     36          1           0        0.271487    0.704240   -1.740353
     37          1           0        3.530423   -2.916220   -0.624889
     38          1           0        4.616900   -2.156552    0.560604
     39          1           0        3.319489   -3.262408    1.124861
     40          1           0        2.404081    1.750056   -1.659237
     41          1           0        4.160884    1.968565    0.046604
     42          1           0        3.534059    3.493208   -0.621671
     43          1           0        2.977280    2.938369    0.957896
 ---------------------------------------------------------------------

 SCF Done:  E(UB3LYP) =  -771.265615248     A.U. after   32 cycles

 The electronic state is 2-A.
 Alpha  occ. eigenvalues --  -19.07857 -19.02453 -14.21496 -14.21067 -10.20771
 Alpha  occ. eigenvalues --  -10.13162 -10.12761 -10.10687 -10.09966 -10.09941
 Alpha  occ. eigenvalues --  -10.08954 -10.07993 -10.07864 -10.07394 -10.07231
 Alpha  occ. eigenvalues --  -10.07109 -10.06846  -1.01885  -0.93239  -0.83756
 Alpha  occ. eigenvalues --   -0.82594  -0.73546  -0.69925  -0.65615  -0.63156
 Alpha  occ. eigenvalues --   -0.62945  -0.61574  -0.58267  -0.56690  -0.53396
 Alpha  occ. eigenvalues --   -0.51091  -0.48283  -0.46365  -0.45929  -0.42857
 Alpha  occ. eigenvalues --   -0.40938  -0.40484  -0.39563  -0.38644  -0.37946
 Alpha  occ. eigenvalues --   -0.37540  -0.35780  -0.35241  -0.34536  -0.34034
 Alpha  occ. eigenvalues --   -0.33313  -0.31998  -0.31349  -0.30447  -0.30061
 Alpha  occ. eigenvalues --   -0.29291  -0.29116  -0.28001  -0.27579  -0.26906
 Alpha  occ. eigenvalues --   -0.26360  -0.25811  -0.25629  -0.24498  -0.24307
 Alpha  occ. eigenvalues --   -0.23681  -0.23531  -0.22752  -0.21796  -0.19334
 Alpha  occ. eigenvalues --   -0.15071  -0.12128   0.04100
 Alpha virt. eigenvalues --    0.05575   0.06305   0.07052   0.07416   0.07706
 Alpha virt. eigenvalues --    0.08156   0.08735   0.09050   0.09239   0.09515
 Alpha virt. eigenvalues --    0.09835   0.10389   0.10542   0.10791   0.11914

  Beta  occ. eigenvalues --  -19.07851 -19.02445 -14.21489 -14.21059 -10.20770
  Beta  occ. eigenvalues --  -10.13162 -10.12708 -10.10685 -10.09953 -10.09933
  Beta  occ. eigenvalues --  -10.08928 -10.07982 -10.07855 -10.07379 -10.07220
  Beta  occ. eigenvalues --  -10.07100 -10.06829  -1.01872  -0.93225  -0.83740
  Beta  occ. eigenvalues --   -0.82582  -0.73534  -0.69900  -0.65582  -0.63133
  Beta  occ. eigenvalues --   -0.62912  -0.61532  -0.58231  -0.56657  -0.53358
  Beta  occ. eigenvalues --   -0.51048  -0.48251  -0.46329  -0.45891  -0.42836
  Beta  occ. eigenvalues --   -0.40918  -0.40465  -0.39537  -0.38620  -0.37917
  Beta  occ. eigenvalues --   -0.37514  -0.35761  -0.35211  -0.34514  -0.34006
  Beta  occ. eigenvalues --   -0.33284  -0.31974  -0.31327  -0.30422  -0.30036
  Beta  occ. eigenvalues --   -0.29266  -0.29088  -0.27976  -0.27557  -0.26879
  Beta  occ. eigenvalues --   -0.26340  -0.25793  -0.25611  -0.24480  -0.24281
  Beta  occ. eigenvalues --   -0.23660  -0.23512  -0.22729  -0.21774  -0.19322
  Beta  occ. eigenvalues --   -0.15054  -0.12092
  Beta virt. eigenvalues --    0.05877   0.06351   0.06897   0.07342   0.07759
  Beta virt. eigenvalues --    0.08062   0.08390   0.08757   0.09453   0.09678
  Beta virt. eigenvalues --    0.09720   0.10285   0.10595   0.10797   0.10943

 Mulliken charges and spin densities:
               1          2
     1  C    0.328255  -0.867987
     2  C   -0.420462   0.327293
     3  C    0.264859  -0.716117
     4  C   -0.183614   0.197476
     5  N    0.399075   0.086712
     6  C    0.527684  -0.875896
     7  C   -1.233297   0.184177
     8  C    0.206400  -0.560862
     9  C   -0.354232  -0.080883
    10  C    0.281485  -0.334516
    11  C   -0.443007   0.062918
    12  C   -0.347061   0.096040
    13  O   -0.189908   0.010485
    14  O   -0.055262   0.087250
    15  C    1.110749  -1.301697
    16  N   -0.006343   0.035907
    17  C    0.047405  -0.382433
    18  H    0.010231   0.145415
    19  H   -0.088243   0.218800
    20  H   -0.006781   0.130241
    21  H    0.149196  -0.032033
    22  H   -0.192150   0.348798
    23  H   -0.059092   0.207573
    24  H   -0.123025   0.272665
    25  H    0.049419   0.073860
    26  H    0.014822   0.132398
    27  H   -0.209875   0.338897
    28  H   -0.154567   0.289611
    29  H   -0.101204   0.259261
    30  H    0.210997  -0.070165
    31  H    0.002963   0.186303
    32  H    0.322255  -0.178457
    33  H   -0.150894   0.381568
    34  H    0.139132  -0.022669
    35  H    0.218242   0.009076
    36  H    0.009836   0.163974
    37  H   -0.270598   0.451394
    38  H   -0.309353   0.482676
    39  H   -0.609617   0.766359
    40  H    0.226664   0.039163
    41  H    0.044703   0.117998
    42  H    0.003247   0.129534
    43  H   -0.059035   0.189894
 Sum of Mulliken charges =  -1.00000   1.00000

 Dipole moment (field-independent basis, Debye):
    X=             -0.7137    Y=              4.7888    Z=             -0.7788  Tot=              4.9039
 Quadrupole moment (field-independent basis, Debye-Ang):
   XX=           -211.4027   YY=           -162.0535   ZZ=           -143.5556
   XY=             11.9469   XZ=             -3.3300   YZ=              1.3891

 Summary of Natural Population Analysis:

                                       Natural Population
                Natural  -----------------------------------------------
    Atom  No    Charge         Core      Valence    Rydberg      Total
 -----------------------------------------------------------------------
      C    1   -0.28620      0.99967     2.28198    0.00455     3.28620
      C    2   -0.19291      0.99964     2.18463    0.00864     3.19291
      C    3   -0.19323      0.99963     2.18495    0.00865     3.19323
      C    4   -0.08345      0.99961     2.07243    0.01142     3.08345
      N    5   -0.28214      0.99970     2.76991    0.01253     3.78214
      C    6   -0.18210      0.99963     2.17308    0.00939     3.18210
      C    7    0.00119      0.99956     1.98676    0.01249     2.99881
      C    8   -0.19268      0.99960     2.18410    0.00897     3.19268
      C    9   -0.19139      0.99960     2.18246    0.00933     3.19139
      C   10    0.02214      0.99952     1.96308    0.01526     2.97786
      C   11   -0.19350      0.99957     2.18504    0.00889     3.19350
      C   12    0.41151      0.99959     1.56167    0.02723     2.58849
      O   13   -0.31241      0.99987     3.30643    0.00611     4.31241
      O   14   -0.28084      0.99986     3.27124    0.00974     4.28084
      C   15   -0.10350      0.99959     2.09471    0.00920     3.10350
      N   16   -0.33544      0.99973     2.82469    0.01102     3.83544
      C   17   -0.18262      0.99965     2.17605    0.00691     3.18262
      H   18    0.09840      0.00000     0.40043    0.00116     0.40160
      H   19    0.09745      0.00000     0.40157    0.00098     0.40255
      H   20    0.09274      0.00000     0.40616    0.00110     0.40726
      H   21    0.09983      0.00000     0.39878    0.00139     0.40017
      H   22    0.09330      0.00000     0.40566    0.00104     0.40670
      H   23    0.09739      0.00000     0.40138    0.00123     0.40261
      H   24    0.09603      0.00000     0.40297    0.00100     0.40397
      H   25    0.08328      0.00000     0.41545    0.00126     0.41672
      H   26    0.09381      0.00000     0.40474    0.00146     0.40619
      H   27    0.08193      0.00000     0.41668    0.00139     0.41807
      H   28    0.09962      0.00000     0.39907    0.00131     0.40038
      H   29    0.09619      0.00000     0.40263    0.00118     0.40381
      H   30    0.09491      0.00000     0.40332    0.00177     0.40509
      H   31    0.10189      0.00000     0.39699    0.00111     0.39811
      H   32    0.10227      0.00000     0.39553    0.00219     0.39773
      H   33    0.10783      0.00000     0.39086    0.00131     0.39217
      H   34    0.10197      0.00000     0.39685    0.00119     0.39803
      H   35    0.10439      0.00000     0.39384    0.00176     0.39561
      H   36    0.10561      0.00000     0.39307    0.00133     0.39439
      H   37    0.09209      0.00000     0.40647    0.00145     0.40791
      H   38    0.09190      0.00000     0.40642    0.00168     0.40810
      H   39    0.09610      0.00000     0.40161    0.00229     0.40390
      H   40    0.17719      0.00000     0.31995    0.00286     0.32281
      H   41    0.08685      0.00000     0.41147    0.00168     0.41315
      H   42    0.09356      0.00000     0.40560    0.00084     0.40644
      H   43    0.09105      0.00000     0.40777    0.00118     0.40895
 =======================================================================
   * Total *   -0.00000     16.99403    49.78851    0.21747    67.00000

 Normal termination of Gaussian 16 at Sun Dec 13 17:56:22 2020.
