 Gaussian 16, Revision A.03,

 -----------------------------------------------------------
 # opt freq B3LYP/6-31G(d) empiricaldispersion=gd3bj scf=xqc
 -----------------------------------------------------------

 ------------------------------
 CID_12063363_JID_5157_neutraal
 ------------------------------
 Symbolic Z-matrix:
 Charge =  0 Multiplicity = 1

 SCF Done:  E(RB3LYP) =  -687.714222246     A.U. after   15 cycles
 SCF Done:  E(RB3LYP) =  -687.726521464     A.U. after   14 cycles
 SCF Done:  E(RB3LYP) =  -687.728755691     A.U. after   13 cycles
 SCF Done:  E(RB3LYP) =  -687.729617605     A.U. after   13 cycles
 SCF Done:  E(RB3LYP) =  -687.729798080     A.U. after   15 cycles
 SCF Done:  E(RB3LYP) =  -687.730106477     A.U. after   12 cycles
 SCF Done:  E(RB3LYP) =  -687.730122061     A.U. after   10 cycles
 SCF Done:  E(RB3LYP) =  -687.730125602     A.U. after    9 cycles
 SCF Done:  E(RB3LYP) =  -687.730127747     A.U. after    9 cycles
 SCF Done:  E(RB3LYP) =  -687.730128884     A.U. after    9 cycles
 SCF Done:  E(RB3LYP) =  -687.730129055     A.U. after    8 cycles
 SCF Done:  E(RB3LYP) =  -687.730129191     A.U. after    8 cycles
 Optimization completed.
    -- Stationary point found.

 1\1\GINC-NODE226\FOpt\RB3LYP\6-31G(d)\C12H8O3\VSC10255\10-Dec-2020\0\\
 # opt freq B3LYP/6-31G(d) empiricaldispersion=gd3bj scf=xqc\\CID_12063
 363_JID_5157_neutraal\\0,1\C,-0.6052442204,-1.3017102422,0.0124138464\
 C,-1.3298608312,-0.1623159208,-0.3873629748\C,-0.7096858596,1.07393269
 ,-0.6073554376\C,0.6620000468,1.1056188173,-0.4041866075\C,1.384459474
 3,-0.0234680122,0.0016724664\C,0.7762841274,-1.2595487176,0.2161194526
 \C,2.6757962427,0.7354568829,0.018782234\O,3.8237251359,0.5260763153,0
 .3078293968\C,1.8657203582,2.0369580186,-0.4837824151\C,2.2215605145,2

 Normal termination of Gaussian 16 at Thu Dec 10 14:46:09 2020.

 --------------------------------------------------------------------
 #N Geom=AllCheck Guess=TCheck SCRF=Check GenChk RB3LYP/6-31G(d) Freq
 --------------------------------------------------------------------

 Structure from the checkpoint file:  "JID_5157.chk"
 ------------------------------
 CID_12063363_JID_5157_neutraal
 ------------------------------
 Charge =  0 Multiplicity = 1

 SCF Done:  E(RB3LYP) =  -687.730129191     A.U. after    1 cycles

  Exact polarizability: 170.648 -13.611 118.952  -8.369  -6.782  83.244
 Approx polarizability: 241.264 -33.557 219.061 -19.502 -17.623 145.461

                      1                      2                      3
                      A                      A                      A
 Frequencies --     44.9635                58.8341                74.0391
 Red. masses --      4.7255                 5.0775                 5.4333
 Frc consts  --      0.0056                 0.0104                 0.0175
 IR Inten    --      0.1414                 0.8269                 1.0185

                      4                      5                      6
                      A                      A                      A
 Frequencies --    112.2611               184.1270               202.4718
 Red. masses --      6.4006                 4.6568                 4.5194
 Frc consts  --      0.0475                 0.0930                 0.1092
 IR Inten    --      1.0150                 4.8639                 8.2668

                      7                      8                      9
                      A                      A                      A
 Frequencies --    236.5420               274.2150               289.6798
 Red. masses --      7.1388                 4.4247                 2.4796
 Frc consts  --      0.2353                 0.1960                 0.1226
 IR Inten    --      2.8127                 9.1826                37.4288

                     10                     11                     12
                      A                      A                      A
 Frequencies --    321.8729               380.0860               415.7266
 Red. masses --      2.0805                 5.6210                 3.4052
 Frc consts  --      0.1270                 0.4784                 0.3467
 IR Inten    --     59.7940                23.7323                 5.3130

                     13                     14                     15
                      A                      A                      A
 Frequencies --    475.2451               535.0381               558.3715
 Red. masses --      5.2375                 5.5163                 5.8411
 Frc consts  --      0.6970                 0.9304                 1.0730
 IR Inten    --      1.5811                 7.9975                 5.1325

                     16                     17                     18
                      A                      A                      A
 Frequencies --    609.0902               636.9190               668.4748
 Red. masses --      3.3532                 5.8180                 6.4015
 Frc consts  --      0.7330                 1.3906                 1.6854
 IR Inten    --      3.6390                 6.5090                 5.9693

                     19                     20                     21
                      A                      A                      A
 Frequencies --    712.2690               724.3808               737.0162
 Red. masses --      4.2206                 4.9832                 1.4949
 Frc consts  --      1.2616                 1.5406                 0.4784
 IR Inten    --      6.8988                12.7671                34.5856

                     22                     23                     24
                      A                      A                      A
 Frequencies --    775.0717               793.9889               814.4018
 Red. masses --      1.6759                 2.3915                 1.5650
 Frc consts  --      0.5932                 0.8883                 0.6116
 IR Inten    --     34.1649                10.5783                14.1748

                     25                     26                     27
                      A                      A                      A
 Frequencies --    844.0405               868.1166               889.5422
 Red. masses --      4.8388                 1.3951                 2.8841
 Frc consts  --      2.0310                 0.6195                 1.3446
 IR Inten    --     20.5859                 6.6459                23.4743

                     28                     29                     30
                      A                      A                      A
 Frequencies --    897.4178               909.2793               924.0238
 Red. masses --      1.6851                 5.7137                 5.9996
 Frc consts  --      0.7996                 2.7833                 3.0181
 IR Inten    --     17.0517                 6.5800                40.4511

                     31                     32                     33
                      A                      A                      A
 Frequencies --    960.1382               995.9252              1001.2963
 Red. masses --      1.3869                 3.8416                 1.3105
 Frc consts  --      0.7533                 2.2450                 0.7741
 IR Inten    --      0.6338                17.5438                 0.6325

                     34                     35                     36
                      A                      A                      A
 Frequencies --   1032.0333              1042.3701              1083.6931
 Red. masses --      2.1460                 1.3952                 4.1545
 Frc consts  --      1.3467                 0.8931                 2.8746
 IR Inten    --      0.4890                15.3400                20.1986

                     37                     38                     39
                      A                      A                      A
 Frequencies --   1115.2338              1137.7608              1170.5993
 Red. masses --      3.3201                 2.8049                 1.6704
 Frc consts  --      2.4329                 2.1393                 1.3486
 IR Inten    --     11.0965                28.0774                33.3443

                     40                     41                     42
                      A                      A                      A
 Frequencies --   1184.7080              1192.1961              1216.6708
 Red. masses --      1.9864                 1.6188                 2.1327
 Frc consts  --      1.6426                 1.3556                 1.8601
 IR Inten    --     65.2584                21.7457                64.2349

                     43                     44                     45
                      A                      A                      A
 Frequencies --   1253.1436              1269.2537              1308.7432
 Red. masses --      2.5674                 2.1754                 1.5409
 Frc consts  --      2.3755                 2.0648                 1.5550
 IR Inten    --     14.0461                 7.4734                 8.7707

                     46                     47                     48
                      A                      A                      A
 Frequencies --   1364.4674              1414.0750              1441.0885
 Red. masses --      3.0267                 2.4753                 2.7035
 Frc consts  --      3.3201                 2.9162                 3.3079
 IR Inten    --     35.8988                30.0241                36.9817

                     49                     50                     51
                      A                      A                      A
 Frequencies --   1491.7387              1512.7552              1546.3973
 Red. masses --      2.3098                 2.4485                 5.1919
 Frc consts  --      3.0284                 3.3013                 7.3151
 IR Inten    --      0.6064                 9.5337                 7.3727

                     52                     53                     54
                      A                      A                      A
 Frequencies --   1642.8118              1647.7775              1655.4670
 Red. masses --      6.3150                 6.4512                 6.9100
 Frc consts  --     10.0416                10.3201                11.1576
 IR Inten    --      5.8783                24.3921                 7.5346

                     55                     56                     57
                      A                      A                      A
 Frequencies --   1883.2372              3189.1915              3203.0212
 Red. masses --     13.0892                 1.0866                 1.0905
 Frc consts  --     27.3511                 6.5115                 6.5917
 IR Inten    --    393.3133                 1.8544                14.2533

                     58                     59                     60
                      A                      A                      A
 Frequencies --   3218.2666              3221.2054              3268.9242
 Red. masses --      1.0938                 1.0956                 1.0910
 Frc consts  --      6.6749                 6.6979                 6.8686
 IR Inten    --     14.7910                13.8042                 5.3196

                     61                     62                     63
                      A                      A                      A
 Frequencies --   3282.3116              3306.9044              3728.4249
 Red. masses --      1.0978                 1.1046                 1.0655
 Frc consts  --      6.9683                 7.1172                 8.7270
 IR Inten    --      0.7552                 0.9017                38.9680

 - Thermochemistry -
 -------------------
 Temperature   298.150 Kelvin.  Pressure   1.00000 Atm.
 Atom     1 has atomic number  6 and mass  12.00000

 Molecular mass:   200.04734 amu.
 Principal axes and moments of inertia in atomic units:
                           1         2         3
     Eigenvalues --  1560.350813985.731644530.44911
           X            0.99999  -0.00394  -0.00081
           Y            0.00396   0.99991   0.01319
           Z            0.00076  -0.01319   0.99991
 This molecule is an asymmetric top.
 Rotational symmetry number  1.
 Warning -- assumption of classical behavior for rotation
           may cause significant error
 Rotational temperatures (Kelvin)      0.05551     0.02173     0.01912
 Rotational constants (GHZ):           1.15663     0.45280     0.39836
 Zero-point vibrational energy     448296.6 (Joules/Mol)
                                  107.14546 (Kcal/Mol)
 Warning -- explicit consideration of  16 degrees of freedom as
           vibrations may cause significant error
 Vibrational temperatures:     64.69    84.65   106.53   161.52   264.92
          (Kelvin)            291.31   340.33   394.53   416.78   463.10
                              546.86   598.14   683.77   769.80   803.37
                              876.34   916.38   961.79  1024.80  1042.22
                             1060.40  1115.16  1142.37  1171.74  1214.39
                             1249.03  1279.85  1291.18  1308.25  1329.46
                             1381.42  1432.91  1440.64  1484.87  1499.74
                             1559.19  1604.57  1636.98  1684.23  1704.53
                             1715.30  1750.52  1802.99  1826.17  1882.99
                             1963.16  2034.54  2073.40  2146.28  2176.52
                             2224.92  2363.64  2370.78  2381.85  2709.56
                             4588.54  4608.43  4630.37  4634.60  4703.25
                             4722.51  4757.90  5364.37

 Zero-point correction=                           0.170747 (Hartree/Particle)
 Thermal correction to Energy=                    0.182633
 Thermal correction to Enthalpy=                  0.183577
 Thermal correction to Gibbs Free Energy=         0.131709
 Sum of electronic and zero-point Energies=           -687.559382
 Sum of electronic and thermal Energies=              -687.547496
 Sum of electronic and thermal Enthalpies=            -687.546552
 Sum of electronic and thermal Free Energies=         -687.598420

                     E (Thermal)             CV                S
                      KCal/Mol        Cal/Mol-Kelvin    Cal/Mol-Kelvin
 Total                  114.604             45.852            109.165
 Electronic               0.000              0.000              0.000
 Translational            0.889              2.981             41.785
 Rotational               0.889              2.981             31.711
 Vibrational            112.826             39.890             35.669
 Vibration     1          0.595              1.979              5.027
 Vibration     2          0.596              1.974              4.496
 Vibration     3          0.599              1.966              4.043
 Vibration     4          0.607              1.939              3.229
 Vibration     5          0.631              1.861              2.286
 Vibration     6          0.639              1.836              2.111
 Vibration     7          0.655              1.785              1.829
 Vibration     8          0.677              1.721              1.569
 Vibration     9          0.686              1.693              1.476
 Vibration    10          0.707              1.632              1.301
 Vibration    11          0.750              1.513              1.039
 Vibration    12          0.779              1.436              0.907
 Vibration    13          0.832              1.305              0.723
 Vibration    14          0.890              1.173              0.576
 Vibration    15          0.914              1.121              0.527
 Vibration    16          0.968              1.013              0.434

 Optimization completed.
    -- Stationary point found.

 1\1\GINC-NODE226\Freq\RB3LYP\6-31G(d)\C12H8O3\VSC10255\10-Dec-2020\0\\
 #N Geom=AllCheck Guess=TCheck SCRF=Check GenChk RB3LYP/6-31G(d) Freq\\
 CID_12063363_JID_5157_neutraal\\0,1\C,-0.6052442204,-1.3017102422,0.01
 24138464\C,-1.3298608312,-0.1623159208,-0.3873629748\C,-0.7096858596,1
 .07393269,-0.6073554376\C,0.6620000468,1.1056188173,-0.4041866075\C,1.
 3844594743,-0.0234680122,0.0016724664\C,0.7762841274,-1.2595487176,0.2
 161194526\C,2.6757962427,0.7354568829,0.018782234\O,3.8237251359,0.526
 0763153,0.3078293968\C,1.8657203582,2.0369580186,-0.4837824151\C,2.221

 Normal termination of Gaussian 16 at Thu Dec 10 14:52:45 2020.

 ----------------------------------------------------------------------
 # B3LYP/6-311++G(d,p) empiricaldispersion=gd3bj scf=xqc pop=npa geom=c
 heck
 ----------------------------------------------------------------------

 --------------------------------------
 CID_12063363_JID_5157_Energie_neutraal
 --------------------------------------
 Structure from the checkpoint file:  "JID_5157.chk"
 Charge =  0 Multiplicity = 1

 SCF Done:  E(RB3LYP) =  -687.924847491     A.U. after   15 cycles
 Normal termination of Gaussian 16 at Thu Dec 10 14:55:23 2020.

 ----------------------------------------------------------------------
 # B3LYP/6-311++G(d,p) empiricaldispersion=gd3bj scf=xqc pop=npa geom=c
 heck
 ----------------------------------------------------------------------

 ------------------------------------
 CID_12063363_JID_5157_Energie_kation
 ------------------------------------
 Structure from the checkpoint file:  "JID_5157.chk"
 Charge =  1 Multiplicity = 2

 SCF Done:  E(UB3LYP) =  -687.627637121     A.U. after   24 cycles
 Normal termination of Gaussian 16 at Thu Dec 10 15:01:05 2020.
 Gaussian 16:  ES64L-G16RevA.03 25-Dec-2016

 -----------------------------------
 CID_12063363_JID_5157_Energie_anion
 -----------------------------------
 Structure from the checkpoint file:  "JID_5157.chk"
 Charge = -1 Multiplicity = 2

                         Standard orientation:
 ---------------------------------------------------------------------
 Center     Atomic      Atomic             Coordinates (Angstroms)
 Number     Number       Type             X           Y           Z
 ---------------------------------------------------------------------
      1          6           0        3.556840   -0.606155   -0.533935
      2          6           0        3.001137   -1.531438    0.370586
      3          6           0        1.716314   -1.370064    0.903984
      4          6           0        1.027358   -0.240688    0.487266
      5          6           0        1.580283    0.686000   -0.405498
      6          6           0        2.855599    0.529546   -0.946655
      7          6           0        0.356702    1.548925   -0.360556
      8          8           0       -0.003425    2.601438   -0.816247
      9          6           0       -0.310190    0.473613    0.640273
     10          6           0       -1.483274   -0.250241    0.079424
     11          6           0       -1.641766   -1.347212   -0.714933
     12          6           0       -3.050250   -1.469002   -0.963981
     13          6           0       -3.645150   -0.437218   -0.306898
     14          8           0       -2.703946    0.321489    0.332432
     15          8           0       -0.544483    0.964417    1.943122
     16          1           0        4.558763   -0.784954   -0.913998
     17          1           0        3.592012   -2.396501    0.659058
     18          1           0        1.298186   -2.090664    1.599472
     19          1           0        3.288345    1.242570   -1.641052
     20          1           0       -0.851752   -1.989627   -1.075725
     21          1           0       -3.546757   -2.228490   -1.551152
     22          1           0       -4.666993   -0.112814   -0.187285
     23          1           0       -1.438581    1.345333    1.941773
 ---------------------------------------------------------------------

 SCF Done:  E(UB3LYP) =  -687.942222400     A.U. after   28 cycles

 The electronic state is 2-A.
 Alpha  occ. eigenvalues --  -19.07697 -18.99824 -18.93413 -10.11171 -10.10845
 Alpha  occ. eigenvalues --  -10.10116 -10.07248 -10.06756 -10.05281 -10.03633
 Alpha  occ. eigenvalues --  -10.03258 -10.02484 -10.02350 -10.01858 -10.01640
 Alpha  occ. eigenvalues --   -1.00136  -0.90450  -0.87122  -0.72855  -0.69097
 Alpha  occ. eigenvalues --   -0.66559  -0.63321  -0.60361  -0.53761  -0.49554
 Alpha  occ. eigenvalues --   -0.49160  -0.45238  -0.43848  -0.42636  -0.39985
 Alpha  occ. eigenvalues --   -0.36247  -0.35536  -0.33882  -0.32174  -0.31634
 Alpha  occ. eigenvalues --   -0.30151  -0.29468  -0.28267  -0.27883  -0.26981
 Alpha  occ. eigenvalues --   -0.26161  -0.24956  -0.23253  -0.21338  -0.20469
 Alpha  occ. eigenvalues --   -0.18851  -0.17558  -0.17015  -0.12496  -0.12016
 Alpha  occ. eigenvalues --   -0.11595  -0.07334   0.04377
 Alpha virt. eigenvalues --    0.07724   0.09112   0.09595   0.10419   0.10646
 Alpha virt. eigenvalues --    0.11087   0.12186   0.12606   0.12885   0.13424
 Alpha virt. eigenvalues --    0.15264   0.15417   0.16257   0.16695   0.17015

  Beta  occ. eigenvalues --  -19.07667 -18.99785 -18.92907 -10.11122 -10.10842
  Beta  occ. eigenvalues --  -10.10141 -10.06916 -10.06769 -10.05250 -10.03749
  Beta  occ. eigenvalues --  -10.03247 -10.02340 -10.02039 -10.01620 -10.01483
  Beta  occ. eigenvalues --   -1.00083  -0.90328  -0.86226  -0.72499  -0.69044
  Beta  occ. eigenvalues --   -0.66275  -0.63079  -0.59796  -0.53551  -0.49385
  Beta  occ. eigenvalues --   -0.48655  -0.45077  -0.43782  -0.42463  -0.39633
  Beta  occ. eigenvalues --   -0.36134  -0.35294  -0.33642  -0.31833  -0.31573
  Beta  occ. eigenvalues --   -0.29804  -0.29419  -0.28020  -0.27740  -0.26858
  Beta  occ. eigenvalues --   -0.25820  -0.24198  -0.22401  -0.20270  -0.19598
  Beta  occ. eigenvalues --   -0.18527  -0.17404  -0.16707  -0.12194  -0.10899
  Beta  occ. eigenvalues --   -0.09862  -0.06959
  Beta virt. eigenvalues --    0.07703   0.09073   0.09557   0.10056   0.10557
  Beta virt. eigenvalues --    0.11015   0.11650   0.12261   0.12589   0.13067
  Beta virt. eigenvalues --    0.13392   0.15289   0.15641   0.16293   0.16756

 Mulliken charges and spin densities:
               1          2
     1  C   -0.279362  -0.076362
     2  C   -0.339134   0.249856
     3  C   -0.251141   0.086725
     4  C    0.969209   0.010655
     5  C    0.091551   0.014179
     6  C   -0.360153   0.350441
     7  C   -0.423164   0.164256
     8  O   -0.403015   0.179948
     9  C   -0.114420  -0.072807
    10  C   -0.724897   0.047309
    11  C    0.292049   0.055541
    12  C   -0.466728  -0.027270
    13  C    0.005186   0.056092
    14  O   -0.033886   0.003702
    15  O   -0.143885  -0.003356
    16  H    0.105685   0.006634
    17  H    0.111463  -0.020213
    18  H    0.126027  -0.009298
    19  H    0.136514  -0.020504
    20  H    0.178974   0.004080
    21  H    0.132199   0.000525
    22  H    0.144839  -0.001181
    23  H    0.246090   0.001048
 Sum of Mulliken charges =  -1.00000   1.00000

 Dipole moment (field-independent basis, Debye):
    X=             -3.8521    Y=             -4.2296    Z=              0.1179  Tot=              5.7221
 Quadrupole moment (field-independent basis, Debye-Ang):
   XX=           -105.0068   YY=           -108.3592   ZZ=            -99.5907
   XY=              1.1507   XZ=             -1.8946   YZ=              5.2359

 Summary of Natural Population Analysis:

                                       Natural Population
                Natural  -----------------------------------------------
    Atom  No    Charge         Core      Valence    Rydberg      Total
 -----------------------------------------------------------------------
      C    1   -0.13286      0.99959     2.12371    0.00957     3.13286
      C    2   -0.05135      0.99962     2.03808    0.01365     3.05135
      C    3   -0.06951      0.99950     2.06507    0.00494     3.06951
      C    4   -0.00132      0.99947     1.98747    0.01437     3.00132
      C    5   -0.05988      0.99939     2.04983    0.01066     3.05988
      C    6   -0.02848      0.99953     2.01968    0.00927     3.02848
      C    7    0.33150      0.99961     1.64461    0.02428     2.66850
      O    8   -0.24482      0.99986     3.23690    0.00806     4.24482
      C    9    0.06179      0.99939     1.91749    0.02133     2.93821
      C   10    0.15807      0.99943     1.82689    0.01561     2.84193
      C   11   -0.14859      0.99951     2.14162    0.00746     3.14859
      C   12   -0.15679      0.99958     2.14896    0.00825     3.15679
      C   13    0.05342      0.99952     1.93273    0.01433     2.94658
      O   14   -0.24197      0.99986     3.23299    0.00912     4.24197
      O   15   -0.36129      0.99989     3.35416    0.00724     4.36129
      H   16    0.08906      0.00000     0.40983    0.00110     0.41094
      H   17    0.08574      0.00000     0.41354    0.00072     0.41426
      H   18    0.09063      0.00000     0.40771    0.00166     0.40937
      H   19    0.09186      0.00000     0.40704    0.00110     0.40814
      H   20    0.11383      0.00000     0.38537    0.00080     0.38617
      H   21    0.10210      0.00000     0.39706    0.00084     0.39790
      H   22    0.08904      0.00000     0.40999    0.00097     0.41096
      H   23    0.22988      0.00000     0.26792    0.00219     0.27012
 =======================================================================
   * Total *    0.00006     14.99375    36.81869    0.18750    51.99994

 Normal termination of Gaussian 16 at Thu Dec 10 15:08:28 2020.
