 Gaussian 16, Revision A.03,

 -----------------------------------------------------------
 # opt freq B3LYP/6-31G(d) empiricaldispersion=gd3bj scf=xqc
 -----------------------------------------------------------

 ------------------------------
 CID_88770380_JID_1824_neutraal
 ------------------------------
 Symbolic Z-matrix:
 Charge =  0 Multiplicity = 1

 SCF Done:  E(RB3LYP) =  -552.524534314     A.U. after   15 cycles
 SCF Done:  E(RB3LYP) =  -552.544518835     A.U. after   13 cycles
 SCF Done:  E(RB3LYP) =  -552.546121410     A.U. after   14 cycles
 SCF Done:  E(RB3LYP) =  -552.540730301     A.U. after   14 cycles
 SCF Done:  E(RB3LYP) =  -552.545184258     A.U. after   13 cycles
 SCF Done:  E(RB3LYP) =  -552.546324841     A.U. after   11 cycles
 SCF Done:  E(RB3LYP) =  -552.546389810     A.U. after   12 cycles
 SCF Done:  E(RB3LYP) =  -552.546446315     A.U. after   12 cycles
 SCF Done:  E(RB3LYP) =  -552.546583577     A.U. after   11 cycles
 SCF Done:  E(RB3LYP) =  -552.546617658     A.U. after   12 cycles
 SCF Done:  E(RB3LYP) =  -552.546644484     A.U. after   10 cycles
 SCF Done:  E(RB3LYP) =  -552.546649676     A.U. after    9 cycles
 SCF Done:  E(RB3LYP) =  -552.546650199     A.U. after    9 cycles
 SCF Done:  E(RB3LYP) =  -552.546650394     A.U. after    8 cycles
 SCF Done:  E(RB3LYP) =  -552.546650468     A.U. after    8 cycles
 Optimization completed.
    -- Stationary point found.
 Normal termination of Gaussian 16 at Tue Dec  8 21:29:06 2020.

 --------------------------------------------------------------------
 #N Geom=AllCheck Guess=TCheck SCRF=Check GenChk RB3LYP/6-31G(d) Freq
 --------------------------------------------------------------------

 Structure from the checkpoint file:  "JID_1824.chk"
 ------------------------------
 CID_88770380_JID_1824_neutraal
 ------------------------------
 Charge =  0 Multiplicity = 1

 SCF Done:  E(RB3LYP) =  -552.546650468     A.U. after    1 cycles

  Exact polarizability:  82.016  -3.421  88.093  -1.308  -9.086  71.978
 Approx polarizability: 108.264  -7.229 135.463  -3.859 -25.458 116.595

                      1                      2                      3
                      A                      A                      A
 Frequencies --     39.5766                49.4004                90.0470
 Red. masses --      5.4482                 5.5632                 3.1207
 Frc consts  --      0.0050                 0.0080                 0.0149
 IR Inten    --      3.1444                 0.2935                 0.6873

                      4                      5                      6
                      A                      A                      A
 Frequencies --     96.0423               128.0432               145.8978
 Red. masses --      4.8748                 3.6316                 3.5943
 Frc consts  --      0.0265                 0.0351                 0.0451
 IR Inten    --      0.8453                 1.1692                 0.6936

                      7                      8                      9
                      A                      A                      A
 Frequencies --    222.9260               227.6494               270.6140
 Red. masses --      3.0060                 1.5799                 3.9075
 Frc consts  --      0.0880                 0.0482                 0.1686
 IR Inten    --      2.6280                67.3918                 5.7619

                     10                     11                     12
                      A                      A                      A
 Frequencies --    284.2577               359.1963               421.3622
 Red. masses --      4.0389                 4.9694                 4.0539
 Frc consts  --      0.1923                 0.3778                 0.4241
 IR Inten    --      7.3245                28.4505                 2.1018

                     13                     14                     15
                      A                      A                      A
 Frequencies --    487.5512               494.4061               528.8973
 Red. masses --      3.0246                 4.9885                 1.9878
 Frc consts  --      0.4236                 0.7184                 0.3276
 IR Inten    --      2.6739                 2.8151                18.7119

                     16                     17                     18
                      A                      A                      A
 Frequencies --    574.0537               614.3306               630.1216
 Red. masses --      3.8670                 1.5642                 2.0614
 Frc consts  --      0.7508                 0.3478                 0.4822
 IR Inten    --     43.5013                29.5546                33.8434

                     19                     20                     21
                      A                      A                      A
 Frequencies --    641.1764               689.1401               733.4197
 Red. masses --      1.3744                 1.4608                 3.4905
 Frc consts  --      0.3329                 0.4087                 1.1062
 IR Inten    --     46.1976                98.7895                 5.4226

                     22                     23                     24
                      A                      A                      A
 Frequencies --    786.1822               854.6775               887.5109
 Red. masses --      3.7136                 2.8315                 2.3104
 Frc consts  --      1.3524                 1.2186                 1.0722
 IR Inten    --      6.5093                 8.5971                 2.4819

                     25                     26                     27
                      A                      A                      A
 Frequencies --    946.6542               968.9337              1009.6168
 Red. masses --      2.1791                 2.0015                 2.4947
 Frc consts  --      1.1505                 1.1071                 1.4983
 IR Inten    --      5.5779               268.3914                 6.6941

                     28                     29                     30
                      A                      A                      A
 Frequencies --   1081.3739              1124.9639              1156.9144
 Red. masses --      2.5420                 2.4144                 1.6424
 Frc consts  --      1.7514                 1.8002                 1.2952
 IR Inten    --     11.3290                26.3662               120.1265

                     31                     32                     33
                      A                      A                      A
 Frequencies --   1175.1323              1189.7030              1247.5716
 Red. masses --      2.1298                 1.9451                 1.1626
 Frc consts  --      1.7328                 1.6221                 1.0661
 IR Inten    --     21.3927               199.6993                 5.7966

                     34                     35                     36
                      A                      A                      A
 Frequencies --   1259.2728              1326.5869              1346.6667
 Red. masses --      1.6449                 1.5009                 1.4982
 Frc consts  --      1.5368                 1.5562                 1.6008
 IR Inten    --     12.7222                 2.2982                12.4468

                     37                     38                     39
                      A                      A                      A
 Frequencies --   1382.8708              1407.7531              1432.0747
 Red. masses --      1.4376                 1.2408                 2.0656
 Frc consts  --      1.6197                 1.4488                 2.4959
 IR Inten    --      1.8377                 3.4725                74.7938

                     40                     41                     42
                      A                      A                      A
 Frequencies --   1471.4746              1483.7544              1713.5923
 Red. masses --      1.1023                 1.1510                 1.0832
 Frc consts  --      1.4062                 1.4930                 1.8741
 IR Inten    --     14.9216                24.1461                17.7316

                     43                     44                     45
                      A                      A                      A
 Frequencies --   1809.7994              1837.6619              2242.9187
 Red. masses --     11.6005                 9.7056                 5.9732
 Frc consts  --     22.3867                19.3110                17.7045
 IR Inten    --    147.0459               250.1660                 0.5459

                     46                     47                     48
                      A                      A                      A
 Frequencies --   3032.5734              3034.2369              3085.5698
 Red. masses --      1.0778                 1.0746                 1.0623
 Frc consts  --      5.8402                 5.8292                 5.9588
 IR Inten    --     11.0639                14.5925                 5.8952

                     49                     50                     51
                      A                      A                      A
 Frequencies --   3116.9222              3138.8120              3464.0057
 Red. masses --      1.0904                 1.1011                 1.0504
 Frc consts  --      6.2413                 6.3917                 7.4260
 IR Inten    --      5.1295                 3.5007                 0.3879

                     52                     53                     54
                      A                      A                      A
 Frequencies --   3495.7580              3540.3510              3682.7966
 Red. masses --      1.1606                 1.0906                 1.0640
 Frc consts  --      8.3561                 8.0539                 8.5021
 IR Inten    --     61.8679                 0.3586                52.8838

 - Thermochemistry -
 -------------------
 Temperature   298.150 Kelvin.  Pressure   1.00000 Atm.
 Atom     1 has atomic number  6 and mass  12.00000

 Molecular mass:   155.05824 amu.
 Principal axes and moments of inertia in atomic units:
                           1         2         3
     Eigenvalues --  1277.776512132.637552611.71624
           X            0.99986  -0.00642  -0.01572
           Y            0.00642   0.99998   0.00021
           Z            0.01572  -0.00031   0.99988
 This molecule is an asymmetric top.
 Rotational symmetry number  1.
 Warning -- assumption of classical behavior for rotation
           may cause significant error
 Rotational temperatures (Kelvin)      0.06778     0.04061     0.03316
 Rotational constants (GHZ):           1.41241     0.84625     0.69102
 Zero-point vibrational energy     409498.5 (Joules/Mol)
                                   97.87248 (Kcal/Mol)
 Warning -- explicit consideration of  17 degrees of freedom as
           vibrations may cause significant error
 Vibrational temperatures:     56.94    71.08   129.56   138.18   184.23
          (Kelvin)            209.91   320.74   327.54   389.35   408.98
                              516.80   606.25   701.48   711.34   760.97
                              825.94   883.88   906.60   922.51   991.52
                             1055.23  1131.14  1229.69  1276.93  1362.02
                             1394.08  1452.61  1555.86  1618.57  1664.54
                             1690.75  1711.72  1794.98  1811.81  1908.66
                             1937.55  1989.64  2025.44  2060.44  2117.12
                             2134.79  2465.48  2603.90  2643.99  3227.06
                             4363.20  4365.59  4439.45  4484.56  4516.05
                             4983.93  5029.62  5093.78  5298.72

 Zero-point correction=                           0.155970 (Hartree/Particle)
 Thermal correction to Energy=                    0.167914
 Thermal correction to Enthalpy=                  0.168858
 Thermal correction to Gibbs Free Energy=         0.117123
 Sum of electronic and zero-point Energies=           -552.390681
 Sum of electronic and thermal Energies=              -552.378737
 Sum of electronic and thermal Enthalpies=            -552.377793
 Sum of electronic and thermal Free Energies=         -552.429527

                     E (Thermal)             CV                S
                      KCal/Mol        Cal/Mol-Kelvin    Cal/Mol-Kelvin
 Total                  105.367             42.387            108.884
 Electronic               0.000              0.000              0.000
 Translational            0.889              2.981             41.025
 Rotational               0.889              2.981             30.344
 Vibrational            103.590             36.426             37.515
 Vibration     1          0.594              1.981              5.280
 Vibration     2          0.595              1.978              4.841
 Vibration     3          0.602              1.956              3.659
 Vibration     4          0.603              1.952              3.533
 Vibration     5          0.611              1.925              2.975
 Vibration     6          0.617              1.907              2.725
 Vibration     7          0.649              1.806              1.935
 Vibration     8          0.651              1.799              1.897
 Vibration     9          0.674              1.727              1.592
 Vibration    10          0.683              1.703              1.508
 Vibration    11          0.734              1.556              1.126
 Vibration    12          0.784              1.424              0.887
 Vibration    13          0.843              1.278              0.690
 Vibration    14          0.850              1.262              0.672
 Vibration    15          0.884              1.186              0.590
 Vibration    16          0.930              1.087              0.497
 Vibration    17          0.974              1.002              0.426

                           ! Non-Optimized Parameters !
 Normal termination of Gaussian 16 at Tue Dec  8 21:33:17 2020.

 ----------------------------------------------------------------------
 # B3LYP/6-311++G(d,p) empiricaldispersion=gd3bj scf=xqc pop=npa geom=c
 heck
 ----------------------------------------------------------------------

 --------------------------------------
 CID_88770380_JID_1824_Energie_neutraal
 --------------------------------------
 Structure from the checkpoint file:  "JID_1824.chk"
 Charge =  0 Multiplicity = 1

 SCF Done:  E(RB3LYP) =  -552.729747931     A.U. after   15 cycles
 Normal termination of Gaussian 16 at Tue Dec  8 21:37:00 2020.

 ----------------------------------------------------------------------
 # B3LYP/6-311++G(d,p) empiricaldispersion=gd3bj scf=xqc pop=npa geom=c
 heck
 ----------------------------------------------------------------------

 ------------------------------------
 CID_88770380_JID_1824_Energie_kation
 ------------------------------------
 Structure from the checkpoint file:  "JID_1824.chk"
 Charge =  1 Multiplicity = 2

 SCF Done:  E(UB3LYP) =  -552.407703621     A.U. after   22 cycles
 Normal termination of Gaussian 16 at Tue Dec  8 21:43:29 2020.
 Gaussian 16:  ES64L-G16RevA.03 25-Dec-2016

 ----------------------------------------------------------------------
 # B3LYP/6-311++G(d,p) empiricaldispersion=gd3bj scf=xqc pop=npa geom=c
 heck
 ----------------------------------------------------------------------

 -----------------------------------
 CID_88770380_JID_1824_Energie_anion
 -----------------------------------
 Structure from the checkpoint file:  "JID_1824.chk"
 Charge = -1 Multiplicity = 2

                         Standard orientation:
 ---------------------------------------------------------------------
 Center     Atomic      Atomic             Coordinates (Angstroms)
 Number     Number       Type             X           Y           Z
 ---------------------------------------------------------------------
      1          6           0       -0.295999    2.920082   -0.507672
      2          6           0       -0.176130    1.922016    0.160038
      3          6           0       -0.064290    0.724403    0.990007
      4          6           0       -1.380505   -0.076196    1.036841
      5          6           0       -1.721590   -0.652261   -0.318127
      6          8           0       -0.940236   -0.797436   -1.234128
      7          8           0       -3.015883   -1.029531   -0.392232
      8          6           0        1.095244   -0.233763    0.607641
      9          8           0        1.207883   -1.278073    1.218770
     10          6           0        2.077044    0.186083   -0.474805
     11          7           0        3.068720   -0.816305   -0.824038
     12          1           0       -0.388714    3.792848   -1.113136
     13          1           0        0.158233    1.034064    2.021279
     14          1           0       -1.252025   -0.914587    1.730577
     15          1           0       -2.209218    0.537178    1.399192
     16          1           0       -3.137316   -1.421306   -1.277915
     17          1           0        1.499237    0.469169   -1.360110
     18          1           0        2.572906    1.109151   -0.138870
     19          1           0        2.582149   -1.613863   -1.232392
     20          1           0        3.476961   -1.180385    0.036829
 ---------------------------------------------------------------------

 SCF Done:  E(UB3LYP) =  -552.720863574     A.U. after   33 cycles
 SCF Done:  E(UB3LYP) =  -552.720863574     a.u. after    1 cycles

 The electronic state is 2-A.
 Alpha  occ. eigenvalues --  -19.06339 -19.01153 -18.99297 -14.19127 -10.20304
 Alpha  occ. eigenvalues --  -10.13517 -10.10291 -10.08784 -10.08509 -10.07552
 Alpha  occ. eigenvalues --  -10.06308  -1.00575  -0.93115  -0.91668  -0.78061
 Alpha  occ. eigenvalues --   -0.72118  -0.64677  -0.60968  -0.57069  -0.49580
 Alpha  occ. eigenvalues --   -0.45279  -0.42530  -0.40227  -0.39665  -0.39334
 Alpha  occ. eigenvalues --   -0.37618  -0.35658  -0.34158  -0.33397  -0.30914
 Alpha  occ. eigenvalues --   -0.29526  -0.28648  -0.27735  -0.27400  -0.24258
 Alpha  occ. eigenvalues --   -0.22059  -0.18925  -0.18285  -0.17317  -0.16163
 Alpha  occ. eigenvalues --   -0.12862   0.04629
 Alpha virt. eigenvalues --    0.06980   0.07569   0.08629   0.08856   0.09885
 Alpha virt. eigenvalues --    0.10463   0.11210   0.11856   0.12178   0.12607
 Alpha virt. eigenvalues --    0.13316   0.15017   0.15215   0.16549   0.17177

  Beta  occ. eigenvalues --  -19.06271 -19.01144 -18.99152 -14.19123 -10.20303
  Beta  occ. eigenvalues --  -10.13301 -10.10294 -10.08796 -10.08448 -10.07546
  Beta  occ. eigenvalues --  -10.06291  -1.00496  -0.92818  -0.91601  -0.78042
  Beta  occ. eigenvalues --   -0.72014  -0.64625  -0.60780  -0.56993  -0.49439
  Beta  occ. eigenvalues --   -0.45076  -0.42357  -0.40137  -0.39592  -0.39270
  Beta  occ. eigenvalues --   -0.37540  -0.35591  -0.34059  -0.33152  -0.30755
  Beta  occ. eigenvalues --   -0.29444  -0.28522  -0.27573  -0.27296  -0.23712
  Beta  occ. eigenvalues --   -0.21941  -0.18880  -0.18261  -0.17232  -0.16102
  Beta  occ. eigenvalues --   -0.12770
  Beta virt. eigenvalues --    0.07327   0.08257   0.08656   0.09007   0.09656
  Beta virt. eigenvalues --    0.10620   0.10917   0.11441   0.12124   0.12258
  Beta virt. eigenvalues --    0.12757   0.13519   0.15069   0.15363   0.16563

 Mulliken charges and spin densities:
               1          2
     1  C   -0.982991   0.890760
     2  C    2.013248  -2.398645
     3  C   -0.932776   1.657346
     4  C    1.859679  -2.491755
     5  C   -0.308144   0.340649
     6  O   -0.234299  -0.061808
     7  O   -0.189186   0.039513
     8  C   -0.018737  -0.104977
     9  O   -0.320817   0.058360
    10  C   -0.135568  -0.423427
    11  N   -0.353660   0.018090
    12  H   -0.389644   0.575964
    13  H   -0.604445   0.901769
    14  H   -0.113485   0.338421
    15  H   -0.307342   0.528396
    16  H   -0.597395   0.891852
    17  H    0.254409  -0.039270
    18  H   -0.058805   0.219640
    19  H    0.219156   0.029035
    20  H    0.200800   0.030088
 Sum of Mulliken charges =  -1.00000   1.00000

 Dipole moment (field-independent basis, Debye):
    X=              3.2973    Y=              0.2700    Z=             -1.1248  Tot=              3.4944
 Quadrupole moment (field-independent basis, Debye-Ang):
   XX=           -115.7576   YY=            -95.2218   ZZ=            -97.9796
   XY=             -6.2382   XZ=             -0.8901   YZ=             -5.0419

 Summary of Natural Population Analysis:

                                       Natural Population
                Natural  -----------------------------------------------
    Atom  No    Charge         Core      Valence    Rydberg      Total
 -----------------------------------------------------------------------
      C    1   -0.12045      0.99925     2.11763    0.00357     3.12045
      C    2    0.00577      0.99937     1.98421    0.01065     2.99423
      C    3   -0.19620      0.99949     2.18078    0.01592     3.19620
      C    4   -0.22766      0.99956     2.21744    0.01065     3.22766
      C    5    0.41110      0.99972     1.56442    0.02476     2.58890
      O    6   -0.30874      0.99987     3.30258    0.00629     4.30874
      O    7   -0.34040      0.99988     3.33370    0.00683     4.34040
      C    8    0.32508      0.99967     1.65023    0.02503     2.67492
      O    9   -0.29125      0.99987     3.28401    0.00737     4.29125
      C   10   -0.13964      0.99958     2.12976    0.01029     3.13964
      N   11   -0.41686      0.99978     2.90760    0.00948     3.91686
      H   12    0.11006      0.00000     0.38863    0.00130     0.38994
      H   13    0.13362      0.00000     0.35981    0.00657     0.36638
      H   14    0.12722      0.00000     0.37134    0.00144     0.37278
      H   15    0.11831      0.00000     0.37976    0.00194     0.38169
      H   16    0.24503      0.00000     0.23298    0.02199     0.25497
      H   17    0.11380      0.00000     0.38504    0.00116     0.38620
      H   18    0.10238      0.00000     0.39612    0.00150     0.39762
      H   19    0.17453      0.00000     0.32353    0.00194     0.32547
      H   20    0.17429      0.00000     0.32375    0.00196     0.32571
 =======================================================================
   * Total *    0.00000     10.99604    29.83332    0.17064    41.00000

 Normal termination of Gaussian 16 at Tue Dec  8 21:51:12 2020.
