 Gaussian 16, Revision A.03,

 -----------------------------------------------------------
 # opt freq B3LYP/6-31G(d) empiricaldispersion=gd3bj scf=xqc
 -----------------------------------------------------------

 -------------------------------
 CID_151933016_JID_2866_neutraal
 -------------------------------
 Symbolic Z-matrix:
 Charge =  0 Multiplicity = 1

 SCF Done:  E(RB3LYP) =  -500.143428280     A.U. after   14 cycles
 SCF Done:  E(RB3LYP) =  -500.150508132     A.U. after   12 cycles
 SCF Done:  E(RB3LYP) =  -500.152134371     A.U. after   12 cycles
 SCF Done:  E(RB3LYP) =  -500.152797142     A.U. after   11 cycles
 SCF Done:  E(RB3LYP) =  -500.153209042     A.U. after   11 cycles
 SCF Done:  E(RB3LYP) =  -500.153310942     A.U. after   11 cycles
 SCF Done:  E(RB3LYP) =  -500.153330795     A.U. after   10 cycles
 SCF Done:  E(RB3LYP) =  -500.153349894     A.U. after    9 cycles
 SCF Done:  E(RB3LYP) =  -500.153394838     A.U. after   11 cycles
 SCF Done:  E(RB3LYP) =  -500.153442810     A.U. after   10 cycles
 SCF Done:  E(RB3LYP) =  -500.153486523     A.U. after    9 cycles
 SCF Done:  E(RB3LYP) =  -500.153486867     A.U. after    9 cycles
 SCF Done:  E(RB3LYP) =  -500.153487076     A.U. after    8 cycles
 SCF Done:  E(RB3LYP) =  -500.153487185     A.U. after    8 cycles
 SCF Done:  E(RB3LYP) =  -500.153487196     A.U. after    6 cycles
 Optimization completed.
    -- Stationary point found.
 Normal termination of Gaussian 16 at Wed Dec  9 18:14:15 2020.

 --------------------------------------------------------------------
 #N Geom=AllCheck Guess=TCheck SCRF=Check GenChk RB3LYP/6-31G(d) Freq
 --------------------------------------------------------------------

 Structure from the checkpoint file:  "JID_2866.chk"
 -------------------------------
 CID_151933016_JID_2866_neutraal
 -------------------------------
 Charge =  0 Multiplicity = 1

 SCF Done:  E(RB3LYP) =  -500.153487196     A.U. after    1 cycles

  Exact polarizability: 176.401  -3.676 113.947  -1.322  -1.543  76.566
 Approx polarizability: 239.008  -1.466 159.328   0.712  -3.418 118.479

                      1                      2                      3
                      A                      A                      A
 Frequencies --     28.4222                39.9263                70.7156
 Red. masses --      2.9156                 3.1136                 2.7009
 Frc consts  --      0.0014                 0.0029                 0.0080
 IR Inten    --      0.0973                 0.5678                 0.3486

                      4                      5                      6
                      A                      A                      A
 Frequencies --     86.0830               103.3905               146.4707
 Red. masses --      2.5608                 3.0649                 2.8162
 Frc consts  --      0.0112                 0.0193                 0.0356
 IR Inten    --      0.2502                 1.1218                 0.5190

                      7                      8                      9
                      A                      A                      A
 Frequencies --    213.6939               236.4252               274.6466
 Red. masses --      2.3207                 2.0991                 1.2735
 Frc consts  --      0.0624                 0.0691                 0.0566
 IR Inten    --      2.8788                 0.6107                 4.3107

                     10                     11                     12
                      A                      A                      A
 Frequencies --    292.6690               340.0766               399.4964
 Red. masses --      3.2410                 2.7435                 2.9246
 Frc consts  --      0.1636                 0.1869                 0.2750
 IR Inten    --      2.4488                 4.6552                 7.7954

                     13                     14                     15
                      A                      A                      A
 Frequencies --    458.4412               475.2314               496.1872
 Red. masses --      2.1146                 2.3816                 3.2974
 Frc consts  --      0.2618                 0.3169                 0.4783
 IR Inten    --      2.5879                 0.3740                 3.0230

                     16                     17                     18
                      A                      A                      A
 Frequencies --    553.8936               670.3657               680.9635
 Red. masses --      4.4041                 2.0227                 1.5029
 Frc consts  --      0.7961                 0.5355                 0.4106
 IR Inten    --      3.9251                15.8250                14.5711

                     19                     20                     21
                      A                      A                      A
 Frequencies --    730.2951               786.8953               797.8916
 Red. masses --      1.4381                 1.2337                 1.5331
 Frc consts  --      0.4519                 0.4501                 0.5750
 IR Inten    --     51.0443                30.6803                 4.5353

                     22                     23                     24
                      A                      A                      A
 Frequencies --    858.8054               863.1425               884.6510
 Red. masses --      4.1899                 1.1481                 3.2644
 Frc consts  --      1.8207                 0.5040                 1.5052
 IR Inten    --      9.5392                 4.3619                14.3755

                     25                     26                     27
                      A                      A                      A
 Frequencies --    901.4006               909.0155               923.6923
 Red. masses --      2.7382                 1.5651                 2.3219
 Frc consts  --      1.3108                 0.7620                 1.1672
 IR Inten    --      0.5563                35.0822                12.3032

                     28                     29                     30
                      A                      A                      A
 Frequencies --    937.5374               968.8228              1059.2332
 Red. masses --      2.9146                 2.2550                 1.6660
 Frc consts  --      1.5094                 1.2470                 1.1013
 IR Inten    --      6.4316                 6.6857                 5.6226

                     31                     32                     33
                      A                      A                      A
 Frequencies --   1059.7824              1063.4185              1099.5843
 Red. masses --      1.8693                 2.2760                 2.6110
 Frc consts  --      1.2370                 1.5165                 1.8600
 IR Inten    --     30.0545                28.9106                16.8741

                     34                     35                     36
                      A                      A                      A
 Frequencies --   1106.8700              1109.5092              1126.8239
 Red. masses --      1.2019                 1.6132                 1.4269
 Frc consts  --      0.8676                 1.1700                 1.0675
 IR Inten    --      0.5028                11.8576                13.8114

                     37                     38                     39
                      A                      A                      A
 Frequencies --   1146.4099              1179.0338              1189.1185
 Red. masses --      2.0428                 1.1787                 2.1941
 Frc consts  --      1.5818                 0.9654                 1.8279
 IR Inten    --     38.2939                 1.3364                38.3014

                     40                     41                     42
                      A                      A                      A
 Frequencies --   1215.6501              1221.9888              1223.7518
 Red. masses --      1.4690                 1.7763                 1.6512
 Frc consts  --      1.2791                 1.5628                 1.4569
 IR Inten    --     34.0061                11.7307                12.0375

                     43                     44                     45
                      A                      A                      A
 Frequencies --   1228.1517              1273.7044              1306.0476
 Red. masses --      1.5890                 2.2649                 2.0662
 Frc consts  --      1.4121                 2.1649                 2.0766
 IR Inten    --      5.9566                60.9668                 4.7632

                     46                     47                     48
                      A                      A                      A
 Frequencies --   1313.1284              1336.1894              1348.4954
 Red. masses --      1.2682                 1.4405                 1.3226
 Frc consts  --      1.2884                 1.5153                 1.4170
 IR Inten    --      2.2617                28.6444                 1.7973

                     49                     50                     51
                      A                      A                      A
 Frequencies --   1403.0725              1416.7313              1423.0337
 Red. masses --      1.4779                 2.2112                 1.5335
 Frc consts  --      1.7142                 2.6149                 1.8297
 IR Inten    --     18.0583                96.6970                33.5145

                     52                     53                     54
                      A                      A                      A
 Frequencies --   1446.0937              1482.1091              1505.8310
 Red. masses --      1.2911                 1.9707                 1.0926
 Frc consts  --      1.5907                 2.5505                 1.4597
 IR Inten    --     25.9165               187.3362                 0.7206

                     55                     56                     57
                      A                      A                      A
 Frequencies --   1507.1178              1511.4885              1529.2082
 Red. masses --      1.1050                 1.0852                 1.1521
 Frc consts  --      1.4788                 1.4608                 1.5874
 IR Inten    --      4.9017                 1.7190                25.1236

                     58                     59                     60
                      A                      A                      A
 Frequencies --   1530.4620              1543.0955              1570.9261
 Red. masses --      1.0506                 1.0542                 1.0976
 Frc consts  --      1.4499                 1.4789                 1.5959
 IR Inten    --      6.5303                12.5910                11.5941

                     61                     62                     63
                      A                      A                      A
 Frequencies --   1685.5479              1729.1588              2860.3249
 Red. masses --      6.0359                 7.1486                 1.0772
 Frc consts  --     10.1036                12.5933                 5.1924
 IR Inten    --     84.3853               355.1901                99.8121

                     64                     65                     66
                      A                      A                      A
 Frequencies --   2941.0901              3031.1339              3037.7058
 Red. masses --      1.0729                 1.0554                 1.0632
 Frc consts  --      5.4677                 5.7131                 5.7802
 IR Inten    --     75.1538               129.2066                33.5570

                     67                     68                     69
                      A                      A                      A
 Frequencies --   3047.0628              3047.9050              3063.5211
 Red. masses --      1.0399                 1.0574                 1.1089
 Frc consts  --      5.6887                 5.7877                 6.1317
 IR Inten    --     21.0861                32.9551                31.0061

                     70                     71                     72
                      A                      A                      A
 Frequencies --   3067.8617              3079.5333              3087.7909
 Red. masses --      1.0864                 1.0978                 1.0904
 Frc consts  --      6.0245                 6.1341                 6.1254
 IR Inten    --     51.2640                19.6179                34.4710

                     73                     74                     75
                      A                      A                      A
 Frequencies --   3092.5486              3111.9123              3130.2030
 Red. masses --      1.1072                 1.1004                 1.1009
 Frc consts  --      6.2391                 6.2782                 6.3555
 IR Inten    --     49.6288                46.8459                47.4579

                     76                     77                     78
                      A                      A                      A
 Frequencies --   3220.0414              3270.3244              3300.6277
 Red. masses --      1.0971                 1.0902                 1.1055
 Frc consts  --      6.7022                 6.8698                 7.0960
 IR Inten    --     19.5379                 4.2508                 4.5726

 - Thermochemistry -
 -------------------
 Temperature   298.150 Kelvin.  Pressure   1.00000 Atm.
 Atom     1 has atomic number  6 and mass  12.00000

 Molecular mass:   164.13135 amu.
 Principal axes and moments of inertia in atomic units:
                           1         2         3
     Eigenvalues --   899.412823766.365254531.62807
           X            0.99999   0.00536  -0.00067
           Y           -0.00535   0.99997   0.00634
           Z            0.00070  -0.00633   0.99998
 This molecule is an asymmetric top.
 Rotational symmetry number  1.
 Warning -- assumption of classical behavior for rotation
           may cause significant error
 Rotational temperatures (Kelvin)      0.09630     0.02300     0.01911
 Rotational constants (GHZ):           2.00658     0.47917     0.39825
 Zero-point vibrational energy     648433.4 (Joules/Mol)
                                  154.97931 (Kcal/Mol)
 Warning -- explicit consideration of  16 degrees of freedom as
           vibrations may cause significant error
 Vibrational temperatures:     40.89    57.44   101.74   123.85   148.76
          (Kelvin)            210.74   307.46   340.16   395.16   421.09
                              489.29   574.79   659.59   683.75   713.90
                              796.93   964.51   979.75  1050.73  1132.17
                             1147.99  1235.63  1241.87  1272.82  1296.91
                             1307.87  1328.99  1348.91  1393.92  1524.00
                             1524.79  1530.02  1582.06  1592.54  1596.34
                             1621.25  1649.43  1696.37  1710.88  1749.05
                             1758.17  1760.71  1767.04  1832.58  1879.11
                             1889.30  1922.48  1940.18  2018.71  2038.36
                             2047.43  2080.61  2132.42  2166.55  2168.41
                             2174.69  2200.19  2201.99  2220.17  2260.21
                             2425.13  2487.87  4115.37  4231.57  4361.13
                             4370.58  4384.04  4385.26  4407.72  4413.97
                             4430.76  4442.64  4449.49  4477.35  4503.66
                             4632.92  4705.27  4748.87

 Zero-point correction=                           0.246975 (Hartree/Particle)
 Thermal correction to Energy=                    0.259355
 Thermal correction to Enthalpy=                  0.260299
 Thermal correction to Gibbs Free Energy=         0.206732
 Sum of electronic and zero-point Energies=           -499.906512
 Sum of electronic and thermal Energies=              -499.894132
 Sum of electronic and thermal Enthalpies=            -499.893188
 Sum of electronic and thermal Free Energies=         -499.946756

                     E (Thermal)             CV                S
                      KCal/Mol        Cal/Mol-Kelvin    Cal/Mol-Kelvin
 Total                  162.748             45.820            112.742
 Electronic               0.000              0.000              0.000
 Translational            0.889              2.981             41.195
 Rotational               0.889              2.981             31.107
 Vibrational            160.970             39.858             40.440
 Vibration     1          0.593              1.984              5.937
 Vibration     2          0.594              1.981              5.263
 Vibration     3          0.598              1.968              4.133
 Vibration     4          0.601              1.959              3.747
 Vibration     5          0.605              1.946              3.389
 Vibration     6          0.617              1.906              2.718
 Vibration     7          0.644              1.820              2.012
 Vibration     8          0.655              1.785              1.830
 Vibration     9          0.677              1.720              1.567
 Vibration    10          0.688              1.687              1.458
 Vibration    11          0.720              1.595              1.212
 Vibration    12          0.766              1.471              0.965
 Vibration    13          0.816              1.342              0.771
 Vibration    14          0.832              1.305              0.723
 Vibration    15          0.852              1.258              0.668
 Vibration    16          0.909              1.131              0.536

 Optimization completed.
    -- Stationary point found.
 Normal termination of Gaussian 16 at Wed Dec  9 18:20:23 2020.

 ----------------------------------------------------------------------
 # B3LYP/6-311++G(d,p) empiricaldispersion=gd3bj scf=xqc pop=npa geom=c
 heck
 ----------------------------------------------------------------------

 ---------------------------------------
 CID_151933016_JID_2866_Energie_neutraal
 ---------------------------------------
 Structure from the checkpoint file:  "JID_2866.chk"
 Charge =  0 Multiplicity = 1

 SCF Done:  E(RB3LYP) =  -500.289912440     A.U. after   14 cycles
 Normal termination of Gaussian 16 at Wed Dec  9 18:23:27 2020.

 ----------------------------------------------------------------------
 # B3LYP/6-311++G(d,p) empiricaldispersion=gd3bj scf=xqc pop=npa geom=c
 heck
 ----------------------------------------------------------------------

 -------------------------------------
 CID_151933016_JID_2866_Energie_kation
 -------------------------------------
 Structure from the checkpoint file:  "JID_2866.chk"
 Charge =  1 Multiplicity = 2

 SCF Done:  E(UB3LYP) =  -500.058767404     A.U. after   19 cycles
 Normal termination of Gaussian 16 at Wed Dec  9 18:28:22 2020.
 Gaussian 16:  ES64L-G16RevA.03 25-Dec-2016

 ----------------------------------------------------------------------
 # B3LYP/6-311++G(d,p) empiricaldispersion=gd3bj scf=xqc pop=npa geom=c
 heck
 ----------------------------------------------------------------------

 ------------------------------------
 CID_151933016_JID_2866_Energie_anion
 ------------------------------------
 Structure from the checkpoint file:  "JID_2866.chk"
 Charge = -1 Multiplicity = 2

                         Standard orientation:
 ---------------------------------------------------------------------
 Center     Atomic      Atomic             Coordinates (Angstroms)
 Number     Number       Type             X           Y           Z
 ---------------------------------------------------------------------
      1          6           0       -3.212017   -1.881367   -0.242064
      2          6           0       -3.681098   -0.439705   -0.030559
      3          6           0       -2.646716    0.487060    0.615682
      4          7           0       -1.440858    0.687805   -0.184265
      5          6           0       -0.356531   -0.287055    0.022348
      6          7           0        0.857528    0.494172   -0.224701
      7          6           0        0.509089    1.859088   -0.182256
      8          6           0       -0.824358    1.966375   -0.142190
      9          6           0        2.113366   -0.019100   -0.046524
     10          6           0        3.368312    0.472968    0.074283
     11          6           0        4.002398   -0.905882    0.143547
     12          6           0        2.541270   -1.471494    0.007981
     13          1           0       -2.422968   -1.937556   -0.998189
     14          1           0       -4.037800   -2.514859   -0.583510
     15          1           0       -2.822715   -2.314233    0.688123
     16          1           0       -3.985157   -0.006118   -0.991077
     17          1           0       -4.569963   -0.438806    0.615218
     18          1           0       -3.105611    1.470082    0.767016
     19          1           0       -2.377897    0.104795    1.619102
     20          1           0       -0.382161   -0.681366    1.062047
     21          1           0       -0.419863   -1.139068   -0.662450
     22          1           0        1.268353    2.620858   -0.268175
     23          1           0       -1.434106    2.857735   -0.173038
     24          1           0        3.786720    1.473172    0.098036
     25          1           0        4.502558   -1.169836    1.084689
     26          1           0        4.662860   -1.184914   -0.688300
     27          1           0        2.354827   -2.055636   -0.901542
     28          1           0        2.183953   -2.043418    0.873320
 ---------------------------------------------------------------------

 SCF Done:  E(UB3LYP) =  -500.273804640     A.U. after   33 cycles
 SCF Done:  E(UB3LYP) =  -500.273804640     a.u. after    1 cycles

 The electronic state is 2-A.
 Alpha  occ. eigenvalues --  -14.24546 -14.22730 -10.13843 -10.10978 -10.09746
 Alpha  occ. eigenvalues --  -10.09584 -10.09479 -10.08081 -10.07834 -10.06394
 Alpha  occ. eigenvalues --  -10.05520 -10.05470  -0.89891  -0.81489  -0.75155
 Alpha  occ. eigenvalues --   -0.68436  -0.65480  -0.61126  -0.56239  -0.55700
 Alpha  occ. eigenvalues --   -0.51515  -0.49846  -0.48136  -0.44925  -0.40983
 Alpha  occ. eigenvalues --   -0.39160  -0.37955  -0.36289  -0.35794  -0.34706
 Alpha  occ. eigenvalues --   -0.33769  -0.31685  -0.30576  -0.29878  -0.27825
 Alpha  occ. eigenvalues --   -0.26936  -0.25545  -0.24982  -0.24760  -0.24222
 Alpha  occ. eigenvalues --   -0.23269  -0.23019  -0.20148  -0.13209  -0.06949
 Alpha  occ. eigenvalues --    0.04572
 Alpha virt. eigenvalues --    0.06592   0.06914   0.08095   0.08201   0.08340
 Alpha virt. eigenvalues --    0.09028   0.10199   0.10371   0.10703   0.11089
 Alpha virt. eigenvalues --    0.11439   0.11990   0.12645   0.13400   0.14228

  Beta  occ. eigenvalues --  -14.24546 -14.22727 -10.13821 -10.10976 -10.09722
  Beta  occ. eigenvalues --  -10.09568 -10.09465 -10.08055 -10.07825 -10.06370
  Beta  occ. eigenvalues --  -10.05480 -10.05462  -0.89878  -0.81474  -0.75140
  Beta  occ. eigenvalues --   -0.68395  -0.65440  -0.61085  -0.56190  -0.55653
  Beta  occ. eigenvalues --   -0.51469  -0.49798  -0.48070  -0.44875  -0.40943
  Beta  occ. eigenvalues --   -0.39132  -0.37927  -0.36257  -0.35754  -0.34662
  Beta  occ. eigenvalues --   -0.33735  -0.31639  -0.30544  -0.29835  -0.27801
  Beta  occ. eigenvalues --   -0.26913  -0.25501  -0.24942  -0.24727  -0.24165
  Beta  occ. eigenvalues --   -0.23233  -0.22994  -0.20110  -0.13169  -0.06916
  Beta virt. eigenvalues --    0.06617   0.07386   0.07716   0.08651   0.08781
  Beta virt. eigenvalues --    0.08864   0.09225   0.10500   0.10709   0.11103
  Beta virt. eigenvalues --    0.11501   0.11777   0.12385   0.13026   0.13803

 Mulliken charges and spin densities:
               1          2
     1  C    0.853292  -1.268671
     2  C    0.034829  -0.344912
     3  C   -0.239654   0.031943
     4  N    0.041253   0.184832
     5  C   -0.174467  -0.516294
     6  N    0.146528   0.027329
     7  C    1.240935  -1.170180
     8  C   -0.811179   0.466665
     9  C    0.170657  -0.201914
    10  C    0.062689   0.069917
    11  C    0.331026  -1.017307
    12  C    0.345181  -0.562912
    13  H   -0.174589   0.304281
    14  H   -0.581622   0.746088
    15  H   -0.157318   0.288970
    16  H    0.082091   0.056228
    17  H   -0.436990   0.576152
    18  H   -0.597142   0.755027
    19  H   -0.177877   0.297802
    20  H   -0.016982   0.164215
    21  H    0.261212  -0.044818
    22  H   -0.174979   0.316492
    23  H   -0.591722   0.757640
    24  H   -0.092489   0.222686
    25  H    0.037510   0.075669
    26  H    0.018523   0.088256
    27  H   -0.220867   0.375589
    28  H   -0.177848   0.321226
 Sum of Mulliken charges =  -1.00000   1.00000

 Dipole moment (field-independent basis, Debye):
    X=              5.5345    Y=              1.0826    Z=             -0.8848  Tot=              5.7084
 Quadrupole moment (field-independent basis, Debye-Ang):
   XX=           -153.9658   YY=           -124.5699   ZZ=           -105.9652
   XY=             -2.3075   XZ=              4.3719   YZ=             -1.4968

 Summary of Natural Population Analysis:

                                       Natural Population
                Natural  -----------------------------------------------
    Atom  No    Charge         Core      Valence    Rydberg      Total
 -----------------------------------------------------------------------
      C    1   -0.28906      0.99967     2.28369    0.00570     3.28906
      C    2   -0.19227      0.99964     2.18392    0.00872     3.19227
      C    3   -0.08027      0.99960     2.06793    0.01274     3.08027
      N    4   -0.26825      0.99969     2.75608    0.01248     3.76825
      C    5    0.03241      0.99963     1.95780    0.01016     2.96759
      N    6   -0.24406      0.99962     2.73423    0.01021     3.74406
      C    7   -0.02879      0.99952     2.01844    0.01083     3.02879
      C    8   -0.01483      0.99953     2.00211    0.01320     3.01483
      C    9    0.09736      0.99948     1.89018    0.01298     2.90264
      C   10   -0.15413      0.99950     2.14533    0.00930     3.15413
      C   11   -0.18703      0.99967     2.18011    0.00725     3.18703
      C   12   -0.19334      0.99962     2.18597    0.00775     3.19334
      H   13    0.09601      0.00000     0.40255    0.00144     0.40399
      H   14    0.10133      0.00000     0.39728    0.00138     0.39867
      H   15    0.09712      0.00000     0.40141    0.00146     0.40288
      H   16    0.09515      0.00000     0.40324    0.00161     0.40485
      H   17    0.09679      0.00000     0.40148    0.00174     0.40321
      H   18    0.09959      0.00000     0.39783    0.00258     0.40041
      H   19    0.08317      0.00000     0.41437    0.00246     0.41683
      H   20    0.07610      0.00000     0.42153    0.00238     0.42390
      H   21    0.09402      0.00000     0.40331    0.00267     0.40598
      H   22    0.10621      0.00000     0.39269    0.00110     0.39379
      H   23    0.10533      0.00000     0.39316    0.00151     0.39467
      H   24    0.09367      0.00000     0.40533    0.00100     0.40633
      H   25    0.08887      0.00000     0.40915    0.00198     0.41113
      H   26    0.08854      0.00000     0.40958    0.00188     0.41146
      H   27    0.10002      0.00000     0.39840    0.00159     0.39998
      H   28    0.10035      0.00000     0.39818    0.00147     0.39965
 =======================================================================
   * Total *   -0.00000     11.99515    32.85528    0.14957    45.00000

 Normal termination of Gaussian 16 at Wed Dec  9 18:35:05 2020.
