 Gaussian 16, Revision A.03,

 -----------------------------------------------------------
 # opt freq B3LYP/6-31G(d) empiricaldispersion=gd3bj scf=xqc
 -----------------------------------------------------------

 -------------------------------
 CID_104844493_JID_5670_neutraal
 -------------------------------
 Symbolic Z-matrix:
 Charge =  0 Multiplicity = 1

 SCF Done:  E(RB3LYP) =  -667.690768113     A.U. after   15 cycles
 SCF Done:  E(RB3LYP) =  -667.697378932     A.U. after   13 cycles
 SCF Done:  E(RB3LYP) =  -667.699384056     A.U. after   14 cycles
 SCF Done:  E(RB3LYP) =  -667.700445367     A.U. after   12 cycles
 SCF Done:  E(RB3LYP) =  -667.701644659     A.U. after   12 cycles
 SCF Done:  E(RB3LYP) =  -667.702170826     A.U. after   11 cycles
 SCF Done:  E(RB3LYP) =  -667.702738587     A.U. after   12 cycles
 SCF Done:  E(RB3LYP) =  -667.702957858     A.U. after   12 cycles
 SCF Done:  E(RB3LYP) =  -667.703052578     A.U. after   11 cycles
 SCF Done:  E(RB3LYP) =  -667.703116517     A.U. after   11 cycles
 SCF Done:  E(RB3LYP) =  -667.703173748     A.U. after   10 cycles
 SCF Done:  E(RB3LYP) =  -667.703175275     A.U. after    9 cycles
 SCF Done:  E(RB3LYP) =  -667.703175977     A.U. after    9 cycles
 SCF Done:  E(RB3LYP) =  -667.703176170     A.U. after    8 cycles
 SCF Done:  E(RB3LYP) =  -667.703176215     A.U. after    7 cycles
 Optimization completed.
    -- Stationary point found.
 Normal termination of Gaussian 16 at Thu Dec 10 16:38:58 2020.

 --------------------------------------------------------------------
 #N Geom=AllCheck Guess=TCheck SCRF=Check GenChk RB3LYP/6-31G(d) Freq
 --------------------------------------------------------------------

 Structure from the checkpoint file:  "JID_5670.chk"
 -------------------------------
 CID_104844493_JID_5670_neutraal
 -------------------------------
 Charge =  0 Multiplicity = 1

 SCF Done:  E(RB3LYP) =  -667.703176215     A.U. after    1 cycles

  Exact polarizability: 151.388  -2.042 144.855  12.632   4.128  96.459
 Approx polarizability: 214.139  -8.179 233.021  30.946   3.749 148.288

                      1                      2                      3
                      A                      A                      A
 Frequencies --     22.1363                38.3823                63.0542
 Red. masses --      3.9920                 3.4022                 3.8015
 Frc consts  --      0.0012                 0.0030                 0.0089
 IR Inten    --      0.2998                 1.5382                 0.1423

                      4                      5                      6
                      A                      A                      A
 Frequencies --     76.2476               114.3372               135.6832
 Red. masses --      4.6173                 3.7176                 3.3612
 Frc consts  --      0.0158                 0.0286                 0.0365
 IR Inten    --      1.2865                 1.6215                 2.6323

                      7                      8                      9
                      A                      A                      A
 Frequencies --    166.5749               199.7335               223.4234
 Red. masses --      3.8218                 4.1902                 1.1235
 Frc consts  --      0.0625                 0.0985                 0.0330
 IR Inten    --      1.9498                 1.5709                 4.1344

                     10                     11                     12
                      A                      A                      A
 Frequencies --    231.9696               299.7312               321.8678
 Red. masses --      1.1893                 2.7029                 3.5432
 Frc consts  --      0.0377                 0.1431                 0.2163
 IR Inten    --     53.4993                 0.5326                 1.1241

                     13                     14                     15
                      A                      A                      A
 Frequencies --    326.4502               355.5224               363.0436
 Red. masses --      3.5602                 3.1257                 2.5119
 Frc consts  --      0.2235                 0.2328                 0.1951
 IR Inten    --      9.7721                 1.6030                 2.9203

                     16                     17                     18
                      A                      A                      A
 Frequencies --    393.0672               428.9821               468.0782
 Red. masses --      3.6243                 3.4765                 3.2953
 Frc consts  --      0.3299                 0.3769                 0.4254
 IR Inten    --      6.3700                 7.1232                 6.0396

                     19                     20                     21
                      A                      A                      A
 Frequencies --    528.6879               553.5353               592.3111
 Red. masses --      4.4750                 3.8474                 1.9526
 Frc consts  --      0.7370                 0.6946                 0.4036
 IR Inten    --      8.0302                25.8984                35.8001

                     22                     23                     24
                      A                      A                      A
 Frequencies --    608.4294               695.1755               736.0685
 Red. masses --      4.0699                 2.7824                 4.9110
 Frc consts  --      0.8877                 0.7922                 1.5677
 IR Inten    --      4.1829                42.2430                 0.1274

                     25                     26                     27
                      A                      A                      A
 Frequencies --    767.3444               778.9223               794.2515
 Red. masses --      4.3038                 2.6265                 2.7612
 Frc consts  --      1.4931                 0.9389                 1.0263
 IR Inten    --     42.5064                12.1221                12.4586

                     28                     29                     30
                      A                      A                      A
 Frequencies --    802.0928               854.3007               878.1047
 Red. masses --      1.1344                 1.3427                 1.8709
 Frc consts  --      0.4300                 0.5774                 0.8499
 IR Inten    --      1.6735               114.9123                 6.0992

                     31                     32                     33
                      A                      A                      A
 Frequencies --    885.5228               900.3652               920.9507
 Red. masses --      1.7615                 2.9572                 1.5423
 Frc consts  --      0.8138                 1.4124                 0.7707
 IR Inten    --      6.3015                22.3413                 3.1491

                     34                     35                     36
                      A                      A                      A
 Frequencies --    949.4809               953.4447               989.1603
 Red. masses --      1.8038                 1.4605                 1.4094
 Frc consts  --      0.9581                 0.7823                 0.8125
 IR Inten    --      5.5370                 0.9041                 3.4007

                     37                     38                     39
                      A                      A                      A
 Frequencies --   1007.8228              1019.4734              1037.3570
 Red. masses --      2.0201                 5.2675                 2.0153
 Frc consts  --      1.2089                 3.2256                 1.2778
 IR Inten    --     22.0490                 2.9593                13.8191

                     40                     41                     42
                      A                      A                      A
 Frequencies --   1057.0913              1069.0013              1084.9709
 Red. masses --      1.2772                 2.4791                 1.8957
 Frc consts  --      0.8409                 1.6691                 1.3148
 IR Inten    --      5.8615                 6.1765                 8.4784

                     43                     44                     45
                      A                      A                      A
 Frequencies --   1093.6422              1136.7176              1144.2600
 Red. masses --      1.4352                 1.5034                 1.7830
 Frc consts  --      1.0113                 1.1445                 1.3755
 IR Inten    --      0.6551                 1.6613                 7.1279

                     46                     47                     48
                      A                      A                      A
 Frequencies --   1155.3173              1173.9684              1207.7569
 Red. masses --      1.7749                 1.3318                 1.2931
 Frc consts  --      1.3958                 1.0814                 1.1113
 IR Inten    --      4.3517                 8.4652                 1.1299

                     49                     50                     51
                      A                      A                      A
 Frequencies --   1265.6108              1302.1680              1319.2271
 Red. masses --      2.2367                 2.7845                 1.8810
 Frc consts  --      2.1109                 2.7819                 1.9288
 IR Inten    --     13.6518                 3.0108                 0.7985

                     52                     53                     54
                      A                      A                      A
 Frequencies --   1325.9419              1343.0509              1347.9124
 Red. masses --      2.8493                 1.9244                 1.6488
 Frc consts  --      2.9515                 2.0452                 1.7650
 IR Inten    --     34.8333                12.5629                11.2098

                     55                     56                     57
                      A                      A                      A
 Frequencies --   1393.5223              1427.4669              1446.4373
 Red. masses --      4.3269                 1.8492                 1.3108
 Frc consts  --      4.9506                 2.2201                 1.6158
 IR Inten    --    330.1815                28.5743                18.7876

                     58                     59                     60
                      A                      A                      A
 Frequencies --   1456.8385              1464.8396              1486.9780
 Red. masses --      2.0357                 1.5691                 1.1148
 Frc consts  --      2.5456                 1.9837                 1.4522
 IR Inten    --      9.7334                 7.6503                 0.7363

                     61                     62                     63
                      A                      A                      A
 Frequencies --   1518.8783              1527.1646              1530.4033
 Red. masses --      1.0694                 1.2103                 1.9148
 Frc consts  --      1.4536                 1.6631                 2.6423
 IR Inten    --      0.0815                 6.2498                 8.4359

                     64                     65                     66
                      A                      A                      A
 Frequencies --   1532.3683              1536.8463              1616.5457
 Red. masses --      1.2398                 1.1621                 8.1533
 Frc consts  --      1.7153                 1.6172                12.5534
 IR Inten    --      2.6310                 2.0359                33.5136

                     67                     68                     69
                      A                      A                      A
 Frequencies --   1656.0030              1692.5535              1766.6307
 Red. masses --      5.3112                 1.0977                 8.4289
 Frc consts  --      8.5815                 1.8527                15.4992
 IR Inten    --     16.7841                28.2223               293.3120

                     70                     71                     72
                      A                      A                      A
 Frequencies --   2949.6652              3055.4210              3111.5079
 Red. masses --      1.0734                 1.0365                 1.0888
 Frc consts  --      5.5023                 5.7009                 6.2105
 IR Inten    --     82.6920                21.0141                16.4998

                     73                     74                     75
                      A                      A                      A
 Frequencies --   3122.1143              3136.3688              3149.1457
 Red. masses --      1.1020                 1.1014                 1.0514
 Frc consts  --      6.3289                 6.3836                 6.1434
 IR Inten    --     18.0251                19.7646                17.6318

                     76                     77                     78
                      A                      A                      A
 Frequencies --   3153.7111              3176.9844              3227.9698
 Red. masses --      1.0584                 1.0901                 1.1200
 Frc consts  --      6.2022                 6.4827                 6.8758
 IR Inten    --      4.6341                30.6901                 0.8475

                     79                     80                     81
                      A                      A                      A
 Frequencies --   3233.3423              3242.1549              3246.1922
 Red. masses --      1.0931                 1.1165                 1.0898
 Frc consts  --      6.7328                 6.9150                 6.7660
 IR Inten    --      3.6143                14.6090                 3.7676

                     82                     83                     84
                      A                      A                      A
 Frequencies --   3458.2961              3547.9684              3558.7769
 Red. masses --      1.0494                 1.0928                 1.0752
 Frc consts  --      7.3947                 8.1046                 8.0231
 IR Inten    --      2.6212                 1.6352                21.8944

 - Thermochemistry -
 -------------------
 Temperature   298.150 Kelvin.  Pressure   1.00000 Atm.
 Atom     1 has atomic number  6 and mass  12.00000

 Molecular mass:   205.12151 amu.
 Principal axes and moments of inertia in atomic units:
                           1         2         3
     Eigenvalues --  2157.602374206.392435316.11417
           X            0.99991   0.00345  -0.01320
           Y           -0.00312   0.99969   0.02452
           Z            0.01328  -0.02447   0.99961
 This molecule is an asymmetric top.
 Rotational symmetry number  1.
 Warning -- assumption of classical behavior for rotation
           may cause significant error
 Rotational temperatures (Kelvin)      0.04014     0.02059     0.01629
 Rotational constants (GHZ):           0.83646     0.42905     0.33949
 Zero-point vibrational energy     663513.6 (Joules/Mol)
                                  158.58357 (Kcal/Mol)
 Warning -- explicit consideration of  22 degrees of freedom as
           vibrations may cause significant error
 Vibrational temperatures:     31.85    55.22    90.72   109.70   164.51
          (Kelvin)            195.22   239.66   287.37   321.46   333.75
                              431.25   463.10   469.69   511.52   522.34
                              565.54   617.21   673.46   760.66   796.41
                              852.20   875.39  1000.20  1059.04  1104.04
                             1120.70  1142.75  1154.03  1229.15  1263.40
                             1274.07  1295.42  1325.04  1366.09  1371.79
                             1423.18  1450.03  1466.79  1492.53  1520.92
                             1538.05  1561.03  1573.51  1635.48  1646.33
                             1662.24  1689.08  1737.69  1820.93  1873.53
                             1898.07  1907.73  1932.35  1939.35  2004.97
                             2053.81  2081.10  2096.07  2107.58  2139.43
                             2185.33  2197.25  2201.91  2204.74  2211.18
                             2325.85  2382.62  2435.21  2541.79  4243.91
                             4396.07  4476.77  4492.03  4512.54  4530.92
                             4537.49  4570.97  4644.33  4652.06  4664.74
                             4670.55  4975.72  5104.74  5120.29

 Zero-point correction=                           0.252719 (Hartree/Particle)
 Thermal correction to Energy=                    0.267342
 Thermal correction to Enthalpy=                  0.268286
 Thermal correction to Gibbs Free Energy=         0.209769
 Sum of electronic and zero-point Energies=           -667.450457
 Sum of electronic and thermal Energies=              -667.435834
 Sum of electronic and thermal Enthalpies=            -667.434890
 Sum of electronic and thermal Free Energies=         -667.493407

                     E (Thermal)             CV                S
                      KCal/Mol        Cal/Mol-Kelvin    Cal/Mol-Kelvin
 Total                  167.760             55.126            123.159
 Electronic               0.000              0.000              0.000
 Translational            0.889              2.981             41.860
 Rotational               0.889              2.981             32.245
 Vibrational            165.982             49.164             49.054
 Vibration     1          0.593              1.985              6.433
 Vibration     2          0.594              1.982              5.341
 Vibration     3          0.597              1.972              4.359
 Vibration     4          0.599              1.965              3.985
 Vibration     5          0.607              1.938              3.194
 Vibration     6          0.614              1.918              2.864
 Vibration     7          0.624              1.884              2.474
 Vibration     8          0.638              1.840              2.136
 Vibration     9          0.649              1.805              1.931
 Vibration    10          0.653              1.792              1.864
 Vibration    11          0.692              1.674              1.418
 Vibration    12          0.707              1.632              1.301
 Vibration    13          0.710              1.623              1.278
 Vibration    14          0.731              1.564              1.142
 Vibration    15          0.737              1.548              1.109
 Vibration    16          0.760              1.485              0.988
 Vibration    17          0.790              1.407              0.862
 Vibration    18          0.825              1.321              0.743
 Vibration    19          0.884              1.187              0.590
 Vibration    20          0.909              1.132              0.537
 Vibration    21          0.950              1.048              0.463
 Vibration    22          0.967              1.014              0.435

                           ! Non-Optimized Parameters !
 Normal termination of Gaussian 16 at Thu Dec 10 16:49:19 2020.

 ----------------------------------------------------------------------
 # B3LYP/6-311++G(d,p) empiricaldispersion=gd3bj scf=xqc pop=npa geom=c
 heck
 ----------------------------------------------------------------------

 ---------------------------------------
 CID_104844493_JID_5670_Energie_neutraal
 ---------------------------------------
 Structure from the checkpoint file:  "JID_5670.chk"
 Charge =  0 Multiplicity = 1

 SCF Done:  E(RB3LYP) =  -667.896696650     A.U. after   16 cycles
 Normal termination of Gaussian 16 at Thu Dec 10 16:54:58 2020.

 ----------------------------------------------------------------------
 # B3LYP/6-311++G(d,p) empiricaldispersion=gd3bj scf=xqc pop=npa geom=c
 heck
 ----------------------------------------------------------------------

 -------------------------------------
 CID_104844493_JID_5670_Energie_kation
 -------------------------------------
 Structure from the checkpoint file:  "JID_5670.chk"
 Charge =  1 Multiplicity = 2

 SCF Done:  E(UB3LYP) =  -667.579493921     A.U. after   33 cycles
 SCF Done:  E(UB3LYP) =  -667.579493921     a.u. after    1 cycles
 Normal termination of Gaussian 16 at Thu Dec 10 17:10:19 2020.
 Gaussian 16:  ES64L-G16RevA.03 25-Dec-2016

 ----------------------------------------------------------------------
 # B3LYP/6-311++G(d,p) empiricaldispersion=gd3bj scf=xqc pop=npa geom=c
 heck
 ----------------------------------------------------------------------

 ------------------------------------
 CID_104844493_JID_5670_Energie_anion
 ------------------------------------
 Structure from the checkpoint file:  "JID_5670.chk"
 Charge = -1 Multiplicity = 2

                         Standard orientation:
 ---------------------------------------------------------------------
 Center     Atomic      Atomic             Coordinates (Angstroms)
 Number     Number       Type             X           Y           Z
 ---------------------------------------------------------------------
      1          6           0       -2.155854   -0.226800    1.750635
      2          6           0       -2.328769   -0.643754    0.301340
      3          6           0       -1.960655   -2.052127   -0.113597
      4          6           0       -3.409300   -1.643797   -0.026000
      5          7           0       -2.185647    0.411555   -0.684304
      6          6           0       -1.185659    1.354232   -0.783905
      7          8           0       -1.392764    2.425864   -1.342663
      8          6           0        0.171426    1.050819   -0.214862
      9          6           0        0.787029   -0.200684   -0.267568
     10          6           0        2.076128   -0.355529    0.253446
     11          7           0        2.747848    0.652325    0.829493
     12          6           0        2.155337    1.851463    0.867718
     13          6           0        0.888385    2.108872    0.349601
     14          6           0        2.784135   -1.687246    0.148980
     15          7           0        3.544705   -1.750250   -1.107776
     16          1           0       -2.343124   -1.074187    2.417977
     17          1           0       -2.861815    0.571967    2.005403
     18          1           0       -1.142295    0.136041    1.944377
     19          1           0       -1.550350   -2.188421   -1.108995
     20          1           0       -1.553441   -2.715827    0.644045
     21          1           0       -4.012970   -2.016564    0.796267
     22          1           0       -3.949144   -1.518591   -0.960682
     23          1           0       -3.055842    0.791325   -1.043095
     24          1           0        0.281917   -1.048292   -0.712396
     25          1           0        2.726536    2.649690    1.337986
     26          1           0        0.453858    3.101591    0.379830
     27          1           0        3.495689   -1.759620    0.976254
     28          1           0        2.041221   -2.497128    0.269039
     29          1           0        4.030700   -2.644027   -1.164694
     30          1           0        2.899612   -1.722969   -1.896645
 ---------------------------------------------------------------------

 SCF Done:  E(UB3LYP) =  -667.903229961     A.U. after   32 cycles

 The electronic state is 2-A.
 Alpha  occ. eigenvalues --  -18.94394 -14.20771 -14.17658 -14.14293 -10.12300
 Alpha  occ. eigenvalues --  -10.12124 -10.08112 -10.07585 -10.06984 -10.06468
 Alpha  occ. eigenvalues --  -10.06129 -10.05413 -10.03210 -10.03085 -10.02585
 Alpha  occ. eigenvalues --   -0.89964  -0.81688  -0.79567  -0.75912  -0.73565
 Alpha  occ. eigenvalues --   -0.66140  -0.62572  -0.61712  -0.54551  -0.52129
 Alpha  occ. eigenvalues --   -0.51225  -0.49056  -0.46898  -0.42743  -0.40997
 Alpha  occ. eigenvalues --   -0.38122  -0.37782  -0.35866  -0.35060  -0.32873
 Alpha  occ. eigenvalues --   -0.32240  -0.31712  -0.30970  -0.30504  -0.29212
 Alpha  occ. eigenvalues --   -0.27885  -0.27176  -0.26928  -0.26405  -0.24708
 Alpha  occ. eigenvalues --   -0.24333  -0.21745  -0.20943  -0.19390  -0.14701
 Alpha  occ. eigenvalues --   -0.13437  -0.12823  -0.12408  -0.11613  -0.10762
 Alpha  occ. eigenvalues --    0.04440
 Alpha virt. eigenvalues --    0.06731   0.07488   0.08624   0.09261   0.09739
 Alpha virt. eigenvalues --    0.10373   0.10650   0.11792   0.12056   0.12330
 Alpha virt. eigenvalues --    0.12624   0.13392   0.13633   0.13913   0.15226

  Beta  occ. eigenvalues --  -18.94158 -14.20751 -14.17620 -14.13825 -10.12131
  Beta  occ. eigenvalues --  -10.12118 -10.08099 -10.07573 -10.06983 -10.06467
  Beta  occ. eigenvalues --  -10.06133 -10.05415 -10.03157 -10.02807 -10.02482
  Beta  occ. eigenvalues --   -0.89560  -0.81578  -0.79058  -0.75739  -0.73473
  Beta  occ. eigenvalues --   -0.65531  -0.62342  -0.61696  -0.54311  -0.51906
  Beta  occ. eigenvalues --   -0.50909  -0.48872  -0.46773  -0.42563  -0.40930
  Beta  occ. eigenvalues --   -0.38006  -0.37689  -0.35745  -0.34883  -0.32699
  Beta  occ. eigenvalues --   -0.32090  -0.31656  -0.30824  -0.30302  -0.29065
  Beta  occ. eigenvalues --   -0.27815  -0.27098  -0.26375  -0.25959  -0.24523
  Beta  occ. eigenvalues --   -0.23377  -0.21570  -0.20712  -0.19277  -0.13326
  Beta  occ. eigenvalues --   -0.12951  -0.12592  -0.11696  -0.10816  -0.10244
  Beta virt. eigenvalues --    0.06660   0.07641   0.08552   0.09254   0.09715
  Beta virt. eigenvalues --    0.10198   0.10463   0.10581   0.11718   0.11989
  Beta virt. eigenvalues --    0.12446   0.12744   0.13392   0.13594   0.13947

 Mulliken charges and spin densities:
               1          2
     1  C   -0.642975  -0.069230
     2  C    0.087515   0.240053
     3  C   -0.139815  -0.211269
     4  C   -0.139340  -0.238052
     5  N   -0.160982   0.008740
     6  C   -0.296433   0.067666
     7  O   -0.372052   0.082675
     8  C    0.781395   0.161713
     9  C   -0.031513   0.290244
    10  C   -0.292579  -0.273653
    11  N   -0.015645   0.223951
    12  C   -0.002156   0.019627
    13  C   -0.351745   0.105855
    14  C   -0.714851  -0.245748
    15  N   -0.307768  -0.024600
    16  H    0.089880   0.019742
    17  H    0.156514  -0.004652
    18  H    0.207974  -0.004091
    19  H   -0.035087   0.193592
    20  H    0.118879   0.035158
    21  H    0.065273   0.068089
    22  H    0.029979   0.103113
    23  H    0.268792   0.014927
    24  H    0.152868   0.009951
    25  H    0.141914  -0.002547
    26  H    0.167130  -0.005915
    27  H    0.121302   0.048521
    28  H   -0.006906   0.092495
    29  H    0.007356   0.207127
    30  H    0.113076   0.086519
 Sum of Mulliken charges =  -1.00000   1.00000

 Dipole moment (field-independent basis, Debye):
    X=             -5.5317    Y=             -3.4013    Z=              2.8306  Tot=              7.0838
 Quadrupole moment (field-independent basis, Debye-Ang):
   XX=           -135.2154   YY=           -119.7857   ZZ=           -107.7059
   XY=              3.7908   XZ=             -3.7569   YZ=              3.7834

 Summary of Natural Population Analysis:

                                       Natural Population
                Natural  -----------------------------------------------
    Atom  No    Charge         Core      Valence    Rydberg      Total
 -----------------------------------------------------------------------
      C    1   -0.28621      0.99962     2.28234    0.00425     3.28621
      C    2    0.05488      0.99955     1.93402    0.01155     2.94512
      C    3   -0.19756      0.99959     2.18861    0.00937     3.19756
      C    4   -0.19977      0.99959     2.19094    0.00924     3.19977
      N    5   -0.32716      0.99965     2.81702    0.01049     3.82716
      C    6    0.36135      0.99962     1.61499    0.02404     2.63865
      O    7   -0.30453      0.99988     3.29943    0.00522     4.30453
      C    8   -0.00970      0.99946     2.00005    0.01019     3.00970
      C    9   -0.11143      0.99947     2.10320    0.00875     3.11143
      C   10    0.09144      0.99954     1.89310    0.01592     2.90856
      N   11   -0.17825      0.99968     2.66691    0.01166     3.67825
      C   12    0.01710      0.99960     1.97009    0.01321     2.98290
      C   13   -0.09067      0.99952     2.08136    0.00979     3.09067
      C   14   -0.10132      0.99959     2.08807    0.01366     3.10132
      N   15   -0.41448      0.99977     2.90434    0.01037     3.91448
      H   16    0.09440      0.00000     0.40489    0.00071     0.40560
      H   17    0.09750      0.00000     0.40170    0.00080     0.40250
      H   18    0.11506      0.00000     0.38422    0.00072     0.38494
      H   19    0.10856      0.00000     0.39015    0.00129     0.39144
      H   20    0.10187      0.00000     0.39717    0.00096     0.39813
      H   21    0.09887      0.00000     0.40028    0.00085     0.40113
      H   22    0.10306      0.00000     0.39591    0.00103     0.39694
      H   23    0.18701      0.00000     0.31065    0.00234     0.31299
      H   24    0.09776      0.00000     0.40036    0.00188     0.40224
      H   25    0.07964      0.00000     0.41924    0.00111     0.42036
      H   26    0.10324      0.00000     0.39590    0.00086     0.39676
      H   27    0.09545      0.00000     0.40275    0.00180     0.40455
      H   28    0.07468      0.00000     0.42370    0.00162     0.42532
      H   29    0.16750      0.00000     0.33048    0.00202     0.33250
      H   30    0.17172      0.00000     0.32664    0.00164     0.32828
 =======================================================================
   * Total *   -0.00000     14.99412    39.81853    0.18735    55.00000

 Normal termination of Gaussian 16 at Thu Dec 10 17:25:02 2020.
