 Gaussian 16, Revision A.03,

 -----------------------------------------------------------
 # opt freq B3LYP/6-31G(d) empiricaldispersion=gd3bj scf=xqc
 -----------------------------------------------------------

 ------------------------------
 CID_64843651_JID_2954_neutraal
 ------------------------------
 Symbolic Z-matrix:
 Charge =  0 Multiplicity = 1

 SCF Done:  E(RB3LYP) =  -503.862364721     A.U. after   13 cycles
 SCF Done:  E(RB3LYP) =  -503.866050379     A.U. after   11 cycles
 SCF Done:  E(RB3LYP) =  -503.866695812     A.U. after   10 cycles
 SCF Done:  E(RB3LYP) =  -503.866822121     A.U. after   10 cycles
 SCF Done:  E(RB3LYP) =  -503.866844646     A.U. after    9 cycles
 SCF Done:  E(RB3LYP) =  -503.866860860     A.U. after    9 cycles
 SCF Done:  E(RB3LYP) =  -503.866862577     A.U. after    7 cycles
 SCF Done:  E(RB3LYP) =  -503.866862800     A.U. after    6 cycles
 SCF Done:  E(RB3LYP) =  -503.866862841     A.U. after    6 cycles
 Optimization completed.
    -- Stationary point found.
 Normal termination of Gaussian 16 at Wed Dec  9 18:27:35 2020.

 --------------------------------------------------------------------
 #N Geom=AllCheck Guess=TCheck SCRF=Check GenChk RB3LYP/6-31G(d) Freq
 --------------------------------------------------------------------

 Structure from the checkpoint file:  "JID_2954.chk"
 ------------------------------
 CID_64843651_JID_2954_neutraal
 ------------------------------
 Charge =  0 Multiplicity = 1

 SCF Done:  E(RB3LYP) =  -503.866862841     A.U. after    1 cycles

  Exact polarizability: 128.924   0.627 118.541  -0.899   0.049 104.488
 Approx polarizability: 159.127   0.414 164.373  -3.236   0.341 160.067

                      1                      2                      3
                      A                      A                      A
 Frequencies --     56.8410                72.4545                79.7532
 Red. masses --      2.7562                 2.4752                 2.8570
 Frc consts  --      0.0052                 0.0077                 0.0107
 IR Inten    --      0.1961                 0.0830                 0.0458

                      4                      5                      6
                      A                      A                      A
 Frequencies --    110.5629               201.8660               210.9264
 Red. masses --      2.0048                 1.3655                 1.9894
 Frc consts  --      0.0144                 0.0328                 0.0521
 IR Inten    --      0.0835                 0.5450                 0.7497

                      7                      8                      9
                      A                      A                      A
 Frequencies --    218.3378               240.3407               249.5876
 Red. masses --      1.6652                 1.4300                 1.1378
 Frc consts  --      0.0468                 0.0487                 0.0418
 IR Inten    --      0.7762                 0.0087                 0.1174

                     10                     11                     12
                      A                      A                      A
 Frequencies --    258.6932               277.2113               293.3619
 Red. masses --      1.8517                 1.8066                 1.7677
 Frc consts  --      0.0730                 0.0818                 0.0896
 IR Inten    --      1.0328                 0.9479                 1.6142

                     13                     14                     15
                      A                      A                      A
 Frequencies --    310.6631               377.7609               381.0020
 Red. masses --      2.0670                 2.2286                 2.1963
 Frc consts  --      0.1175                 0.1874                 0.1878
 IR Inten    --      4.7088                 1.0974                 0.8407

                     16                     17                     18
                      A                      A                      A
 Frequencies --    413.4969               455.0668               480.8524
 Red. masses --      2.7630                 2.5304                 2.8335
 Frc consts  --      0.2783                 0.3087                 0.3860
 IR Inten    --      3.1912                 0.5008                 3.0969

                     19                     20                     21
                      A                      A                      A
 Frequencies --    496.7547               532.2247               577.3224
 Red. masses --      2.2657                 2.9566                 2.5586
 Frc consts  --      0.3294                 0.4934                 0.5024
 IR Inten    --     13.1251                 2.0768                 1.6941

                     22                     23                     24
                      A                      A                      A
 Frequencies --    701.5725               737.9820               779.1849
 Red. masses --      2.5358                 2.6583                 1.6794
 Frc consts  --      0.7354                 0.8530                 0.6007
 IR Inten    --      1.2929                16.6768                27.2494

                     25                     26                     27
                      A                      A                      A
 Frequencies --    814.2305               848.1480               867.4015
 Red. masses --      1.7006                 1.7489                 2.2849
 Frc consts  --      0.6643                 0.7412                 1.0129
 IR Inten    --     64.8799                12.4413                 9.6765

                     28                     29                     30
                      A                      A                      A
 Frequencies --    918.3909               924.7430               936.4489
 Red. masses --      1.7322                 1.7784                 1.2869
 Frc consts  --      0.8608                 0.8960                 0.6649
 IR Inten    --     19.7550                 6.1181                 0.3920

                     31                     32                     33
                      A                      A                      A
 Frequencies --    957.9207               966.1150               990.0278
 Red. masses --      1.4276                 1.6558                 1.9238
 Frc consts  --      0.7718                 0.9106                 1.1110
 IR Inten    --      1.7912                 5.2692                11.6708

                     34                     35                     36
                      A                      A                      A
 Frequencies --   1002.2235              1046.4627              1065.0950
 Red. masses --      1.5620                 1.9945                 2.2366
 Frc consts  --      0.9244                 1.2868                 1.4949
 IR Inten    --      2.3652                 4.4700                 5.9851

                     37                     38                     39
                      A                      A                      A
 Frequencies --   1090.5859              1098.8440              1121.9463
 Red. masses --      2.1668                 2.0503                 2.0093
 Frc consts  --      1.5184                 1.4586                 1.4902
 IR Inten    --     21.1387                 8.8775                13.8293

                     40                     41                     42
                      A                      A                      A
 Frequencies --   1129.9010              1154.1414              1168.7466
 Red. masses --      2.1145                 2.1456                 2.0243
 Frc consts  --      1.5905                 1.6839                 1.6291
 IR Inten    --      1.1287                11.2892                19.1500

                     43                     44                     45
                      A                      A                      A
 Frequencies --   1196.9799              1199.2567              1228.2140
 Red. masses --      2.2386                 2.3724                 2.3299
 Frc consts  --      1.8897                 2.0103                 2.0708
 IR Inten    --      4.7968                11.2425                16.8145

                     46                     47                     48
                      A                      A                      A
 Frequencies --   1235.5941              1282.1642              1299.4284
 Red. masses --      2.5889                 1.2812                 1.3399
 Frc consts  --      2.3287                 1.2409                 1.3329
 IR Inten    --     59.5622                 5.5010                15.5423

                     49                     50                     51
                      A                      A                      A
 Frequencies --   1321.7117              1337.9707              1346.8684
 Red. masses --      1.2818                 1.2730                 1.2569
 Frc consts  --      1.3193                 1.3427                 1.3434
 IR Inten    --      4.2178                13.0828                 8.0143

                     52                     53                     54
                      A                      A                      A
 Frequencies --   1376.4170              1383.4467              1394.2392
 Red. masses --      1.3134                 1.3463                 1.3890
 Frc consts  --      1.4661                 1.5181                 1.5908
 IR Inten    --      6.3698                 9.0962                 8.3763

                     55                     56                     57
                      A                      A                      A
 Frequencies --   1414.1931              1417.8252              1420.2681
 Red. masses --      1.4255                 1.3735                 1.2618
 Frc consts  --      1.6797                 1.6268                 1.4996
 IR Inten    --      5.2588                 7.9971                 8.3548

                     58                     59                     60
                      A                      A                      A
 Frequencies --   1427.6503              1432.2256              1437.7678
 Red. masses --      1.3564                 1.3162                 1.2657
 Frc consts  --      1.6289                 1.5908                 1.5415
 IR Inten    --      4.7991                 6.7417                 9.1802

                     61                     62                     63
                      A                      A                      A
 Frequencies --   1439.5788              1445.4103              1504.6766
 Red. masses --      1.2790                 1.2647                 1.0945
 Frc consts  --      1.5617                 1.5568                 1.4600
 IR Inten    --      1.9861                19.1740                 1.8338

                     64                     65                     66
                      A                      A                      A
 Frequencies --   1511.1883              1515.8620              1520.3604
 Red. masses --      1.2050                 1.0471                 1.0825
 Frc consts  --      1.6214                 1.4176                 1.4742
 IR Inten    --      6.8032                 2.1031                 0.7090

                     67                     68                     69
                      A                      A                      A
 Frequencies --   1523.1895              1525.5777              1529.0341
 Red. masses --      1.0436                 1.0633                 1.0663
 Frc consts  --      1.4265                 1.4580                 1.4688
 IR Inten    --      4.2211                 1.1310                 2.5438

                     70                     71                     72
                      A                      A                      A
 Frequencies --   1531.3491              1532.6808              1539.6398
 Red. masses --      1.0660                 1.0448                 1.0487
 Frc consts  --      1.4728                 1.4461                 1.4647
 IR Inten    --      1.0577                 5.7882                 3.2213

                     73                     74                     75
                      A                      A                      A
 Frequencies --   1542.8391              1545.9049              2881.8844
 Red. masses --      1.0827                 1.0604                 1.0799
 Frc consts  --      1.5184                 1.4931                 5.2845
 IR Inten    --      6.3725                 4.7846                48.7666

                     76                     77                     78
                      A                      A                      A
 Frequencies --   2913.6988              3034.8512              3040.6807
 Red. masses --      1.0733                 1.0843                 1.0645
 Frc consts  --      5.3685                 5.8840                 5.7987
 IR Inten    --     91.5532                41.4071                38.7957

                     79                     80                     81
                      A                      A                      A
 Frequencies --   3046.6330              3048.4413              3048.6358
 Red. masses --      1.0436                 1.0506                 1.0369
 Frc consts  --      5.7074                 5.7525                 5.6780
 IR Inten    --     31.8992                29.7307                12.7495

                     82                     83                     84
                      A                      A                      A
 Frequencies --   3054.7052              3055.0366              3082.4734
 Red. masses --      1.0361                 1.0435                 1.0857
 Frc consts  --      5.6962                 5.7382                 6.0777
 IR Inten    --     12.6965                33.1373                 8.7805

                     85                     86                     87
                      A                      A                      A
 Frequencies --   3088.6246              3094.3469              3105.7608
 Red. masses --      1.0977                 1.1023                 1.0904
 Frc consts  --      6.1696                 6.2186                 6.1970
 IR Inten    --     28.7827                 9.6124                23.3485

                     88                     89                     90
                      A                      A                      A
 Frequencies --   3109.9146              3114.7662              3117.2616
 Red. masses --      1.0991                 1.0991                 1.1013
 Frc consts  --      6.2631                 6.2828                 6.3053
 IR Inten    --     52.5741                19.6332                19.1764

                     91                     92                     93
                      A                      A                      A
 Frequencies --   3118.3469              3124.1070              3130.8709
 Red. masses --      1.1016                 1.0996                 1.1010
 Frc consts  --      6.3111                 6.3230                 6.3589
 IR Inten    --     44.3737                63.3729                52.2140

                     94                     95                     96
                      A                      A                      A
 Frequencies --   3133.6940              3138.8053              3470.4580
 Red. masses --      1.1023                 1.1001                 1.0738
 Frc consts  --      6.3779                 6.3858                 7.6202
 IR Inten    --     23.0602                31.1744                 2.7938

 - Thermochemistry -
 -------------------
 Temperature   298.150 Kelvin.  Pressure   1.00000 Atm.
 Atom     1 has atomic number  6 and mass  12.00000

 Molecular mass:   170.17830 amu.
 Principal axes and moments of inertia in atomic units:
                           1         2         3
     Eigenvalues --  1365.538542766.923563408.20399
           X            0.99994   0.00729   0.00779
           Y           -0.00724   0.99995  -0.00724
           Z           -0.00785   0.00718   0.99994
 This molecule is an asymmetric top.
 Rotational symmetry number  1.
 Warning -- assumption of classical behavior for rotation
           may cause significant error
 Rotational temperatures (Kelvin)      0.06343     0.03130     0.02541
 Rotational constants (GHZ):           1.32163     0.65226     0.52953
 Zero-point vibrational energy     836959.5 (Joules/Mol)
                                  200.03812 (Kcal/Mol)
 Warning -- explicit consideration of  21 degrees of freedom as
           vibrations may cause significant error
 Vibrational temperatures:     81.78   104.25   114.75   159.08   290.44
          (Kelvin)            303.48   314.14   345.80   359.10   372.20
                              398.85   422.08   446.97   543.51   548.18
                              594.93   654.74   691.84   714.72   765.75
                              830.64  1009.41  1061.79  1121.07  1171.50
                             1220.30  1248.00  1321.36  1330.50  1347.34
                             1378.23  1390.02  1424.43  1441.98  1505.63
                             1532.43  1569.11  1580.99  1614.23  1625.68
                             1660.55  1681.57  1722.19  1725.46  1767.13
                             1777.74  1844.75  1869.59  1901.65  1925.04
                             1937.84  1980.36  1990.47  2006.00  2034.71
                             2039.93  2043.45  2054.07  2060.65  2068.63
                             2071.23  2079.62  2164.89  2174.26  2180.99
                             2187.46  2191.53  2194.97  2199.94  2203.27
                             2205.19  2215.20  2219.80  2224.21  4146.39
                             4192.16  4366.47  4374.86  4383.43  4386.03
                             4386.31  4395.04  4395.52  4434.99  4443.84
                             4452.08  4468.50  4474.47  4481.45  4485.04
                             4486.61  4494.89  4504.62  4508.69  4516.04
                             4993.22

 Zero-point correction=                           0.318781 (Hartree/Particle)
 Thermal correction to Energy=                    0.332390
 Thermal correction to Enthalpy=                  0.333334
 Thermal correction to Gibbs Free Energy=         0.279576
 Sum of electronic and zero-point Energies=           -503.548082
 Sum of electronic and thermal Energies=              -503.534473
 Sum of electronic and thermal Enthalpies=            -503.533529
 Sum of electronic and thermal Free Energies=         -503.587287

                     E (Thermal)             CV                S
                      KCal/Mol        Cal/Mol-Kelvin    Cal/Mol-Kelvin
 Total                  208.578             52.867            113.144
 Electronic               0.000              0.000              0.000
 Translational            0.889              2.981             41.303
 Rotational               0.889              2.981             30.933
 Vibrational            206.800             46.905             40.908
 Vibration     1          0.596              1.975              4.564
 Vibration     2          0.599              1.967              4.086
 Vibration     3          0.600              1.963              3.897
 Vibration     4          0.606              1.941              3.259
 Vibration     5          0.639              1.837              2.116
 Vibration     6          0.643              1.824              2.036
 Vibration     7          0.646              1.813              1.973
 Vibration     8          0.657              1.779              1.800
 Vibration     9          0.662              1.763              1.733
 Vibration    10          0.668              1.748              1.671
 Vibration    11          0.678              1.716              1.551
 Vibration    12          0.688              1.686              1.454
 Vibration    13          0.700              1.653              1.359
 Vibration    14          0.748              1.518              1.048
 Vibration    15          0.751              1.511              1.035
 Vibration    16          0.777              1.441              0.914
 Vibration    17          0.813              1.350              0.781
 Vibration    18          0.837              1.293              0.708
 Vibration    19          0.852              1.257              0.666
 Vibration    20          0.887              1.179              0.582
 Vibration    21          0.934              1.080              0.490

 Optimization completed.
    -- Stationary point found.
 Normal termination of Gaussian 16 at Wed Dec  9 18:37:10 2020.

 ----------------------------------------------------------------------
 # B3LYP/6-311++G(d,p) empiricaldispersion=gd3bj scf=xqc pop=npa geom=c
 heck
 ----------------------------------------------------------------------

 --------------------------------------
 CID_64843651_JID_2954_Energie_neutraal
 --------------------------------------
 Structure from the checkpoint file:  "JID_2954.chk"
 Charge =  0 Multiplicity = 1

 SCF Done:  E(RB3LYP) =  -504.009200322     A.U. after   13 cycles
 Normal termination of Gaussian 16 at Wed Dec  9 18:40:47 2020.

 ----------------------------------------------------------------------
 # B3LYP/6-311++G(d,p) empiricaldispersion=gd3bj scf=xqc pop=npa geom=c
 heck
 ----------------------------------------------------------------------

 ------------------------------------
 CID_64843651_JID_2954_Energie_kation
 ------------------------------------
 Structure from the checkpoint file:  "JID_2954.chk"
 Charge =  1 Multiplicity = 2

 SCF Done:  E(UB3LYP) =  -503.735296191     A.U. after   19 cycles
 Normal termination of Gaussian 16 at Wed Dec  9 18:47:25 2020.
 Gaussian 16:  ES64L-G16RevA.03 25-Dec-2016

 ----------------------------------------------------------------------
 # B3LYP/6-311++G(d,p) empiricaldispersion=gd3bj scf=xqc pop=npa geom=c
 heck
 ----------------------------------------------------------------------

 -----------------------------------
 CID_64843651_JID_2954_Energie_anion
 -----------------------------------
 Structure from the checkpoint file:  "JID_2954.chk"
 Charge = -1 Multiplicity = 2

                         Standard orientation:
 ---------------------------------------------------------------------
 Center     Atomic      Atomic             Coordinates (Angstroms)
 Number     Number       Type             X           Y           Z
 ---------------------------------------------------------------------
      1          6           0       -3.640579   -0.807595   -0.631304
      2          6           0       -2.146150   -1.089257   -0.479640
      3          6           0       -1.538802   -0.477705    0.792294
      4          6           0       -0.035693   -0.776597    0.906236
      5          7           0        0.714674   -0.064825   -0.129098
      6          6           0        0.563466    1.387351    0.049718
      7          6           0       -0.937421    1.729207   -0.033674
      8          7           0       -1.800456    0.970168    0.869605
      9          6           0        1.322972    2.204892   -0.995607
     10          6           0        2.097139   -0.545357   -0.312598
     11          6           0        3.000220   -0.388098    0.923662
     12          6           0        2.111641   -1.987891   -0.831355
     13          1           0       -4.206161   -1.212158    0.217536
     14          1           0       -4.037857   -1.262396   -1.545866
     15          1           0       -3.828578    0.269059   -0.664629
     16          1           0       -1.968986   -2.172903   -0.444971
     17          1           0       -1.595004   -0.724067   -1.352772
     18          1           0       -2.041052   -0.930903    1.657825
     19          1           0        0.301177   -0.494546    1.924267
     20          1           0        0.131152   -1.851721    0.798064
     21          1           0        0.915191    1.693881    1.058228
     22          1           0       -1.271089    1.555064   -1.063974
     23          1           0       -1.077958    2.796043    0.175887
     24          1           0       -1.613487    1.275130    1.824318
     25          1           0        1.020278    3.255815   -0.928536
     26          1           0        2.407437    2.169746   -0.858697
     27          1           0        1.088597    1.845693   -2.004121
     28          1           0        2.518735    0.068312   -1.113647
     29          1           0        2.658719   -1.021147    1.750304
     30          1           0        4.029405   -0.679712    0.685633
     31          1           0        3.019579    0.648117    1.279021
     32          1           0        1.405135   -2.098320   -1.659914
     33          1           0        3.114681   -2.245145   -1.188954
     34          1           0        1.849808   -2.714946   -0.054949
 ---------------------------------------------------------------------

 SCF Done:  E(UB3LYP) =  -503.992868032     A.U. after   27 cycles

 The electronic state is 2-A.
 Alpha  occ. eigenvalues --  -14.19501 -14.19098 -10.09261 -10.09240 -10.09018
 Alpha  occ. eigenvalues --  -10.08499 -10.08003 -10.06045 -10.05877 -10.05614
 Alpha  occ. eigenvalues --  -10.05295 -10.04863  -0.83604  -0.78775  -0.68965
 Alpha  occ. eigenvalues --   -0.67088  -0.64899  -0.59507  -0.58134  -0.56101
 Alpha  occ. eigenvalues --   -0.52762  -0.50019  -0.46618  -0.44008  -0.40044
 Alpha  occ. eigenvalues --   -0.37832  -0.36195  -0.35353  -0.34356  -0.33527
 Alpha  occ. eigenvalues --   -0.32577  -0.31779  -0.30295  -0.29712  -0.28561
 Alpha  occ. eigenvalues --   -0.28067  -0.27621  -0.27053  -0.26143  -0.25129
 Alpha  occ. eigenvalues --   -0.24705  -0.23913  -0.23505  -0.22545  -0.22005
 Alpha  occ. eigenvalues --   -0.21394  -0.12926  -0.10433   0.04625
 Alpha virt. eigenvalues --    0.06773   0.07125   0.07374   0.08861   0.09120
 Alpha virt. eigenvalues --    0.09309   0.09928   0.10191   0.11293   0.11613
 Alpha virt. eigenvalues --    0.11847   0.12545   0.12624   0.13032   0.13401

  Beta  occ. eigenvalues --  -14.19492 -14.19085 -10.09247 -10.09229 -10.09006
  Beta  occ. eigenvalues --  -10.08488 -10.07984 -10.06024 -10.05868 -10.05603
  Beta  occ. eigenvalues --  -10.05270 -10.04825  -0.83579  -0.78745  -0.68938
  Beta  occ. eigenvalues --   -0.67056  -0.64874  -0.59472  -0.58074  -0.56056
  Beta  occ. eigenvalues --   -0.52720  -0.49969  -0.46576  -0.43956  -0.40005
  Beta  occ. eigenvalues --   -0.37788  -0.36161  -0.35311  -0.34319  -0.33497
  Beta  occ. eigenvalues --   -0.32552  -0.31751  -0.30269  -0.29672  -0.28532
  Beta  occ. eigenvalues --   -0.28030  -0.27596  -0.27020  -0.26109  -0.25090
  Beta  occ. eigenvalues --   -0.24675  -0.23883  -0.23477  -0.22505  -0.21980
  Beta  occ. eigenvalues --   -0.21356  -0.12896  -0.10380
  Beta virt. eigenvalues --    0.06754   0.07461   0.07853   0.07917   0.09330
  Beta virt. eigenvalues --    0.09617   0.09828   0.10429   0.10452   0.11641
  Beta virt. eigenvalues --    0.11950   0.12287   0.12871   0.13041   0.13373

 Mulliken charges and spin densities:
               1          2
     1  C    0.073612  -0.654019
     2  C   -0.261503  -0.002234
     3  C    1.857537  -1.700435
     4  C   -1.089703   0.391084
     5  N    0.377072  -0.027370
     6  C   -0.477284   0.561914
     7  C    0.360571  -1.053031
     8  N   -0.266526   0.215758
     9  C    0.411048  -0.977325
    10  C   -1.966887   1.935474
    11  C    1.547360  -2.100501
    12  C    0.605134  -1.142196
    13  H    0.009325   0.110724
    14  H   -0.019464   0.134039
    15  H    0.123738   0.026322
    16  H   -0.052489   0.189243
    17  H    0.175652  -0.021327
    18  H   -0.370594   0.586617
    19  H   -0.303240   0.438483
    20  H    0.147133  -0.013692
    21  H   -0.037263   0.173860
    22  H    0.162487   0.000684
    23  H   -0.103281   0.267063
    24  H   -0.075325   0.328035
    25  H   -0.107796   0.244890
    26  H   -0.235411   0.403710
    27  H    0.044542   0.106325
    28  H   -0.106861   0.270935
    29  H   -0.227900   0.381988
    30  H   -0.481372   0.641343
    31  H   -0.156441   0.301692
    32  H   -0.009831   0.145153
    33  H   -0.286983   0.434907
    34  H   -0.259057   0.401885
 Sum of Mulliken charges =  -1.00000   1.00000

 Dipole moment (field-independent basis, Debye):
    X=             -3.8230    Y=              0.6182    Z=             -2.9783  Tot=              4.8854
 Quadrupole moment (field-independent basis, Debye-Ang):
   XX=           -148.8069   YY=           -124.0673   ZZ=           -115.9931
   XY=              2.9849   XZ=              1.6647   YZ=             -1.5671

 Summary of Natural Population Analysis:

                                       Natural Population
                Natural  -----------------------------------------------
    Atom  No    Charge         Core      Valence    Rydberg      Total
 -----------------------------------------------------------------------
      C    1   -0.28471      0.99966     2.28070    0.00434     3.28471
      C    2   -0.19628      0.99961     2.18775    0.00892     3.19628
      C    3   -0.01125      0.99958     1.99706    0.01461     3.01125
      C    4   -0.09395      0.99958     2.08169    0.01268     3.09395
      N    5   -0.28801      0.99969     2.77633    0.01199     3.78801
      C    6   -0.01429      0.99958     2.00190    0.01281     3.01429
      C    7   -0.08880      0.99959     2.07665    0.01256     3.08880
      N    8   -0.34097      0.99975     2.82788    0.01335     3.84097
      C    9   -0.29168      0.99964     2.28591    0.00613     3.29168
      C   10   -0.00685      0.99960     1.99440    0.01285     3.00685
      C   11   -0.29711      0.99964     2.29167    0.00581     3.29711
      C   12   -0.28668      0.99964     2.28129    0.00574     3.28668
      H   13    0.09368      0.00000     0.40521    0.00111     0.40632
      H   14    0.09264      0.00000     0.40660    0.00076     0.40736
      H   15    0.10357      0.00000     0.39526    0.00117     0.39643
      H   16    0.09584      0.00000     0.40313    0.00102     0.40416
      H   17    0.10033      0.00000     0.39808    0.00160     0.39967
      H   18    0.09414      0.00000     0.40418    0.00168     0.40586
      H   19    0.08418      0.00000     0.41374    0.00208     0.41582
      H   20    0.10002      0.00000     0.39816    0.00181     0.39998
      H   21    0.07934      0.00000     0.41793    0.00273     0.42066
      H   22    0.08946      0.00000     0.40914    0.00139     0.41054
      H   23    0.09508      0.00000     0.40405    0.00087     0.40492
      H   24    0.17386      0.00000     0.32343    0.00271     0.32614
      H   25    0.10125      0.00000     0.39788    0.00087     0.39875
      H   26    0.10308      0.00000     0.39581    0.00111     0.39692
      H   27    0.09968      0.00000     0.39924    0.00108     0.40032
      H   28    0.09381      0.00000     0.40383    0.00236     0.40619
      H   29    0.09856      0.00000     0.40022    0.00121     0.40144
      H   30    0.10208      0.00000     0.39641    0.00151     0.39792
      H   31    0.10096      0.00000     0.39775    0.00129     0.39904
      H   32    0.10197      0.00000     0.39682    0.00121     0.39803
      H   33    0.10118      0.00000     0.39790    0.00092     0.39882
      H   34    0.09588      0.00000     0.40302    0.00110     0.40412
 =======================================================================
   * Total *   -0.00000     11.99557    35.85104    0.15339    48.00000

 Normal termination of Gaussian 16 at Wed Dec  9 18:56:45 2020.
