 Gaussian 16, Revision A.03,

 -----------------------------------------------------------
 # opt freq B3LYP/6-31G(d) empiricaldispersion=gd3bj scf=xqc
 -----------------------------------------------------------

 ------------------------------
 CID_19298160_JID_8989_neutraal
 ------------------------------
 Symbolic Z-matrix:
 Charge =  0 Multiplicity = 1

 SCF Done:  E(RB3LYP) =  -926.759431463     A.U. after   16 cycles
 SCF Done:  E(RB3LYP) =  -926.764743197     A.U. after   14 cycles
 SCF Done:  E(RB3LYP) =  -926.763513926     A.U. after   14 cycles
 SCF Done:  E(RB3LYP) =  -926.763604557     A.U. after   14 cycles
 SCF Done:  E(RB3LYP) =  -926.765270997     A.U. after   10 cycles
 SCF Done:  E(RB3LYP) =  -926.765440387     A.U. after   13 cycles
 SCF Done:  E(RB3LYP) =  -926.765466670     A.U. after   12 cycles
 SCF Done:  E(RB3LYP) =  -926.765576521     A.U. after   12 cycles
 SCF Done:  E(RB3LYP) =  -926.765587340     A.U. after   11 cycles
 SCF Done:  E(RB3LYP) =  -926.765589255     A.U. after    9 cycles
 SCF Done:  E(RB3LYP) =  -926.765591818     A.U. after    7 cycles
 SCF Done:  E(RB3LYP) =  -926.765591909     A.U. after    7 cycles
 SCF Done:  E(RB3LYP) =  -926.765591972     A.U. after    7 cycles
 SCF Done:  E(RB3LYP) =  -926.765592002     A.U. after    7 cycles
 SCF Done:  E(RB3LYP) =  -926.765592017     A.U. after    7 cycles
 Optimization completed.
    -- Stationary point found.
 Normal termination of Gaussian 16 at Fri Dec 11 23:17:45 2020.

 --------------------------------------------------------------------
 #N Geom=AllCheck Guess=TCheck SCRF=Check GenChk RB3LYP/6-31G(d) Freq
 --------------------------------------------------------------------

 Structure from the checkpoint file:  "JID_8989.chk"
 ------------------------------
 CID_19298160_JID_8989_neutraal
 ------------------------------
 Charge =  0 Multiplicity = 1

 SCF Done:  E(RB3LYP) =  -926.765592017     A.U. after    1 cycles

  Exact polarizability: 245.918   6.803 145.922   1.832   6.012  63.185
 Approx polarizability: 309.566  15.502 293.798   5.966  16.670 102.215

                      1                      2                      3
                      A                      A                      A
 Frequencies --     26.8297                33.4543                46.8939
 Red. masses --      6.1548                 9.1286                 6.0876
 Frc consts  --      0.0026                 0.0060                 0.0079
 IR Inten    --      0.2468                 0.4465                 2.0576

                      4                      5                      6
                      A                      A                      A
 Frequencies --     47.8586                57.4083                80.7073
 Red. masses --      5.0293                 9.0297                 5.7827
 Frc consts  --      0.0068                 0.0175                 0.0222
 IR Inten    --      5.9794                 0.6799                 2.2933

                      7                      8                      9
                      A                      A                      A
 Frequencies --     90.2332               122.0714               133.5767
 Red. masses --      6.3257                 1.0791                 8.6849
 Frc consts  --      0.0303                 0.0095                 0.0913
 IR Inten    --      1.8173                 0.1820                 4.0618

                     10                     11                     12
                      A                      A                      A
 Frequencies --    186.7983               219.9504               262.0525
 Red. masses --      9.4510                 8.1311                 5.5052
 Frc consts  --      0.1943                 0.2318                 0.2227
 IR Inten    --      6.6479                 6.0758                 9.1522

                     13                     14                     15
                      A                      A                      A
 Frequencies --    285.7704               324.1313               332.5264
 Red. masses --      4.9243                 6.8453                 5.5890
 Frc consts  --      0.2369                 0.4237                 0.3641
 IR Inten    --      7.3467                 5.6728                 8.0728

                     16                     17                     18
                      A                      A                      A
 Frequencies --    365.3611               421.2719               426.7137
 Red. masses --      5.5332                 3.0845                 4.3268
 Frc consts  --      0.4352                 0.3225                 0.4642
 IR Inten    --      5.7537                 3.4523                 4.9176

                     19                     20                     21
                      A                      A                      A
 Frequencies --    441.6136               480.5803               488.7592
 Red. masses --      2.0938                 1.9014                 6.7449
 Frc consts  --      0.2406                 0.2587                 0.9493
 IR Inten    --     28.2207                92.5380                 4.5920

                     22                     23                     24
                      A                      A                      A
 Frequencies --    510.7083               536.4369               546.3168
 Red. masses --      3.8893                 6.6318                 5.1096
 Frc consts  --      0.5977                 1.1244                 0.8985
 IR Inten    --     25.1153                 2.0919                 5.2939

                     25                     26                     27
                      A                      A                      A
 Frequencies --    581.6908               617.6869               645.1084
 Red. masses --      1.3189                 4.1352                 6.7900
 Frc consts  --      0.2629                 0.9296                 1.6649
 IR Inten    --    116.7074                59.0883                 0.4277

                     28                     29                     30
                      A                      A                      A
 Frequencies --    690.6248               701.0597               701.9657
 Red. masses --      4.4621                 3.8813                 5.5588
 Frc consts  --      1.2539                 1.1239                 1.6138
 IR Inten    --     20.7775                 3.4192                 1.4048

                     31                     32                     33
                      A                      A                      A
 Frequencies --    718.8606               770.6554               803.3094
 Red. masses --      3.9568                 5.9499                 5.6750
 Frc consts  --      1.2047                 2.0820                 2.1576
 IR Inten    --     54.0475                 5.5410                22.2436

                     34                     35                     36
                      A                      A                      A
 Frequencies --    861.3677               870.0527               887.2491
 Red. masses --      1.2552                 9.4930                 2.0841
 Frc consts  --      0.5487                 4.2339                 0.9666
 IR Inten    --      1.1584                45.8183                29.0644

                     37                     38                     39
                      A                      A                      A
 Frequencies --    897.6098               956.5166               988.9129
 Red. masses --      3.8013                 6.5125                 1.3202
 Frc consts  --      1.8045                 3.5106                 0.7607
 IR Inten    --      7.9734                57.6677                 0.2553

                     40                     41                     42
                      A                      A                      A
 Frequencies --    995.2561              1004.0538              1037.8616
 Red. masses --      2.2517                 1.3305                 2.8910
 Frc consts  --      1.3141                 0.7903                 1.8347
 IR Inten    --    113.1797                 1.2640                 5.6733

                     43                     44                     45
                      A                      A                      A
 Frequencies --   1043.7986              1131.2591              1136.4371
 Red. masses --      1.8500                 2.4420                 2.8256
 Frc consts  --      1.1876                 1.8413                 2.1501
 IR Inten    --      2.0396                28.5399                83.1981

                     46                     47                     48
                      A                      A                      A
 Frequencies --   1144.0566              1159.8219              1173.7546
 Red. masses --      1.5688                 3.4076                 1.9123
 Frc consts  --      1.2098                 2.7008                 1.5522
 IR Inten    --     12.8604               501.0215                 1.5833

                     49                     50                     51
                      A                      A                      A
 Frequencies --   1214.8343              1294.3983              1333.6811
 Red. masses --      1.2767                 5.4900                 1.3445
 Frc consts  --      1.1101                 5.4195                 1.4090
 IR Inten    --      0.1340                74.1448                 1.9007

                     52                     53                     54
                      A                      A                      A
 Frequencies --   1376.8170              1399.3572              1416.7159
 Red. masses --      8.0076                14.0997                 1.3342
 Frc consts  --      8.9434                16.2674                 1.5777
 IR Inten    --     15.4548               408.3545                30.5753

                     55                     56                     57
                      A                      A                      A
 Frequencies --   1440.1762              1452.1489              1484.9417
 Red. masses --      3.6051                 3.3550                 1.0532
 Frc consts  --      4.4056                 4.1683                 1.3682
 IR Inten    --     39.8776                24.1634                13.3515

                     58                     59                     60
                      A                      A                      A
 Frequencies --   1488.9255              1547.1895              1614.5295
 Red. masses --      1.0482                 2.6071                 8.2000
 Frc consts  --      1.3691                 3.6770                12.5937
 IR Inten    --     10.1878                 3.4384                55.9942

                     61                     62                     63
                      A                      A                      A
 Frequencies --   1639.6780              1662.4621              1670.1086
 Red. masses --      1.8150                 5.4433                 5.8367
 Frc consts  --      2.8751                 8.8638                 9.5920
 IR Inten    --     75.4267                16.1363               192.5530

                     64                     65                     66
                      A                      A                      A
 Frequencies --   1704.4255              1824.0325              1844.3332
 Red. masses --      3.2078                11.4104                12.8180
 Frc consts  --      5.4905                22.3675                25.6891
 IR Inten    --    207.6949               120.0866               314.2872

                     67                     68                     69
                      A                      A                      A
 Frequencies --   3065.9063              3125.0099              3179.3492
 Red. masses --      1.0365                 1.0985                 1.1045
 Frc consts  --      5.7405                 6.3204                 6.5779
 IR Inten    --      0.0251                 2.2096                 9.0151

                     70                     71                     72
                      A                      A                      A
 Frequencies --   3216.6764              3239.1694              3256.8483
 Red. masses --      1.0901                 1.0903                 1.0927
 Frc consts  --      6.6454                 6.7402                 6.8289
 IR Inten    --      3.3614                 0.2912                 1.1952

                     73                     74                     75
                      A                      A                      A
 Frequencies --   3258.2506              3577.7053              3688.7445
 Red. masses --      1.0937                 1.0466                 1.1016
 Frc consts  --      6.8407                 7.8931                 8.8315
 IR Inten    --      1.4524                49.5731                43.6803

 - Thermochemistry -
 -------------------
 Temperature   298.150 Kelvin.  Pressure   1.00000 Atm.
 Atom     1 has atomic number  6 and mass  12.00000

 Molecular mass:   251.05422 amu.
 Principal axes and moments of inertia in atomic units:
                           1         2         3
     Eigenvalues --  1166.52193********************
           X            0.99998   0.00598  -0.00058
           Y           -0.00597   0.99998   0.00356
           Z            0.00060  -0.00356   0.99999
 This molecule is an asymmetric top.
 Rotational symmetry number  1.
 Warning -- assumption of classical behavior for rotation
           may cause significant error
 Rotational temperatures (Kelvin)      0.07425     0.00661     0.00612
 Rotational constants (GHZ):           1.54711     0.13768     0.12757
 Zero-point vibrational energy     508433.3 (Joules/Mol)
                                  121.51847 (Kcal/Mol)
 Warning -- explicit consideration of  26 degrees of freedom as
           vibrations may cause significant error
 Vibrational temperatures:     38.60    48.13    67.47    68.86    82.60
          (Kelvin)            116.12   129.83   175.63   192.19   268.76
                              316.46   377.04   411.16   466.35   478.43
                              525.67   606.12   613.95   635.38   691.45
                              703.22   734.80   771.81   786.03   836.92
                              888.71   928.17   993.66  1008.67  1009.97
                             1034.28  1108.80  1155.78  1239.32  1251.81
                             1276.55  1291.46  1376.21  1422.83  1431.95
                             1444.61  1493.25  1501.79  1627.63  1635.08
                             1646.04  1668.72  1688.77  1747.88  1862.35
                             1918.87  1980.93  2013.36  2038.34  2072.09
                             2089.32  2136.50  2142.23  2226.06  2322.95
                             2359.13  2391.91  2402.91  2452.29  2624.38
                             2653.58  4411.16  4496.19  4574.37  4628.08
                             4660.44  4685.88  4687.90  5147.52  5307.28

 Zero-point correction=                           0.193652 (Hartree/Particle)
 Thermal correction to Energy=                    0.210415
 Thermal correction to Enthalpy=                  0.211359
 Thermal correction to Gibbs Free Energy=         0.146233
 Sum of electronic and zero-point Energies=           -926.571940
 Sum of electronic and thermal Energies=              -926.555177
 Sum of electronic and thermal Enthalpies=            -926.554233
 Sum of electronic and thermal Free Energies=         -926.619359

                     E (Thermal)             CV                S
                      KCal/Mol        Cal/Mol-Kelvin    Cal/Mol-Kelvin
 Total                  132.037             60.514            137.069
 Electronic               0.000              0.000              0.000
 Translational            0.889              2.981             42.462
 Rotational               0.889              2.981             33.736
 Vibrational            130.260             54.553             60.871
 Vibration     1          0.593              1.984              6.051
 Vibration     2          0.594              1.983              5.613
 Vibration     3          0.595              1.979              4.944
 Vibration     4          0.595              1.978              4.904
 Vibration     5          0.596              1.975              4.544
 Vibration     6          0.600              1.962              3.874
 Vibration     7          0.602              1.956              3.655
 Vibration     8          0.610              1.931              3.067
 Vibration     9          0.613              1.920              2.894
 Vibration    10          0.632              1.858              2.259
 Vibration    11          0.647              1.811              1.960
 Vibration    12          0.669              1.742              1.648
 Vibration    13          0.684              1.700              1.499
 Vibration    14          0.709              1.627              1.289
 Vibration    15          0.714              1.611              1.248
 Vibration    16          0.739              1.544              1.099
 Vibration    17          0.784              1.424              0.888
 Vibration    18          0.788              1.412              0.869
 Vibration    19          0.801              1.379              0.822
 Vibration    20          0.837              1.293              0.709
 Vibration    21          0.845              1.275              0.687
 Vibration    22          0.866              1.226              0.632
 Vibration    23          0.891              1.169              0.573
 Vibration    24          0.902              1.148              0.552
 Vibration    25          0.938              1.071              0.482
 Vibration    26          0.977              0.995              0.420

 Optimization completed.
    -- Stationary point found.
 Normal termination of Gaussian 16 at Fri Dec 11 23:26:08 2020.

 ----------------------------------------------------------------------
 # B3LYP/6-311++G(d,p) empiricaldispersion=gd3bj scf=xqc pop=npa geom=c
 heck
 ----------------------------------------------------------------------

 --------------------------------------
 CID_19298160_JID_8989_Energie_neutraal
 --------------------------------------
 Structure from the checkpoint file:  "JID_8989.chk"
 Charge =  0 Multiplicity = 1

 SCF Done:  E(RB3LYP) =  -927.038170471     A.U. after   16 cycles
 Normal termination of Gaussian 16 at Fri Dec 11 23:30:10 2020.

 ----------------------------------------------------------------------
 # B3LYP/6-311++G(d,p) empiricaldispersion=gd3bj scf=xqc pop=npa geom=c
 heck
 ----------------------------------------------------------------------

 ------------------------------------
 CID_19298160_JID_8989_Energie_kation
 ------------------------------------
 Structure from the checkpoint file:  "JID_8989.chk"
 Charge =  1 Multiplicity = 2

 SCF Done:  E(UB3LYP) =  -926.708444122     A.U. after   33 cycles
 SCF Done:  E(UB3LYP) =  -926.708444122     a.u. after    1 cycles
 Normal termination of Gaussian 16 at Fri Dec 11 23:41:50 2020.
 Gaussian 16:  ES64L-G16RevA.03 25-Dec-2016

 ----------------------------------------------------------------------
 # B3LYP/6-311++G(d,p) empiricaldispersion=gd3bj scf=xqc pop=npa geom=c
 heck
 ----------------------------------------------------------------------

 -----------------------------------
 CID_19298160_JID_8989_Energie_anion
 -----------------------------------
 Structure from the checkpoint file:  "JID_8989.chk"
 Charge = -1 Multiplicity = 2

                         Standard orientation:
 ---------------------------------------------------------------------
 Center     Atomic      Atomic             Coordinates (Angstroms)
 Number     Number       Type             X           Y           Z
 ---------------------------------------------------------------------
      1          6           0       -6.159022   -0.916388    0.178459
      2          6           0       -4.990538    0.010583   -0.026974
      3          8           0       -5.080432    1.187806   -0.302396
      4          6           0       -3.608135   -0.663425    0.136246
      5          8           0       -3.459238   -1.836756    0.364940
      6          8           0       -2.644394    0.266538   -0.022108
      7          7           0       -1.312600   -0.239053    0.103042
      8          6           0       -0.507512    0.762296   -0.093788
      9          6           0        0.941062    0.451441   -0.052420
     10          6           0        1.871506    1.439183    0.302970
     11          6           0        3.231266    1.148223    0.332665
     12          6           0        3.644208   -0.140588    0.008926
     13          6           0        2.740697   -1.144470   -0.335608
     14          6           0        1.385727   -0.842126   -0.367532
     15          7           0        5.081721   -0.452422    0.033547
     16          8           0        5.855890    0.453484    0.340266
     17          8           0        5.420668   -1.598952   -0.254933
     18          7           0       -0.888706    2.063721   -0.274135
     19          1           0       -7.091040   -0.366972    0.038832
     20          1           0       -6.119427   -1.352536    1.183030
     21          1           0       -6.100048   -1.756274   -0.522577
     22          1           0        1.530693    2.428772    0.588340
     23          1           0        3.967438    1.892199    0.608533
     24          1           0        3.108289   -2.133326   -0.577868
     25          1           0        0.656777   -1.597867   -0.634983
     26          1           0       -1.879384    2.215010   -0.417798
     27          1           0       -0.271703    2.659931   -0.806498
 ---------------------------------------------------------------------

 SCF Done:  E(UB3LYP) =  -927.103156917     A.U. after   23 cycles

 The electronic state is 2-A.
 Alpha  occ. eigenvalues --  -19.09048 -19.02046 -19.00727 -19.00103 -19.00088
 Alpha  occ. eigenvalues --  -14.38558 -14.24248 -14.24030 -10.18897 -10.16455
 Alpha  occ. eigenvalues --  -10.14752 -10.10152 -10.08810 -10.08370 -10.08019
 Alpha  occ. eigenvalues --  -10.07543 -10.07328 -10.07196  -1.07963  -1.02555
 Alpha  occ. eigenvalues --   -0.95441  -0.93616  -0.90828  -0.85263  -0.76817
 Alpha  occ. eigenvalues --   -0.75325  -0.68367  -0.66426  -0.65200  -0.59824
 Alpha  occ. eigenvalues --   -0.55233  -0.51564  -0.49964  -0.46561  -0.46440
 Alpha  occ. eigenvalues --   -0.44401  -0.42463  -0.39848  -0.39627  -0.39191
 Alpha  occ. eigenvalues --   -0.38119  -0.37608  -0.36920  -0.34981  -0.34652
 Alpha  occ. eigenvalues --   -0.34187  -0.34005  -0.33513  -0.32745  -0.30541
 Alpha  occ. eigenvalues --   -0.30056  -0.27561  -0.27508  -0.26456  -0.25047
 Alpha  occ. eigenvalues --   -0.23420  -0.21429  -0.19299  -0.18346  -0.17208
 Alpha  occ. eigenvalues --   -0.17023  -0.16155  -0.15327  -0.14949  -0.13653
 Alpha  occ. eigenvalues --   -0.01164
 Alpha virt. eigenvalues --    0.01509   0.06780   0.07205   0.07990   0.08447
 Alpha virt. eigenvalues --    0.09716   0.10088   0.10560   0.10776   0.11779
 Alpha virt. eigenvalues --    0.12296   0.13065   0.14027   0.14393   0.14603

  Beta  occ. eigenvalues --  -19.09098 -19.01801 -19.00538 -18.99790 -18.99777
  Beta  occ. eigenvalues --  -14.38209 -14.24181 -14.24003 -10.18794 -10.16332
  Beta  occ. eigenvalues --  -10.14699 -10.10041 -10.08823 -10.08200 -10.08024
  Beta  occ. eigenvalues --  -10.07483 -10.07331 -10.07128  -1.07328  -1.02492
  Beta  occ. eigenvalues --   -0.95020  -0.93328  -0.90245  -0.85153  -0.76614
  Beta  occ. eigenvalues --   -0.75191  -0.67931  -0.66251  -0.65019  -0.59299
  Beta  occ. eigenvalues --   -0.54827  -0.51477  -0.49657  -0.46407  -0.46319
  Beta  occ. eigenvalues --   -0.44290  -0.42111  -0.39721  -0.38949  -0.37754
  Beta  occ. eigenvalues --   -0.37633  -0.37206  -0.36691  -0.34725  -0.34500
  Beta  occ. eigenvalues --   -0.34022  -0.33875  -0.33387  -0.32690  -0.30409
  Beta  occ. eigenvalues --   -0.29515  -0.27403  -0.26629  -0.25725  -0.24981
  Beta  occ. eigenvalues --   -0.22936  -0.21248  -0.19208  -0.16858  -0.16445
  Beta  occ. eigenvalues --   -0.16257  -0.15357  -0.15017  -0.14719  -0.13117
  Beta virt. eigenvalues --    0.03221   0.04522   0.06776   0.07207   0.08500
  Beta virt. eigenvalues --    0.09592   0.09917   0.10139   0.10574   0.10790
  Beta virt. eigenvalues --    0.11832   0.12312   0.13061   0.14033   0.14393

 Mulliken charges and spin densities:
               1          2
     1  C   -0.630265  -0.007290
     2  C    0.377202   0.087993
     3  O   -0.328319   0.083431
     4  C    0.006074   0.069805
     5  O   -0.279530   0.069626
     6  O    0.268873  -0.019781
     7  N   -0.424504   0.031618
     8  C   -0.241187   0.001998
     9  C    1.193086   0.107019
    10  C   -0.618795   0.019153
    11  C   -0.201455   0.073283
    12  C   -0.528357   0.019148
    13  C   -0.248050   0.087109
    14  C   -0.303331   0.011732
    15  N   -0.232581   0.117525
    16  O   -0.125699   0.116262
    17  O   -0.120214   0.117397
    18  N   -0.368145   0.011392
    19  H    0.149336  -0.000114
    20  H    0.159622   0.004485
    21  H    0.161884   0.004600
    22  H    0.144682   0.002499
    23  H    0.216021  -0.004119
    24  H    0.226060  -0.004399
    25  H    0.189900   0.000749
    26  H    0.335117  -0.000017
    27  H    0.222573  -0.001102
 Sum of Mulliken charges =  -1.00000   1.00000

 Dipole moment (field-independent basis, Debye):
    X=             -7.3348    Y=              3.2300    Z=             -1.1488  Tot=              8.0964
 Quadrupole moment (field-independent basis, Debye-Ang):
   XX=           -224.2380   YY=           -115.2325   ZZ=           -107.1884
   XY=             11.8474   XZ=             -1.2333   YZ=             -0.0590

 Summary of Natural Population Analysis:

                                       Natural Population
                Natural  -----------------------------------------------
    Atom  No    Charge         Core      Valence    Rydberg      Total
 -----------------------------------------------------------------------
      C    1   -0.33525      0.99964     2.33095    0.00467     3.33525
      C    2    0.25519      0.99968     1.72252    0.02261     2.74481
      O    3   -0.24777      0.99987     3.24052    0.00738     4.24777
      C    4    0.37163      0.99970     1.60210    0.02658     2.62837
      O    5   -0.26882      0.99987     3.26319    0.00575     4.26882
      O    6   -0.22559      0.99985     3.21467    0.01106     4.22559
      N    7   -0.10292      0.99963     2.59201    0.01128     3.60292
      C    8    0.20998      0.99961     1.77398    0.01644     2.79002
      C    9   -0.01286      0.99947     2.00464    0.00875     3.01286
      C   10   -0.10440      0.99954     2.09658    0.00828     3.10440
      C   11   -0.08675      0.99953     2.07733    0.00989     3.08675
      C   12    0.06017      0.99939     1.92920    0.01123     2.93983
      C   13   -0.08319      0.99953     2.07408    0.00958     3.08319
      C   14   -0.08591      0.99954     2.07805    0.00832     3.08591
      N   15    0.27577      0.99972     2.19697    0.02753     3.22423
      O   16   -0.19450      0.99990     3.18685    0.00776     4.19450
      O   17   -0.19162      0.99990     3.18397    0.00776     4.19162
      N   18   -0.39771      0.99970     2.89032    0.00769     3.89771
      H   19    0.10305      0.00000     0.39586    0.00109     0.39695
      H   20    0.11327      0.00000     0.38590    0.00083     0.38673
      H   21    0.11377      0.00000     0.38540    0.00083     0.38623
      H   22    0.09921      0.00000     0.39959    0.00120     0.40079
      H   23    0.11466      0.00000     0.38410    0.00124     0.38534
      H   24    0.11521      0.00000     0.38360    0.00119     0.38479
      H   25    0.11174      0.00000     0.38722    0.00104     0.38826
      H   26    0.20357      0.00000     0.29511    0.00133     0.29643
      H   27    0.19008      0.00000     0.30841    0.00151     0.30992
 =======================================================================
   * Total *    0.00000     17.99409    46.78311    0.22280    65.00000

 Normal termination of Gaussian 16 at Fri Dec 11 23:49:53 2020.
