 Gaussian 16, Revision A.03,

 -----------------------------------------------------------
 # opt freq B3LYP/6-31G(d) empiricaldispersion=gd3bj scf=xqc
 -----------------------------------------------------------

 ------------------------------
 CID_89969759_JID_8125_neutraal
 ------------------------------
 Symbolic Z-matrix:
 Charge =  0 Multiplicity = 1

 SCF Done:  E(RB3LYP) =  -1486.38780582     A.U. after   15 cycles
 SCF Done:  E(RB3LYP) =  -1486.40125162     A.U. after   14 cycles
 SCF Done:  E(RB3LYP) =  -1486.40530359     A.U. after   14 cycles
 SCF Done:  E(RB3LYP) =  -1486.40734803     A.U. after   14 cycles
 SCF Done:  E(RB3LYP) =  -1486.40786422     A.U. after   13 cycles
 SCF Done:  E(RB3LYP) =  -1486.40835367     A.U. after   13 cycles
 SCF Done:  E(RB3LYP) =  -1486.40901536     A.U. after   12 cycles
 SCF Done:  E(RB3LYP) =  -1486.40957015     A.U. after   13 cycles
 SCF Done:  E(RB3LYP) =  -1486.40943070     A.U. after   13 cycles
 SCF Done:  E(RB3LYP) =  -1486.41010859     A.U. after   12 cycles
 SCF Done:  E(RB3LYP) =  -1486.41021525     A.U. after   10 cycles
 SCF Done:  E(RB3LYP) =  -1486.41021960     A.U. after   10 cycles
 SCF Done:  E(RB3LYP) =  -1486.41022092     A.U. after    9 cycles
 SCF Done:  E(RB3LYP) =  -1486.41022314     A.U. after   10 cycles
 SCF Done:  E(RB3LYP) =  -1486.41022404     A.U. after   10 cycles
 SCF Done:  E(RB3LYP) =  -1486.41022416     A.U. after    7 cycles
 Optimization completed.
    -- Stationary point found.
 Normal termination of Gaussian 16 at Fri Dec 11 18:54:33 2020.

 --------------------------------------------------------------------
 #N Geom=AllCheck Guess=TCheck SCRF=Check GenChk RB3LYP/6-31G(d) Freq
 --------------------------------------------------------------------

 Structure from the checkpoint file:  "JID_8125.chk"
 ------------------------------
 CID_89969759_JID_8125_neutraal
 ------------------------------
 Charge =  0 Multiplicity = 1

 SCF Done:  E(RB3LYP) =  -1486.41022416     A.U. after    1 cycles

  Exact polarizability: 249.942 -16.747 239.327   1.681   0.724  80.482
 Approx polarizability: 428.632 -31.184 436.355  13.913  11.521 136.256

                      1                      2                      3
                      A                      A                      A
 Frequencies --     39.2751                50.0188                61.7898
 Red. masses --      3.5530                 9.3621                 4.2278
 Frc consts  --      0.0032                 0.0138                 0.0095
 IR Inten    --      1.7475                 8.3572                 0.0001

                      4                      5                      6
                      A                      A                      A
 Frequencies --    113.8004               115.9479               135.1750
 Red. masses --      6.5031                 9.2280                 4.9828
 Frc consts  --      0.0496                 0.0731                 0.0536
 IR Inten    --      0.0000                 2.0392                 1.7554

                      7                      8                      9
                      A                      A                      A
 Frequencies --    192.6312               210.3169               222.4798
 Red. masses --      5.3564                 2.6748                 1.0780
 Frc consts  --      0.1171                 0.0697                 0.0314
 IR Inten    --      3.5343                 0.0000                 0.9518

                     10                     11                     12
                      A                      A                      A
 Frequencies --    228.2587               264.5945               272.4399
 Red. masses --      1.3595                 6.4041                 4.1660
 Frc consts  --      0.0417                 0.2642                 0.1822
 IR Inten    --      0.0002                 7.2036                 0.0000

                     13                     14                     15
                      A                      A                      A
 Frequencies --    291.9194               304.8406               345.0528
 Red. masses --      6.4723                 8.7085                 3.7942
 Frc consts  --      0.3250                 0.4768                 0.2662
 IR Inten    --      0.0000                 0.0000                 4.4274

                     16                     17                     18
                      A                      A                      A
 Frequencies --    348.4120               398.8290               423.0025
 Red. masses --     15.7980                 5.4632                 7.7871
 Frc consts  --      1.1299                 0.5120                 0.8209
 IR Inten    --      0.0000                 0.0000                 3.4010

                     19                     20                     21
                      A                      A                      A
 Frequencies --    460.1564               464.6063               507.6232
 Red. masses --      6.8498                 5.1261                 4.4944
 Frc consts  --      0.8546                 0.6519                 0.6823
 IR Inten    --      0.0000                 3.3052                 0.0001

                     22                     23                     24
                      A                      A                      A
 Frequencies --    508.9590               562.5172               577.0114
 Red. masses --      4.2494                 5.2878                 3.3377
 Frc consts  --      0.6486                 0.9858                 0.6547
 IR Inten    --      3.2781                26.2502                 0.0000

                     25                     26                     27
                      A                      A                      A
 Frequencies --    614.8961               641.6415               671.1308
 Red. masses --      3.4924                 3.7521                 5.4824
 Frc consts  --      0.7780                 0.9101                 1.4549
 IR Inten    --      0.0000                15.1802                17.5514

                     28                     29                     30
                      A                      A                      A
 Frequencies --    671.1699               689.3985               708.4275
 Red. masses --      7.3751                 2.9996                 1.5330
 Frc consts  --      1.9574                 0.8400                 0.4533
 IR Inten    --      0.0090                14.4408                 0.0000

                     31                     32                     33
                      A                      A                      A
 Frequencies --    736.4893               756.7679               763.7487
 Red. masses --      7.0484                 5.6883                 1.6714
 Frc consts  --      2.2525                 1.9194                 0.5744
 IR Inten    --     38.1184                 0.0001                64.7269

                     34                     35                     36
                      A                      A                      A
 Frequencies --    793.8126               825.6078               843.0704
 Red. masses --      3.5761                 5.8906                 5.8231
 Frc consts  --      1.3277                 2.3657                 2.4385
 IR Inten    --      0.0000                81.1676                 0.0000

                     37                     38                     39
                      A                      A                      A
 Frequencies --    911.4158               920.0656               922.0618
 Red. masses --      6.6197                 1.4529                 1.3231
 Frc consts  --      3.2398                 0.7247                 0.6628
 IR Inten    --      0.0000                 1.6021                 0.0001

                     40                     41                     42
                      A                      A                      A
 Frequencies --    927.1809               981.9691               986.5911
 Red. masses --      2.9841                 2.3430                 3.7014
 Frc consts  --      1.5115                 1.3311                 2.1227
 IR Inten    --      2.2707                55.4141                 0.0004

                     43                     44                     45
                      A                      A                      A
 Frequencies --   1031.4292              1049.0463              1052.0625
 Red. masses --      1.9633                 1.8252                 1.8385
 Frc consts  --      1.2306                 1.1835                 1.1990
 IR Inten    --      0.0000                 6.1293                 0.0001

                     46                     47                     48
                      A                      A                      A
 Frequencies --   1116.5302              1134.8466              1140.8376
 Red. masses --      1.3777                 1.1357                 1.9031
 Frc consts  --      1.0119                 0.8618                 1.4594
 IR Inten    --      7.5562                 0.0000                94.0212

                     49                     50                     51
                      A                      A                      A
 Frequencies --   1230.5685              1250.6598              1269.3701
 Red. masses --      2.8090                 3.1217                 3.5854
 Frc consts  --      2.5061                 2.8769                 3.4038
 IR Inten    --      0.0003               264.2474                 0.0006

                     52                     53                     54
                      A                      A                      A
 Frequencies --   1316.3021              1348.6101              1361.4129
 Red. masses --      3.1087                 4.1836                 2.4484
 Frc consts  --      3.1735                 4.4830                 2.6737
 IR Inten    --     39.1472               123.8783                 0.0000

                     55                     56                     57
                      A                      A                      A
 Frequencies --   1399.0605              1414.0811              1414.0990
 Red. masses --      8.0144                 1.2940                 1.2843
 Frc consts  --      9.2426                 1.5245                 1.5131
 IR Inten    --      8.1134                43.9233                25.5083

                     58                     59                     60
                      A                      A                      A
 Frequencies --   1457.2129              1496.0741              1496.8135
 Red. masses --      5.8832                 1.0708                 1.0524
 Frc consts  --      7.3605                 1.4122                 1.3892
 IR Inten    --     78.3600                 0.0003                37.7282

                     61                     62                     63
                      A                      A                      A
 Frequencies --   1506.6243              1507.9066              1522.1225
 Red. masses --      1.1032                 1.0631                 5.9889
 Frc consts  --      1.4754                 1.4243                 8.1752
 IR Inten    --      0.0012                21.6638                 0.0000

                     64                     65                     66
                      A                      A                      A
 Frequencies --   1579.5612              1581.1779              1590.9325
 Red. masses --      6.3499                10.4749                 6.9247
 Frc consts  --      9.3345                15.4298                10.3265
 IR Inten    --     37.7523                 0.0003                 0.0000

                     67                     68                     69
                      A                      A                      A
 Frequencies --   1764.0961              1767.3474              3060.9045
 Red. masses --     11.0948                11.1096                 1.0391
 Frc consts  --     20.3430                20.4453                 5.7360
 IR Inten    --    332.5893                 0.2334                 0.1788

                     70                     71                     72
                      A                      A                      A
 Frequencies --   3060.9296              3130.6760              3130.6987
 Red. masses --      1.0391                 1.0953                 1.0952
 Frc consts  --      5.7360                 6.3248                 6.3246
 IR Inten    --      1.3687                 7.9698                 3.0516

                     73                     74                     75
                      A                      A                      A
 Frequencies --   3165.9113              3165.9872              3263.0574
 Red. masses --      1.1049                 1.1049                 1.0912
 Frc consts  --      6.5247                 6.5251                 6.8452
 IR Inten    --      9.8727                 8.4717                 4.6928

                     76                     77                     78
                      A                      A                      A
 Frequencies --   3263.1439              3294.6910              3294.7017
 Red. masses --      1.0912                 1.0970                 1.0970
 Frc consts  --      6.8460                 7.0163                 7.0162
 IR Inten    --      0.0510                 4.7953                 1.9662

 - Thermochemistry -
 -------------------
 Temperature   298.150 Kelvin.  Pressure   1.00000 Atm.
 Atom     1 has atomic number  6 and mass  12.00000

 Molecular mass:   274.01222 amu.
 Principal axes and moments of inertia in atomic units:
                           1         2         3
     Eigenvalues --  3926.345785000.950218753.80053
           X            0.99938   0.03354  -0.01096
           Y           -0.03360   0.99942  -0.00529
           Z            0.01078   0.00566   0.99993
 This molecule is an asymmetric top.
 Rotational symmetry number  1.
 Warning -- assumption of classical behavior for rotation
           may cause significant error
 Rotational temperatures (Kelvin)      0.02206     0.01732     0.00989
 Rotational constants (GHZ):           0.45965     0.36088     0.20617
 Zero-point vibrational energy     532904.0 (Joules/Mol)
                                  127.36711 (Kcal/Mol)
 Warning -- explicit consideration of  25 degrees of freedom as
           vibrations may cause significant error
 Vibrational temperatures:     56.51    71.97    88.90   163.73   166.82
          (Kelvin)            194.49   277.15   302.60   320.10   328.41
                              380.69   391.98   420.01   438.60   496.45
                              501.29   573.83   608.61   662.06   668.46
                              730.36   732.28   809.34   830.19   884.70
                              923.18   965.61   965.66   991.89  1019.27
                             1059.64  1088.82  1098.86  1142.12  1187.87
                             1212.99  1311.32  1323.77  1326.64  1334.01
                             1412.83  1419.48  1484.00  1509.34  1513.68
                             1606.44  1632.79  1641.41  1770.51  1799.42
                             1826.34  1893.87  1940.35  1958.77  2012.94
                             2034.55  2034.57  2096.60  2152.52  2153.58
                             2167.70  2169.54  2189.99  2272.64  2274.96
                             2289.00  2538.14  2542.82  4403.96  4403.99
                             4504.34  4504.38  4555.04  4555.15  4694.81
                             4694.94  4740.33  4740.34

 Zero-point correction=                           0.202972 (Hartree/Particle)
 Thermal correction to Energy=                    0.218781
 Thermal correction to Enthalpy=                  0.219725
 Thermal correction to Gibbs Free Energy=         0.159379
 Sum of electronic and zero-point Energies=          -1486.207252
 Sum of electronic and thermal Energies=             -1486.191443
 Sum of electronic and thermal Enthalpies=           -1486.190499
 Sum of electronic and thermal Free Energies=        -1486.250845

                     E (Thermal)             CV                S
                      KCal/Mol        Cal/Mol-Kelvin    Cal/Mol-Kelvin
 Total                  137.287             60.929            127.009
 Electronic               0.000              0.000              0.000
 Translational            0.889              2.981             42.723
 Rotational               0.889              2.981             33.507
 Vibrational            135.510             54.967             50.779
 Vibration     1          0.594              1.981              5.295
 Vibration     2          0.595              1.978              4.817
 Vibration     3          0.597              1.973              4.399
 Vibration     4          0.607              1.938              3.203
 Vibration     5          0.608              1.936              3.167
 Vibration     6          0.613              1.918              2.871
 Vibration     7          0.635              1.850              2.202
 Vibration     8          0.642              1.825              2.041
 Vibration     9          0.648              1.807              1.939
 Vibration    10          0.651              1.798              1.893
 Vibration    11          0.671              1.738              1.631
 Vibration    12          0.675              1.724              1.581
 Vibration    13          0.687              1.689              1.463
 Vibration    14          0.696              1.665              1.390
 Vibration    15          0.723              1.585              1.189
 Vibration    16          0.726              1.578              1.173
 Vibration    17          0.765              1.473              0.967
 Vibration    18          0.785              1.420              0.882
 Vibration    19          0.818              1.338              0.766
 Vibration    20          0.822              1.329              0.753
 Vibration    21          0.863              1.233              0.639
 Vibration    22          0.864              1.230              0.636
 Vibration    23          0.918              1.112              0.519
 Vibration    24          0.933              1.081              0.491
 Vibration    25          0.974              1.000              0.425

 Optimization completed.
    -- Stationary point found.
 Normal termination of Gaussian 16 at Fri Dec 11 19:06:48 2020.

 ----------------------------------------------------------------------
 # B3LYP/6-311++G(d,p) empiricaldispersion=gd3bj scf=xqc pop=npa geom=c
 heck
 ----------------------------------------------------------------------

 --------------------------------------
 CID_89969759_JID_8125_Energie_neutraal
 --------------------------------------
 Structure from the checkpoint file:  "JID_8125.chk"
 Charge =  0 Multiplicity = 1

 SCF Done:  E(RB3LYP) =  -1486.64189761     A.U. after   15 cycles
 Normal termination of Gaussian 16 at Fri Dec 11 19:12:36 2020.

 ----------------------------------------------------------------------
 # B3LYP/6-311++G(d,p) empiricaldispersion=gd3bj scf=xqc pop=npa geom=c
 heck
 ----------------------------------------------------------------------

 ------------------------------------
 CID_89969759_JID_8125_Energie_kation
 ------------------------------------
 Structure from the checkpoint file:  "JID_8125.chk"
 Charge =  1 Multiplicity = 2

 SCF Done:  E(UB3LYP) =  -1486.35821942     A.U. after   26 cycles
 Normal termination of Gaussian 16 at Fri Dec 11 19:26:35 2020.
 Gaussian 16:  ES64L-G16RevA.03 25-Dec-2016

 ----------------------------------------------------------------------
 # B3LYP/6-311++G(d,p) empiricaldispersion=gd3bj scf=xqc pop=npa geom=c
 heck
 ----------------------------------------------------------------------

 -----------------------------------
 CID_89969759_JID_8125_Energie_anion
 -----------------------------------
 Structure from the checkpoint file:  "JID_8125.chk"
 Charge = -1 Multiplicity = 2

                         Standard orientation:
 ---------------------------------------------------------------------
 Center     Atomic      Atomic             Coordinates (Angstroms)
 Number     Number       Type             X           Y           Z
 ---------------------------------------------------------------------
      1          6           0       -3.776872   -1.038600    0.539094
      2          6           0       -2.495521   -1.575739   -0.072653
      3          8           0       -2.490837   -2.693064   -0.567113
      4          6           0       -1.239225   -0.751282   -0.033834
      5          6           0        0.013494   -1.410954   -0.001081
      6          6           0        0.265633   -2.831081    0.046961
      7          6           0        1.583253   -3.132192    0.125994
      8         16           0        2.619925   -1.727794    0.132825
      9          6           0        1.224056   -0.651700    0.031869
     10          6           0        1.239241    0.751287    0.033718
     11          6           0       -0.013489    1.410947    0.001176
     12          6           0       -1.224057    0.651683   -0.031807
     13         16           0       -2.619931    1.727848   -0.132231
     14          6           0       -1.583255    3.132211   -0.125152
     15          6           0       -0.265615    2.831084   -0.046459
     16          6           0        2.495480    1.575667    0.071997
     17          8           0        2.491005    2.693154    0.566170
     18          6           0        3.776727    1.038460   -0.539994
     19          1           0       -4.324245   -0.432966   -0.193079
     20          1           0       -3.598176   -0.418835    1.421773
     21          1           0       -4.403346   -1.895015    0.797426
     22          1           0       -0.520418   -3.569078    0.007547
     23          1           0        2.032488   -4.115512    0.170729
     24          1           0       -2.032462    4.115565   -0.169474
     25          1           0        0.520480    3.569030   -0.006999
     26          1           0        4.324507    0.433326    0.192304
     27          1           0        3.597965    0.418219   -1.422306
     28          1           0        4.402881    1.894943   -0.798870
 ---------------------------------------------------------------------

 SCF Done:  E(UB3LYP) =  -1486.69028706     A.U. after   22 cycles

 The electronic state is 2-A.
 Alpha  occ. eigenvalues --  -88.75216 -88.75216 -18.96522 -18.96519 -10.11885
 Alpha  occ. eigenvalues --  -10.11882 -10.08418 -10.08417 -10.07606 -10.07605
 Alpha  occ. eigenvalues --  -10.05864 -10.05862 -10.05387 -10.05385 -10.05139
 Alpha  occ. eigenvalues --  -10.05138 -10.05037 -10.05036  -7.83858  -7.83857
 Alpha  occ. eigenvalues --   -5.80165  -5.80165  -5.79807  -5.79807  -5.79395
 Alpha  occ. eigenvalues --   -5.79395  -0.90545  -0.90530  -0.77420  -0.75053
 Alpha  occ. eigenvalues --   -0.68409  -0.66885  -0.63084  -0.61568  -0.60718
 Alpha  occ. eigenvalues --   -0.59161  -0.57354  -0.52188  -0.47535  -0.44413
 Alpha  occ. eigenvalues --   -0.43138  -0.42445  -0.40524  -0.39745  -0.34569
 Alpha  occ. eigenvalues --   -0.34040  -0.33109  -0.32609  -0.32461  -0.32006
 Alpha  occ. eigenvalues --   -0.31488  -0.30239  -0.29087  -0.28890  -0.27202
 Alpha  occ. eigenvalues --   -0.26867  -0.25738  -0.25362  -0.25326  -0.25071
 Alpha  occ. eigenvalues --   -0.24333  -0.23754  -0.21980  -0.21102  -0.18471
 Alpha  occ. eigenvalues --   -0.16988  -0.13471  -0.12251  -0.11919  -0.11262
 Alpha  occ. eigenvalues --   -0.09005   0.00524
 Alpha virt. eigenvalues --    0.08255   0.08433   0.08942   0.08969   0.09069
 Alpha virt. eigenvalues --    0.09438   0.11428   0.11589   0.12252   0.12260
 Alpha virt. eigenvalues --    0.12305   0.12593   0.13483   0.14172   0.14295

  Beta  occ. eigenvalues --  -88.75224 -88.75224 -18.96196 -18.96193 -10.11743
  Beta  occ. eigenvalues --  -10.11741 -10.08423 -10.08421 -10.07480 -10.07479
  Beta  occ. eigenvalues --  -10.05778 -10.05776 -10.05399 -10.05397 -10.05058
  Beta  occ. eigenvalues --  -10.05057 -10.04891 -10.04889  -7.83865  -7.83865
  Beta  occ. eigenvalues --   -5.80173  -5.80173  -5.79814  -5.79814  -5.79414
  Beta  occ. eigenvalues --   -5.79413  -0.89960  -0.89945  -0.77199  -0.74901
  Beta  occ. eigenvalues --   -0.68133  -0.66442  -0.62943  -0.61457  -0.60641
  Beta  occ. eigenvalues --   -0.58907  -0.57135  -0.51579  -0.47293  -0.44345
  Beta  occ. eigenvalues --   -0.42831  -0.42151  -0.40290  -0.39634  -0.34382
  Beta  occ. eigenvalues --   -0.33880  -0.32978  -0.32072  -0.32021  -0.31845
  Beta  occ. eigenvalues --   -0.31297  -0.30010  -0.28954  -0.28490  -0.26975
  Beta  occ. eigenvalues --   -0.26670  -0.25554  -0.25247  -0.25048  -0.24820
  Beta  occ. eigenvalues --   -0.23653  -0.22606  -0.21346  -0.20980  -0.17699
  Beta  occ. eigenvalues --   -0.16173  -0.13357  -0.11929  -0.11541  -0.10541
  Beta  occ. eigenvalues --   -0.07828
  Beta virt. eigenvalues --    0.05784   0.08261   0.08424   0.09050   0.09319
  Beta virt. eigenvalues --    0.09581   0.10492   0.11660   0.11863   0.12260
  Beta virt. eigenvalues --    0.12305   0.12396   0.12600   0.13863   0.14221

 Mulliken charges and spin densities:
               1          2
     1  C   -0.655007  -0.006625
     2  C   -0.051726   0.086906
     3  O   -0.315861   0.113324
     4  C    0.592877   0.189099
     5  C    0.238606   0.051564
     6  C   -0.066790  -0.012894
     7  C   -0.276107   0.093847
     8  S   -0.905987  -0.018129
     9  C    0.110262  -0.005857
    10  C    0.592778   0.189005
    11  C    0.238604   0.051681
    12  C    0.110343  -0.005910
    13  S   -0.906056  -0.018125
    14  C   -0.275969   0.093919
    15  C   -0.066895  -0.012939
    16  C   -0.051763   0.086968
    17  O   -0.315903   0.113361
    18  C   -0.655136  -0.006628
    19  H    0.152893   0.011865
    20  H    0.123653   0.002600
    21  H    0.164742  -0.000192
    22  H    0.185026   0.000532
    23  H    0.203554  -0.006089
    24  H    0.203560  -0.006094
    25  H    0.185052   0.000532
    26  H    0.152909   0.011870
    27  H    0.123617   0.002598
    28  H    0.164724  -0.000189
 Sum of Mulliken charges =  -1.00000   1.00000

 Dipole moment (field-independent basis, Debye):
    X=             -0.0014    Y=             -0.0012    Z=              0.0011  Tot=              0.0021
 Quadrupole moment (field-independent basis, Debye-Ang):
   XX=           -148.6659   YY=           -152.7823   ZZ=           -129.5200
   XY=            -16.5401   XZ=             -6.7672   YZ=             -7.5224

 Summary of Natural Population Analysis:

                                       Natural Population
                Natural  -----------------------------------------------
    Atom  No    Charge         Core      Valence    Rydberg      Total
 -----------------------------------------------------------------------
      C    1   -0.33587      0.99964     2.33132    0.00492     3.33587
      C    2    0.29484      0.99966     1.68526    0.02025     2.70516
      O    3   -0.26860      0.99988     3.26094    0.00778     4.26860
      C    4   -0.01391      0.99933     2.00457    0.01001     3.01391
      C    5   -0.01760      0.99947     2.00734    0.01078     3.01760
      C    6   -0.12185      0.99950     2.11236    0.01000     3.12185
      C    7   -0.16414      0.99953     2.15351    0.01109     3.16414
      S    8    0.16401      4.99945     2.81658    0.01996     7.83599
      C    9   -0.07684      0.99933     2.06718    0.01032     3.07684
      C   10   -0.03266      0.99939     2.01963    0.01364     3.03266
      C   11    0.03965      0.99937     1.95317    0.00782     2.96035
      C   12   -0.09500      0.99946     2.08279    0.01275     3.09500
      S   13    0.16057      4.99946     2.81774    0.02223     7.83943
      C   14   -0.16379      0.99953     2.15307    0.01119     3.16379
      C   15   -0.13716      0.99957     2.12357    0.01402     3.13716
      C   16    0.29361      0.99966     1.68558    0.02114     2.70639
      O   17   -0.26968      0.99988     3.26081    0.00900     4.26968
      C   18   -0.33619      0.99964     2.33138    0.00518     3.33619
      H   19    0.10922      0.00000     0.38964    0.00114     0.39078
      H   20    0.10504      0.00000     0.39371    0.00125     0.39496
      H   21    0.10523      0.00000     0.39335    0.00142     0.39477
      H   22    0.12073      0.00000     0.37810    0.00117     0.37927
      H   23    0.10029      0.00000     0.39870    0.00101     0.39971
      H   24    0.10040      0.00000     0.39868    0.00092     0.39960
      H   25    0.12053      0.00000     0.37812    0.00135     0.37947
      H   26    0.10914      0.00000     0.38964    0.00123     0.39086
      H   27    0.10501      0.00000     0.39371    0.00128     0.39499
      H   28    0.10520      0.00000     0.39335    0.00146     0.39480
 =======================================================================
   * Total *    0.00020     25.99173    44.77377    0.23429    70.99980

 Normal termination of Gaussian 16 at Fri Dec 11 19:38:29 2020.
