 Gaussian 16, Revision A.03,

 -----------------------------------------------------------
 # opt freq B3LYP/6-31G(d) empiricaldispersion=gd3bj scf=xqc
 -----------------------------------------------------------

 -------------------------------
 CID_153932388_JID_2432_neutraal
 -------------------------------
 Symbolic Z-matrix:
 Charge =  0 Multiplicity = 1

 SCF Done:  E(RB3LYP) =  -500.188238861     A.U. after   13 cycles
 SCF Done:  E(RB3LYP) =  -500.193165388     A.U. after   11 cycles
 SCF Done:  E(RB3LYP) =  -500.193622413     A.U. after   10 cycles
 SCF Done:  E(RB3LYP) =  -500.193682388     A.U. after    9 cycles
 SCF Done:  E(RB3LYP) =  -500.193690856     A.U. after    8 cycles
 SCF Done:  E(RB3LYP) =  -500.193692484     A.U. after    8 cycles
 SCF Done:  E(RB3LYP) =  -500.193692665     A.U. after    7 cycles
 Optimization completed.
    -- Stationary point found.
 Normal termination of Gaussian 16 at Wed Dec  9 17:23:15 2020.

 --------------------------------------------------------------------
 #N Geom=AllCheck Guess=TCheck SCRF=Check GenChk RB3LYP/6-31G(d) Freq
 --------------------------------------------------------------------

 Structure from the checkpoint file:  "JID_2432.chk"
 -------------------------------
 CID_153932388_JID_2432_neutraal
 -------------------------------
 Charge =  0 Multiplicity = 1

 SCF Done:  E(RB3LYP) =  -500.193692665     A.U. after    1 cycles

  Exact polarizability: 119.437  -4.929 125.444  -0.011  -0.169  85.597
 Approx polarizability: 155.560 -13.014 184.051  -0.283  -3.079 137.474

                      1                      2                      3
                      A                      A                      A
 Frequencies --     74.0324               120.6024               173.7873
 Red. masses --      3.1548                 2.8634                 2.5241
 Frc consts  --      0.0102                 0.0245                 0.0449
 IR Inten    --      0.1800                 0.6864                 0.6130

                      4                      5                      6
                      A                      A                      A
 Frequencies --    241.3805               265.2050               289.7015
 Red. masses --      3.5326                 2.3202                 2.2498
 Frc consts  --      0.1213                 0.0961                 0.1112
 IR Inten    --      0.3837                 0.7014                 2.4447

                      7                      8                      9
                      A                      A                      A
 Frequencies --    367.7488               374.6656               397.1662
 Red. masses --      2.2547                 3.0300                 2.1872
 Frc consts  --      0.1797                 0.2506                 0.2033
 IR Inten    --      9.5048                 1.5469                 6.9211

                     10                     11                     12
                      A                      A                      A
 Frequencies --    411.7170               434.4548               483.4370
 Red. masses --      3.3379                 4.1510                 3.6717
 Frc consts  --      0.3334                 0.4616                 0.5056
 IR Inten    --      0.5314                 1.4375                14.4205

                     13                     14                     15
                      A                      A                      A
 Frequencies --    491.9740               538.3990               618.7557
 Red. masses --      3.1432                 2.7134                 2.0280
 Frc consts  --      0.4482                 0.4634                 0.4575
 IR Inten    --      5.5743                10.4261                13.1527

                     16                     17                     18
                      A                      A                      A
 Frequencies --    702.9227               738.5299               780.8955
 Red. masses --      2.5200                 1.6749                 1.4659
 Frc consts  --      0.7336                 0.5382                 0.5267
 IR Inten    --      5.7518                22.1813                20.4486

                     19                     20                     21
                      A                      A                      A
 Frequencies --    798.4430               815.0544               849.4274
 Red. masses --      2.1742                 1.4568                 2.0148
 Frc consts  --      0.8166                 0.5702                 0.8565
 IR Inten    --     12.8262                 8.5767               124.2964

                     22                     23                     24
                      A                      A                      A
 Frequencies --    884.0762               918.4840               926.6906
 Red. masses --      1.8920                 2.9907                 2.1783
 Frc consts  --      0.8713                 1.4865                 1.1022
 IR Inten    --     29.1791                 3.2157                 4.4056

                     25                     26                     27
                      A                      A                      A
 Frequencies --    941.9373               954.3161               966.7474
 Red. masses --      1.6131                 1.2992                 2.1210
 Frc consts  --      0.8432                 0.6971                 1.1679
 IR Inten    --      6.7399                10.5039                28.1023

                     28                     29                     30
                      A                      A                      A
 Frequencies --    990.1293              1002.2931              1008.6020
 Red. masses --      1.2610                 2.0625                 2.8738
 Frc consts  --      0.7283                 1.2207                 1.7225
 IR Inten    --      0.6033                11.4140                24.6629

                     31                     32                     33
                      A                      A                      A
 Frequencies --   1038.6440              1045.3857              1068.4472
 Red. masses --      1.8590                 2.0976                 1.7329
 Frc consts  --      1.1816                 1.3506                 1.1655
 IR Inten    --      3.2387                 3.3041                 0.2868

                     34                     35                     36
                      A                      A                      A
 Frequencies --   1080.6445              1101.9661              1122.9308
 Red. masses --      1.3926                 2.3796                 2.6786
 Frc consts  --      0.9581                 1.7025                 1.9900
 IR Inten    --      1.4995                11.2253                 9.7791

                     37                     38                     39
                      A                      A                      A
 Frequencies --   1140.9756              1161.2075              1174.9185
 Red. masses --      3.8811                 1.7278                 2.0486
 Frc consts  --      2.9769                 1.3727                 1.6662
 IR Inten    --     44.0133                 5.1277                14.0040

                     40                     41                     42
                      A                      A                      A
 Frequencies --   1204.8864              1216.4953              1226.0093
 Red. masses --      1.2931                 1.2950                 1.3310
 Frc consts  --      1.1060                 1.1291                 1.1787
 IR Inten    --      0.2042                 2.8659                 8.6212

                     43                     44                     45
                      A                      A                      A
 Frequencies --   1251.3407              1297.9820              1317.5565
 Red. masses --      1.3854                 1.9223                 1.2187
 Frc consts  --      1.2781                 1.9081                 1.2465
 IR Inten    --     12.0654                 3.1102                 3.3006

                     46                     47                     48
                      A                      A                      A
 Frequencies --   1328.5289              1340.5952              1364.6621
 Red. masses --      1.4291                 1.6398                 1.3207
 Frc consts  --      1.4861                 1.7363                 1.4491
 IR Inten    --      0.8102                15.6826                13.9529

                     49                     50                     51
                      A                      A                      A
 Frequencies --   1378.5370              1387.9012              1397.3754
 Red. masses --      1.2558                 1.6700                 1.4484
 Frc consts  --      1.4060                 1.8953                 1.6663
 IR Inten    --      3.0419                10.5213                13.1907

                     52                     53                     54
                      A                      A                      A
 Frequencies --   1418.1391              1431.5829              1446.7417
 Red. masses --      1.6359                 1.4539                 1.7025
 Frc consts  --      1.9385                 1.7556                 2.0995
 IR Inten    --     20.4903                 6.2481                11.9991

                     55                     56                     57
                      A                      A                      A
 Frequencies --   1484.0054              1495.9704              1506.2263
 Red. masses --      1.2046                 1.1846                 1.0858
 Frc consts  --      1.5630                 1.5620                 1.4514
 IR Inten    --      5.1104                11.2250                 0.4404

                     58                     59                     60
                      A                      A                      A
 Frequencies --   1512.7100              1520.4990              1528.5315
 Red. masses --      1.1136                 1.1892                 1.1634
 Frc consts  --      1.5013                 1.6199                 1.6015
 IR Inten    --      4.0505                16.2851                 2.0722

                     61                     62                     63
                      A                      A                      A
 Frequencies --   1536.7623              1732.6853              2895.2827
 Red. masses --      1.2440                 6.8098                 1.0800
 Frc consts  --      1.7310                12.0455                 5.3340
 IR Inten    --      1.7092                 6.9794                52.1635

                     64                     65                     66
                      A                      A                      A
 Frequencies --   2952.6091              2996.0893              3023.6206
 Red. masses --      1.0721                 1.0698                 1.0713
 Frc consts  --      5.5069                 5.6582                 5.7706
 IR Inten    --     89.8658                27.1628                11.3982

                     67                     68                     69
                      A                      A                      A
 Frequencies --   3033.9427              3047.2829              3083.9788
 Red. masses --      1.0758                 1.0910                 1.1002
 Frc consts  --      5.8345                 5.9691                 6.1652
 IR Inten    --     62.1891                33.7218                51.4307

                     70                     71                     72
                      A                      A                      A
 Frequencies --   3091.6309              3135.7616              3148.5645
 Red. masses --      1.0915                 1.0546                 1.0835
 Frc consts  --      6.1468                 6.1095                 6.3283
 IR Inten    --     50.0459                21.2948                 6.6775

                     73                     74                     75
                      A                      A                      A
 Frequencies --   3155.5234              3175.0918              3209.9476
 Red. masses --      1.0565                 1.0958                 1.1174
 Frc consts  --      6.1979                 6.5086                 6.7835
 IR Inten    --     16.3916                46.0853                14.4464

                     76                     77                     78
                      A                      A                      A
 Frequencies --   3245.2755              3470.0636              3478.5181
 Red. masses --      1.1167                 1.0731                 1.0731
 Frc consts  --      6.9294                 7.6134                 7.6503
 IR Inten    --      7.4314                 0.8225                 4.0901

 - Thermochemistry -
 -------------------
 Temperature   298.150 Kelvin.  Pressure   1.00000 Atm.
 Atom     1 has atomic number  6 and mass  12.00000

 Molecular mass:   164.13135 amu.
 Principal axes and moments of inertia in atomic units:
                           1         2         3
     Eigenvalues --  1257.473652025.283532991.07970
           X            0.99986  -0.01660   0.00347
           Y            0.01659   0.99985   0.00385
           Z           -0.00353  -0.00379   0.99999
 This molecule is an asymmetric top.
 Rotational symmetry number  1.
 Warning -- assumption of classical behavior for rotation
           may cause significant error
 Rotational temperatures (Kelvin)      0.06888     0.04277     0.02896
 Rotational constants (GHZ):           1.43521     0.89111     0.60337
 Zero-point vibrational energy     663721.7 (Joules/Mol)
                                  158.63329 (Kcal/Mol)
 Warning -- explicit consideration of  15 degrees of freedom as
           vibrations may cause significant error
 Vibrational temperatures:    106.52   173.52   250.04   347.29   381.57
          (Kelvin)            416.82   529.11   539.06   571.43   592.37
                              625.08   695.56   707.84   774.64   890.25
                             1011.35  1062.58  1123.53  1148.78  1172.68
                             1222.14  1271.99  1321.49  1333.30  1355.24
                             1373.05  1390.93  1424.58  1442.08  1451.15
                             1494.38  1504.08  1537.26  1554.81  1585.48
                             1615.65  1641.61  1670.72  1690.45  1733.56
                             1750.27  1763.95  1800.40  1867.51  1895.67
                             1911.46  1928.82  1963.44  1983.41  1996.88
                             2010.51  2040.39  2059.73  2081.54  2135.15
                             2152.37  2167.12  2176.45  2187.66  2199.22
                             2211.06  2492.95  4165.67  4248.15  4310.70
                             4350.32  4365.17  4384.36  4437.16  4448.17
                             4511.66  4530.08  4540.09  4568.25  4618.40
                             4669.23  4992.65  5004.81

 Zero-point correction=                           0.252798 (Hartree/Particle)
 Thermal correction to Energy=                    0.262815
 Thermal correction to Enthalpy=                  0.263759
 Thermal correction to Gibbs Free Energy=         0.217818
 Sum of electronic and zero-point Energies=           -499.940894
 Sum of electronic and thermal Energies=              -499.930878
 Sum of electronic and thermal Enthalpies=            -499.929934
 Sum of electronic and thermal Free Energies=         -499.975874

                     E (Thermal)             CV                S
                      KCal/Mol        Cal/Mol-Kelvin    Cal/Mol-Kelvin
 Total                  164.919             42.126             96.690
 Electronic               0.000              0.000              0.000
 Translational            0.889              2.981             41.195
 Rotational               0.889              2.981             30.411
 Vibrational            163.141             36.165             25.084
 Vibration     1          0.599              1.966              4.043
 Vibration     2          0.609              1.932              3.091
 Vibration     3          0.627              1.875              2.394
 Vibration     4          0.658              1.777              1.793
 Vibration     5          0.671              1.737              1.627
 Vibration     6          0.686              1.693              1.476
 Vibration     7          0.740              1.539              1.089
 Vibration     8          0.746              1.524              1.061
 Vibration     9          0.764              1.476              0.973
 Vibration    10          0.776              1.445              0.921
 Vibration    11          0.795              1.395              0.844
 Vibration    12          0.840              1.287              0.701
 Vibration    13          0.848              1.268              0.678
 Vibration    14          0.893              1.165              0.569
 Vibration    15          0.979              0.992              0.419

                           ! Non-Optimized Parameters !
 Normal termination of Gaussian 16 at Wed Dec  9 17:30:56 2020.

 ----------------------------------------------------------------------
 # B3LYP/6-311++G(d,p) empiricaldispersion=gd3bj scf=xqc pop=npa geom=c
 heck
 ----------------------------------------------------------------------

 ---------------------------------------
 CID_153932388_JID_2432_Energie_neutraal
 ---------------------------------------
 Structure from the checkpoint file:  "JID_2432.chk"
 Charge =  0 Multiplicity = 1

 SCF Done:  E(RB3LYP) =  -500.333285196     A.U. after   14 cycles
 Normal termination of Gaussian 16 at Wed Dec  9 17:34:31 2020.

 ----------------------------------------------------------------------
 # B3LYP/6-311++G(d,p) empiricaldispersion=gd3bj scf=xqc pop=npa geom=c
 heck
 ----------------------------------------------------------------------

 -------------------------------------
 CID_153932388_JID_2432_Energie_kation
 -------------------------------------
 Structure from the checkpoint file:  "JID_2432.chk"
 Charge =  1 Multiplicity = 2

 SCF Done:  E(UB3LYP) =  -500.036978474     A.U. after   26 cycles
 Normal termination of Gaussian 16 at Wed Dec  9 17:44:23 2020.
 Gaussian 16:  ES64L-G16RevA.03 25-Dec-2016

 ----------------------------------------------------------------------
 # B3LYP/6-311++G(d,p) empiricaldispersion=gd3bj scf=xqc pop=npa geom=c
 heck
 ----------------------------------------------------------------------

 ------------------------------------
 CID_153932388_JID_2432_Energie_anion
 ------------------------------------
 Structure from the checkpoint file:  "JID_2432.chk"
 Charge = -1 Multiplicity = 2

                         Standard orientation:
 ---------------------------------------------------------------------
 Center     Atomic      Atomic             Coordinates (Angstroms)
 Number     Number       Type             X           Y           Z
 ---------------------------------------------------------------------
      1          6           0        1.854008   -1.428684    1.014519
      2          6           0        2.175270   -1.706506   -0.428224
      3          6           0        1.438543   -0.435342   -0.058311
      4          6           0        2.192067    0.843319   -0.129474
      5          6           0        1.603060    2.043075   -0.156654
      6          6           0        0.109661    2.223828   -0.085919
      7          6           0       -0.617035    0.940699    0.338089
      8          6           0       -0.039471   -0.275386   -0.412249
      9          7           0       -0.829995   -1.465133   -0.084656
     10          6           0       -2.249697   -1.283640   -0.411805
     11          7           0       -2.854902   -0.211462    0.353828
     12          6           0       -2.133963    1.042276    0.114047
     13          1           0        1.054130   -1.998038    1.475897
     14          1           0        2.664262   -1.142787    1.679124
     15          1           0        1.629504   -2.498710   -0.935521
     16          1           0        3.205229   -1.608989   -0.762044
     17          1           0        3.278611    0.768993   -0.155661
     18          1           0        2.213501    2.941434   -0.227080
     19          1           0       -0.270146    2.558706   -1.065143
     20          1           0       -0.136330    3.034439    0.614191
     21          1           0       -0.433308    0.765029    1.407440
     22          1           0       -0.095601   -0.046161   -1.496920
     23          1           0       -0.472010   -2.266482   -0.603087
     24          1           0       -2.771397   -2.222664   -0.199776
     25          1           0       -2.404902   -1.040784   -1.479598
     26          1           0       -2.771861   -0.451062    1.342177
     27          1           0       -2.325057    1.334175   -0.928932
     28          1           0       -2.565007    1.827233    0.746610
 ---------------------------------------------------------------------

 SCF Done:  E(UB3LYP) =  -500.315731029     A.U. after   33 cycles
 SCF Done:  E(UB3LYP) =  -500.315731029     a.u. after    1 cycles

 The electronic state is 2-A.
 Alpha  occ. eigenvalues --  -14.19974 -14.19647 -10.11480 -10.09861 -10.09235
 Alpha  occ. eigenvalues --  -10.08485 -10.07088 -10.07022 -10.06994 -10.06678
 Alpha  occ. eigenvalues --  -10.06567 -10.06364  -0.84593  -0.78408  -0.75241
 Alpha  occ. eigenvalues --   -0.71514  -0.65498  -0.60053  -0.56265  -0.53583
 Alpha  occ. eigenvalues --   -0.50244  -0.48241  -0.47781  -0.42737  -0.40874
 Alpha  occ. eigenvalues --   -0.38404  -0.38231  -0.36305  -0.35744  -0.33850
 Alpha  occ. eigenvalues --   -0.32869  -0.31386  -0.30350  -0.28140  -0.27601
 Alpha  occ. eigenvalues --   -0.27497  -0.26607  -0.23990  -0.23898  -0.22253
 Alpha  occ. eigenvalues --   -0.20920  -0.18912  -0.13991  -0.13153  -0.13034
 Alpha  occ. eigenvalues --    0.04656
 Alpha virt. eigenvalues --    0.06466   0.07107   0.07712   0.08680   0.09144
 Alpha virt. eigenvalues --    0.09698   0.10251   0.10572   0.10921   0.11552
 Alpha virt. eigenvalues --    0.11730   0.12674   0.13164   0.13775   0.14104

  Beta  occ. eigenvalues --  -14.19969 -14.19625 -10.11455 -10.09852 -10.09222
  Beta  occ. eigenvalues --  -10.08482 -10.07071 -10.07019 -10.06963 -10.06669
  Beta  occ. eigenvalues --  -10.06553 -10.06351  -0.84568  -0.78388  -0.75215
  Beta  occ. eigenvalues --   -0.71491  -0.65468  -0.60019  -0.56223  -0.53538
  Beta  occ. eigenvalues --   -0.50185  -0.48196  -0.47739  -0.42692  -0.40822
  Beta  occ. eigenvalues --   -0.38365  -0.38194  -0.36266  -0.35697  -0.33816
  Beta  occ. eigenvalues --   -0.32832  -0.31356  -0.30322  -0.28113  -0.27568
  Beta  occ. eigenvalues --   -0.27465  -0.26580  -0.23965  -0.23865  -0.22223
  Beta  occ. eigenvalues --   -0.20899  -0.18886  -0.13960  -0.13127  -0.13010
  Beta virt. eigenvalues --    0.06884   0.07664   0.07831   0.08126   0.09436
  Beta virt. eigenvalues --    0.09918   0.09939   0.10650   0.10859   0.11326
  Beta virt. eigenvalues --    0.11943   0.12269   0.13013   0.13426   0.14105

 Mulliken charges and spin densities:
               1          2
     1  C    0.272689  -0.919477
     2  C    1.990521  -2.311106
     3  C   -2.502156   3.416091
     4  C   -0.372637  -0.233916
     5  C    0.974505  -0.912597
     6  C    1.018033  -1.866258
     7  C   -1.598202   2.101741
     8  C    1.131839  -1.764714
     9  N   -0.203885   0.095536
    10  C    0.706562  -0.960578
    11  N   -0.189255   0.105945
    12  C    0.601187  -1.360106
    13  H    0.145000   0.023286
    14  H   -0.158429   0.321344
    15  H   -0.639383   0.788625
    16  H   -0.197383   0.345347
    17  H   -0.430235   0.606131
    18  H   -0.837173   1.029290
    19  H    0.025786   0.112199
    20  H   -0.202536   0.351294
    21  H    0.058095   0.141864
    22  H   -0.049824   0.228593
    23  H    0.179733   0.045606
    24  H   -0.597141   0.781384
    25  H   -0.119324   0.257252
    26  H    0.087997   0.145362
    27  H    0.002023   0.166184
    28  H   -0.096407   0.265679
 Sum of Mulliken charges =  -1.00000   1.00000

 Dipole moment (field-independent basis, Debye):
    X=             -2.0452    Y=              0.8210    Z=              1.3942  Tot=              2.6078
 Quadrupole moment (field-independent basis, Debye-Ang):
   XX=           -140.0490   YY=           -131.5657   ZZ=           -103.0229
   XY=             -7.0268   XZ=              0.6636   YZ=             -4.8798

 Summary of Natural Population Analysis:

                                       Natural Population
                Natural  -----------------------------------------------
    Atom  No    Charge         Core      Valence    Rydberg      Total
 -----------------------------------------------------------------------
      C    1   -0.19039      0.99959     2.18204    0.00877     3.19039
      C    2   -0.18996      0.99959     2.18055    0.00982     3.18996
      C    3   -0.06272      0.99952     2.04840    0.01480     3.06272
      C    4   -0.08695      0.99948     2.07613    0.01134     3.08695
      C    5   -0.09076      0.99953     2.08121    0.01001     3.09076
      C    6   -0.20535      0.99960     2.19551    0.01024     3.20535
      C    7   -0.11823      0.99957     2.10837    0.01029     3.11823
      C    8    0.00225      0.99952     1.98515    0.01308     2.99775
      N    9   -0.35033      0.99972     2.83899    0.01162     3.85033
      C   10    0.00782      0.99965     1.97727    0.01527     2.99218
      N   11   -0.33539      0.99976     2.82375    0.01189     3.83539
      C   12   -0.08541      0.99960     2.07459    0.01122     3.08541
      H   13    0.11217      0.00000     0.38635    0.00148     0.38783
      H   14    0.10126      0.00000     0.39766    0.00108     0.39874
      H   15    0.10150      0.00000     0.39682    0.00169     0.39850
      H   16    0.10397      0.00000     0.39444    0.00159     0.39603
      H   17    0.10060      0.00000     0.39778    0.00162     0.39940
      H   18    0.09802      0.00000     0.40045    0.00153     0.40198
      H   19    0.10039      0.00000     0.39828    0.00133     0.39961
      H   20    0.10368      0.00000     0.39505    0.00127     0.39632
      H   21    0.09790      0.00000     0.40019    0.00192     0.40210
      H   22    0.08284      0.00000     0.41493    0.00223     0.41716
      H   23    0.17841      0.00000     0.31761    0.00397     0.32159
      H   24    0.09412      0.00000     0.40443    0.00146     0.40588
      H   25    0.07512      0.00000     0.42322    0.00166     0.42488
      H   26    0.16985      0.00000     0.32750    0.00265     0.33015
      H   27    0.08967      0.00000     0.40876    0.00157     0.41033
      H   28    0.09594      0.00000     0.40303    0.00103     0.40406
 =======================================================================
   * Total *    0.00000     11.99513    32.83844    0.16643    45.00000

 Normal termination of Gaussian 16 at Wed Dec  9 17:56:10 2020.
