 Gaussian 16, Revision A.03,

 -----------------------------------------------------------
 # opt freq B3LYP/6-31G(d) empiricaldispersion=gd3bj scf=xqc
 -----------------------------------------------------------

 ------------------------------
 CID_59517997_JID_6206_neutraal
 ------------------------------
 Symbolic Z-matrix:
 Charge =  0 Multiplicity = 1

 SCF Done:  E(RB3LYP) =  -1031.41404318     A.U. after   14 cycles
 SCF Done:  E(RB3LYP) =  -1031.41760298     A.U. after   12 cycles
 SCF Done:  E(RB3LYP) =  -1031.41795483     A.U. after   12 cycles
 SCF Done:  E(RB3LYP) =  -1031.41805753     A.U. after   12 cycles
 SCF Done:  E(RB3LYP) =  -1031.41810038     A.U. after   10 cycles
 SCF Done:  E(RB3LYP) =  -1031.41812405     A.U. after   10 cycles
 SCF Done:  E(RB3LYP) =  -1031.41812981     A.U. after    9 cycles
 SCF Done:  E(RB3LYP) =  -1031.41813768     A.U. after   10 cycles
 SCF Done:  E(RB3LYP) =  -1031.41814764     A.U. after   10 cycles
 SCF Done:  E(RB3LYP) =  -1031.41815764     A.U. after   10 cycles
 SCF Done:  E(RB3LYP) =  -1031.41816878     A.U. after   10 cycles
 SCF Done:  E(RB3LYP) =  -1031.41816993     A.U. after    9 cycles
 SCF Done:  E(RB3LYP) =  -1031.41817021     A.U. after    7 cycles
 SCF Done:  E(RB3LYP) =  -1031.41817028     A.U. after    7 cycles
 SCF Done:  E(RB3LYP) =  -1031.41817029     A.U. after    7 cycles
 Optimization completed.
    -- Stationary point found.
 Normal termination of Gaussian 16 at Thu Dec 10 21:18:05 2020.

 --------------------------------------------------------------------
 #N Geom=AllCheck Guess=TCheck SCRF=Check GenChk RB3LYP/6-31G(d) Freq
 --------------------------------------------------------------------

 Structure from the checkpoint file:  "JID_6206.chk"
 ------------------------------
 CID_59517997_JID_6206_neutraal
 ------------------------------
 Charge =  0 Multiplicity = 1

 SCF Done:  E(RB3LYP) =  -1031.41817029     A.U. after    1 cycles

  Exact polarizability: 202.577  16.375 172.025  15.892  -2.696 108.381
 Approx polarizability: 270.016  24.396 276.595  33.339  -8.235 183.226

                      1                      2                      3
                      A                      A                      A
 Frequencies --     18.8760                32.7895                45.3152
 Red. masses --      5.2529                 4.4473                 4.6151
 Frc consts  --      0.0011                 0.0028                 0.0056
 IR Inten    --      0.8767                 0.3685                 0.0909

                      4                      5                      6
                      A                      A                      A
 Frequencies --     66.7825                91.2023               122.6341
 Red. masses --      5.3009                 2.2607                 4.8895
 Frc consts  --      0.0139                 0.0111                 0.0433
 IR Inten    --      0.9533                 1.7308                 0.1652

                      7                      8                      9
                      A                      A                      A
 Frequencies --    213.1779               226.2820               233.0144
 Red. masses --      4.7704                 2.5999                 4.5303
 Frc consts  --      0.1277                 0.0784                 0.1449
 IR Inten    --      1.2105                15.1445                 0.6848

                     10                     11                     12
                      A                      A                      A
 Frequencies --    260.5469               294.7383               320.4347
 Red. masses --      3.7894                 1.6258                 5.4997
 Frc consts  --      0.1516                 0.0832                 0.3327
 IR Inten    --      2.5533                29.9705                 0.1035

                     13                     14                     15
                      A                      A                      A
 Frequencies --    350.1210               424.2483               442.2668
 Red. masses --      5.6082                 3.1061                 3.9665
 Frc consts  --      0.4051                 0.3294                 0.4571
 IR Inten    --      4.7097                 0.4261                21.3112

                     16                     17                     18
                      A                      A                      A
 Frequencies --    459.9565               500.2048               548.7262
 Red. masses --      3.2254                 3.2552                 1.8315
 Frc consts  --      0.4020                 0.4799                 0.3249
 IR Inten    --      9.0111                 4.8378                95.8468

                     19                     20                     21
                      A                      A                      A
 Frequencies --    579.9265               584.5829               628.8938
 Red. masses --      5.7064                 6.7733                 4.0212
 Frc consts  --      1.1307                 1.3638                 0.9371
 IR Inten    --      2.5095                 2.0962                27.0626

                     22                     23                     24
                      A                      A                      A
 Frequencies --    633.4454               654.2764               696.8170
 Red. masses --      5.2045                 4.5337                 2.3362
 Frc consts  --      1.2304                 1.1435                 0.6683
 IR Inten    --     12.0137                12.2275                 9.6479

                     25                     26                     27
                      A                      A                      A
 Frequencies --    705.9890               735.9493               764.6380
 Red. masses --      2.2611                 3.0489                 1.5925
 Frc consts  --      0.6640                 0.9730                 0.5486
 IR Inten    --     16.5872                 0.3607                35.1654

                     28                     29                     30
                      A                      A                      A
 Frequencies --    777.4894               786.3882               835.6389
 Red. masses --      1.4944                 1.8802                 1.9888
 Frc consts  --      0.5322                 0.6851                 0.8182
 IR Inten    --     22.4859                18.6610                 8.1351

                     31                     32                     33
                      A                      A                      A
 Frequencies --    843.0705               849.2363               859.4817
 Red. masses --      1.3790                 1.5235                 1.6465
 Frc consts  --      0.5775                 0.6474                 0.7166
 IR Inten    --      5.8974                 8.0736                25.6837

                     34                     35                     36
                      A                      A                      A
 Frequencies --    873.3540               913.8085               958.1724
 Red. masses --      2.9742                 1.4655                 1.2474
 Frc consts  --      1.3366                 0.7210                 0.6747
 IR Inten    --      5.2940                 4.0573                 0.2012

                     37                     38                     39
                      A                      A                      A
 Frequencies --    962.3974               983.1266               986.5956
 Red. masses --      1.3295                 2.3327                 1.4528
 Frc consts  --      0.7255                 1.3284                 0.8332
 IR Inten    --      0.0549                21.1362                 9.7949

                     40                     41                     42
                      A                      A                      A
 Frequencies --   1015.8435              1022.3403              1054.5413
 Red. masses --      5.9856                 6.0989                 2.0430
 Frc consts  --      3.6392                 3.7557                 1.3386
 IR Inten    --      3.0408                 0.5319                 4.6840

                     43                     44                     45
                      A                      A                      A
 Frequencies --   1066.0112              1108.4726              1118.0222
 Red. masses --      1.3811                 1.4882                 1.5379
 Frc consts  --      0.9247                 1.0773                 1.1326
 IR Inten    --     31.2325                 5.6546                 8.6084

                     46                     47                     48
                      A                      A                      A
 Frequencies --   1140.8683              1189.8886              1192.3954
 Red. masses --      2.8689                 1.1914                 1.2719
 Frc consts  --      2.2000                 0.9939                 1.0655
 IR Inten    --     25.3384                19.6347                44.2127

                     49                     50                     51
                      A                      A                      A
 Frequencies --   1199.4141              1216.3233              1249.2316
 Red. masses --      1.1437                 1.7383                 1.1008
 Frc consts  --      0.9694                 1.5152                 1.0121
 IR Inten    --     24.2165                57.2313                34.2727

                     52                     53                     54
                      A                      A                      A
 Frequencies --   1267.8003              1302.7871              1338.0189
 Red. masses --      3.1332                 2.5497                 1.6102
 Frc consts  --      2.9672                 2.5497                 1.6985
 IR Inten    --    310.4024               214.5650                20.8606

                     55                     56                     57
                      A                      A                      A
 Frequencies --   1348.1323              1363.9133              1369.6045
 Red. masses --      1.4572                 2.3573                 2.6339
 Frc consts  --      1.5604                 2.5837                 2.9109
 IR Inten    --     20.1133                 8.6851                26.1981

                     58                     59                     60
                      A                      A                      A
 Frequencies --   1381.0094              1458.1930              1504.6739
 Red. masses --      3.9022                 1.9136                 2.2854
 Frc consts  --      4.3848                 2.3973                 3.0486
 IR Inten    --     28.4726                41.5218                 3.4977

                     61                     62                     63
                      A                      A                      A
 Frequencies --   1534.5936              1541.6640              1545.2215
 Red. masses --      1.1894                 2.1528                 2.4073
 Frc consts  --      1.6503                 3.0146                 3.3866
 IR Inten    --     74.4395               166.5509               120.3219

                     64                     65                     66
                      A                      A                      A
 Frequencies --   1553.5841              1646.3618              1650.6121
 Red. masses --      1.8539                 5.5180                 5.8177
 Frc consts  --      2.6364                 8.8121                 9.3389
 IR Inten    --     20.2815               127.1864                61.1594

                     67                     68                     69
                      A                      A                      A
 Frequencies --   1664.7272              1671.1951              2679.1439
 Red. masses --      6.1685                 5.9053                 1.0383
 Frc consts  --     10.0720                 9.7173                 4.3911
 IR Inten    --     69.2662               155.1913                12.7140

                     70                     71                     72
                      A                      A                      A
 Frequencies --   3006.9993              3111.1226              3187.2496
 Red. masses --      1.0704                 1.0931                 1.0852
 Frc consts  --      5.7023                 6.2334                 6.4954
 IR Inten    --     45.7677                12.2391                 1.4223

                     73                     74                     75
                      A                      A                      A
 Frequencies --   3193.0213              3195.8414              3206.5385
 Red. masses --      1.0879                 1.0895                 1.0902
 Frc consts  --      6.5349                 6.5560                 6.6044
 IR Inten    --     16.7410                14.4729                 3.7957

                     76                     77                     78
                      A                      A                      A
 Frequencies --   3210.0883              3220.5353              3223.5920
 Red. masses --      1.0934                 1.0943                 1.0944
 Frc consts  --      6.6384                 6.6874                 6.7004
 IR Inten    --     31.9552                11.4058                 3.2374

                     79                     80                     81
                      A                      A                      A
 Frequencies --   3223.6256              3229.7450              3572.0925
 Red. masses --      1.0908                 1.0945                 1.0757
 Frc consts  --      6.6784                 6.7270                 8.0869
 IR Inten    --     15.8803                 5.2489                17.4223

 - Thermochemistry -
 -------------------
 Temperature   298.150 Kelvin.  Pressure   1.00000 Atm.
 Atom     1 has atomic number  6 and mass  12.00000

 Molecular mass:   231.07179 amu.
 Principal axes and moments of inertia in atomic units:
                           1         2         3
     Eigenvalues --  2448.934998069.542029880.67796
           X            0.99987   0.01599   0.00322
           Y           -0.01598   0.99987  -0.00279
           Z           -0.00326   0.00273   0.99999
 This molecule is an asymmetric top.
 Rotational symmetry number  1.
 Warning -- assumption of classical behavior for rotation
           may cause significant error
 Rotational temperatures (Kelvin)      0.03537     0.01073     0.00877
 Rotational constants (GHZ):           0.73695     0.22365     0.18265
 Zero-point vibrational energy     605547.5 (Joules/Mol)
                                  144.72932 (Kcal/Mol)
 Warning -- explicit consideration of  20 degrees of freedom as
           vibrations may cause significant error
 Vibrational temperatures:     27.16    47.18    65.20    96.09   131.22
          (Kelvin)            176.44   306.72   325.57   335.26   374.87
                              424.06   461.03   503.75   610.40   636.32
                              661.77   719.68   789.49   834.38   841.08
                              904.84   911.39   941.36  1002.56  1015.76
                             1058.87  1100.14  1118.63  1131.44  1202.30
                             1212.99  1221.86  1236.60  1256.56  1314.77
                             1378.60  1384.68  1414.50  1419.49  1461.57
                             1470.92  1517.25  1533.75  1594.84  1608.58
                             1641.45  1711.98  1715.59  1725.69  1750.02
                             1797.37  1824.08  1874.42  1925.11  1939.66
                             1962.37  1970.56  1986.96  2098.01  2164.89
                             2207.94  2218.11  2223.23  2235.26  2368.75
                             2374.86  2395.17  2404.48  3854.69  4326.40
                             4476.21  4585.74  4594.05  4598.10  4613.49
                             4618.60  4633.63  4638.03  4638.08  4646.88
                             5139.44

 Zero-point correction=                           0.230641 (Hartree/Particle)
 Thermal correction to Energy=                    0.245049
 Thermal correction to Enthalpy=                  0.245993
 Thermal correction to Gibbs Free Energy=         0.186482
 Sum of electronic and zero-point Energies=          -1031.187529
 Sum of electronic and thermal Energies=             -1031.173122
 Sum of electronic and thermal Enthalpies=           -1031.172177
 Sum of electronic and thermal Free Energies=        -1031.231688

                     E (Thermal)             CV                S
                      KCal/Mol        Cal/Mol-Kelvin    Cal/Mol-Kelvin
 Total                  153.770             55.414            125.251
 Electronic               0.000              0.000              0.000
 Translational            0.889              2.981             42.215
 Rotational               0.889              2.981             33.634
 Vibrational            151.993             49.452             49.402
 Vibration     1          0.593              1.986              6.749
 Vibration     2          0.594              1.983              5.653
 Vibration     3          0.595              1.979              5.012
 Vibration     4          0.598              1.970              4.246
 Vibration     5          0.602              1.955              3.634
 Vibration     6          0.610              1.930              3.058
 Vibration     7          0.644              1.821              2.016
 Vibration     8          0.650              1.801              1.908
 Vibration     9          0.654              1.790              1.856
 Vibration    10          0.669              1.745              1.658
 Vibration    11          0.689              1.684              1.447
 Vibration    12          0.706              1.634              1.308
 Vibration    13          0.727              1.575              1.166
 Vibration    14          0.786              1.417              0.878
 Vibration    15          0.802              1.378              0.820
 Vibration    16          0.818              1.339              0.766
 Vibration    17          0.856              1.250              0.658
 Vibration    18          0.904              1.142              0.547
 Vibration    19          0.937              1.075              0.485
 Vibration    20          0.942              1.065              0.477

 Optimization completed.
    -- Stationary point found.
 Normal termination of Gaussian 16 at Thu Dec 10 21:27:15 2020.

 ----------------------------------------------------------------------
 # B3LYP/6-311++G(d,p) empiricaldispersion=gd3bj scf=xqc pop=npa geom=c
 heck
 ----------------------------------------------------------------------

 --------------------------------------
 CID_59517997_JID_6206_Energie_neutraal
 --------------------------------------
 Structure from the checkpoint file:  "JID_6206.chk"
 Charge =  0 Multiplicity = 1

 SCF Done:  E(RB3LYP) =  -1031.61822641     A.U. after   15 cycles
 Normal termination of Gaussian 16 at Thu Dec 10 21:31:42 2020.

 ----------------------------------------------------------------------
 # B3LYP/6-311++G(d,p) empiricaldispersion=gd3bj scf=xqc pop=npa geom=c
 heck
 ----------------------------------------------------------------------

 ------------------------------------
 CID_59517997_JID_6206_Energie_kation
 ------------------------------------
 Structure from the checkpoint file:  "JID_6206.chk"
 Charge =  1 Multiplicity = 2

 SCF Done:  E(UB3LYP) =  -1031.34220180     A.U. after   29 cycles
 Normal termination of Gaussian 16 at Thu Dec 10 21:43:57 2020.
 Gaussian 16:  ES64L-G16RevA.03 25-Dec-2016

 ----------------------------------------------------------------------
 # B3LYP/6-311++G(d,p) empiricaldispersion=gd3bj scf=xqc pop=npa geom=c
 heck
 ----------------------------------------------------------------------

 -----------------------------------
 CID_59517997_JID_6206_Energie_anion
 -----------------------------------
 Structure from the checkpoint file:  "JID_6206.chk"
 Charge = -1 Multiplicity = 2

                         Standard orientation:
 ---------------------------------------------------------------------
 Center     Atomic      Atomic             Coordinates (Angstroms)
 Number     Number       Type             X           Y           Z
 ---------------------------------------------------------------------
      1          6           0       -4.228078   -2.017444    0.377238
      2          6           0       -4.367170   -1.353343   -0.842418
      3          6           0       -3.589646   -0.231206   -1.127571
      4          6           0       -2.676399    0.229549   -0.179849
      5          6           0       -2.533035   -0.419834    1.049237
      6          6           0       -3.309658   -1.545813    1.317783
      7          8           0       -1.988610    1.387741   -0.483150
      8          6           0       -0.646370    1.494546   -0.179532
      9          6           0       -0.180532    2.771284    0.143908
     10          6           0        1.178501    2.935936    0.390688
     11          6           0        2.067356    1.862252    0.326567
     12          6           0        1.588332    0.580279    0.007978
     13          6           0        0.218252    0.407602   -0.255367
     14          7           0        2.418760   -0.543763   -0.030777
     15          6           0        3.855871   -0.392534   -0.096971
     16         16           0        4.684720   -2.019770   -0.219184
     17          1           0       -4.831135   -2.893834    0.594654
     18          1           0       -5.079519   -1.711171   -1.580403
     19          1           0       -3.678669    0.298786   -2.070154
     20          1           0       -1.822001   -0.044417    1.777101
     21          1           0       -3.199970   -2.051893    2.272863
     22          1           0       -0.880852    3.597326    0.190905
     23          1           0        1.559978    3.922496    0.638606
     24          1           0        3.120464    2.028062    0.520548
     25          1           0       -0.166415   -0.575327   -0.507475
     26          1           0        2.075060   -1.289266   -0.624753
     27          1           0        4.203230    0.170832   -0.977333
     28          1           0        4.212110    0.130177    0.794058
     29          1           0        4.245208   -2.488679    0.968826
 ---------------------------------------------------------------------

 SCF Done:  E(UB3LYP) =  -1031.60740893     A.U. after   33 cycles
 SCF Done:  E(UB3LYP) =  -1031.60740893     a.u. after    1 cycles

 The electronic state is 2-A.
 Alpha  occ. eigenvalues --  -88.75226 -19.07250 -14.23473 -10.14776 -10.14449
 Alpha  occ. eigenvalues --  -10.14109 -10.12746 -10.09024 -10.08908 -10.08666
 Alpha  occ. eigenvalues --  -10.08581 -10.08544 -10.08405 -10.07686 -10.07386
 Alpha  occ. eigenvalues --  -10.07338  -7.83922  -5.80294  -5.79943  -5.79313
 Alpha  occ. eigenvalues --   -0.99223  -0.85170  -0.77268  -0.75428  -0.68828
 Alpha  occ. eigenvalues --   -0.67299  -0.66370  -0.64522  -0.62915  -0.56215
 Alpha  occ. eigenvalues --   -0.54491  -0.53013  -0.51655  -0.48813  -0.45912
 Alpha  occ. eigenvalues --   -0.43377  -0.41501  -0.39922  -0.38735  -0.38313
 Alpha  occ. eigenvalues --   -0.37911  -0.35766  -0.34894  -0.34037  -0.33871
 Alpha  occ. eigenvalues --   -0.32037  -0.31050  -0.30588  -0.28456  -0.28224
 Alpha  occ. eigenvalues --   -0.27615  -0.26944  -0.25874  -0.24857  -0.24362
 Alpha  occ. eigenvalues --   -0.20681  -0.17332  -0.16608  -0.15666  -0.13561
 Alpha  occ. eigenvalues --   -0.11690   0.04083
 Alpha virt. eigenvalues --    0.05532   0.06406   0.06804   0.07168   0.07327
 Alpha virt. eigenvalues --    0.07960   0.08286   0.08446   0.08797   0.09616
 Alpha virt. eigenvalues --    0.09792   0.09966   0.10211   0.10972   0.11740

  Beta  occ. eigenvalues --  -88.75202 -19.07252 -14.23454 -10.14768 -10.14422
  Beta  occ. eigenvalues --  -10.14066 -10.12749 -10.09011 -10.08868 -10.08661
  Beta  occ. eigenvalues --  -10.08549 -10.08512 -10.08391 -10.07675 -10.07393
  Beta  occ. eigenvalues --  -10.07313  -7.83896  -5.80234  -5.79929  -5.79296
  Beta  occ. eigenvalues --   -0.99210  -0.85138  -0.77222  -0.75389  -0.68757
  Beta  occ. eigenvalues --   -0.67244  -0.66301  -0.64466  -0.62864  -0.56118
  Beta  occ. eigenvalues --   -0.54416  -0.52954  -0.51622  -0.48750  -0.45866
  Beta  occ. eigenvalues --   -0.43326  -0.41442  -0.39878  -0.38694  -0.38275
  Beta  occ. eigenvalues --   -0.37861  -0.35720  -0.34837  -0.33999  -0.33829
  Beta  occ. eigenvalues --   -0.31952  -0.30983  -0.30501  -0.28411  -0.28182
  Beta  occ. eigenvalues --   -0.27555  -0.26910  -0.25834  -0.24764  -0.24273
  Beta  occ. eigenvalues --   -0.20612  -0.17187  -0.16517  -0.15602  -0.13475
  Beta  occ. eigenvalues --   -0.11637
  Beta virt. eigenvalues --    0.06126   0.06571   0.06685   0.07192   0.07377
  Beta virt. eigenvalues --    0.07667   0.08286   0.08528   0.08786   0.09225
  Beta virt. eigenvalues --    0.09704   0.09935   0.10095   0.10569   0.11294

 Mulliken charges and spin densities:
               1          2
     1  C    0.965194  -1.332224
     2  C    0.269238  -0.458534
     3  C   -0.719954   0.836699
     4  C   -0.229695  -0.330088
     5  C    0.433901  -0.267540
     6  C   -0.342300   0.321743
     7  O    0.000139  -0.005063
     8  C   -0.603452  -0.314742
     9  C   -0.964981   0.693528
    10  C   -0.611074   0.393231
    11  C    1.273719  -0.662100
    12  C    0.193313  -0.296516
    13  C    0.234368  -0.239807
    14  N   -0.115618   0.191294
    15  C    0.580965  -0.889090
    16  S    0.465832  -0.570398
    17  H   -0.274137   0.421549
    18  H   -0.388200   0.559535
    19  H   -0.030111   0.201056
    20  H    0.161254   0.016474
    21  H   -0.294753   0.474990
    22  H    0.068960   0.081564
    23  H   -0.153269   0.313946
    24  H   -0.081775   0.235234
    25  H    0.225137  -0.075667
    26  H   -0.074871   0.264253
    27  H   -0.238623   0.447069
    28  H   -0.373706   0.568847
    29  H   -0.375501   0.420755
 Sum of Mulliken charges =  -1.00000   1.00000

 Dipole moment (field-independent basis, Debye):
    X=             -1.5794    Y=              2.9330    Z=             -0.7820  Tot=              3.4218
 Quadrupole moment (field-independent basis, Debye-Ang):
   XX=           -206.8194   YY=           -143.7710   ZZ=           -131.1873
   XY=             -7.9411   XZ=             -3.9899   YZ=              1.6599

 Summary of Natural Population Analysis:

                                       Natural Population
                Natural  -----------------------------------------------
    Atom  No    Charge         Core      Valence    Rydberg      Total
 -----------------------------------------------------------------------
      C    1   -0.11204      0.99956     2.10257    0.00990     3.11204
      C    2   -0.09140      0.99957     2.08148    0.01035     3.09140
      C    3   -0.12154      0.99951     2.11172    0.01031     3.12154
      C    4    0.15371      0.99936     1.83402    0.01292     2.84629
      C    5   -0.12340      0.99951     2.11534    0.00855     3.12340
      C    6   -0.09407      0.99957     2.08409    0.01041     3.09407
      O    7   -0.27093      0.99984     3.26082    0.01028     4.27093
      C    8    0.16678      0.99936     1.82135    0.01251     2.83322
      C    9   -0.14545      0.99951     2.13607    0.00988     3.14545
      C   10   -0.07953      0.99958     2.07062    0.00933     3.07953
      C   11   -0.14220      0.99952     2.13309    0.00959     3.14220
      C   12    0.09794      0.99950     1.89064    0.01192     2.90206
      C   13   -0.15092      0.99948     2.14325    0.00820     3.15092
      N   14   -0.31883      0.99967     2.80675    0.01241     3.81883
      C   15   -0.14069      0.99961     2.12886    0.01223     3.14069
      S   16   -0.01767      4.99967     3.00300    0.01499     8.01767
      H   17    0.10264      0.00000     0.39603    0.00134     0.39736
      H   18    0.10174      0.00000     0.39708    0.00118     0.39826
      H   19    0.10679      0.00000     0.39214    0.00106     0.39321
      H   20    0.10993      0.00000     0.38845    0.00162     0.39007
      H   21    0.10221      0.00000     0.39680    0.00099     0.39779
      H   22    0.10520      0.00000     0.39380    0.00100     0.39480
      H   23    0.09899      0.00000     0.40020    0.00081     0.40101
      H   24    0.10467      0.00000     0.39398    0.00135     0.39533
      H   25    0.10911      0.00000     0.38922    0.00167     0.39089
      H   26    0.18747      0.00000     0.30873    0.00380     0.31253
      H   27    0.09284      0.00000     0.40459    0.00257     0.40716
      H   28    0.10187      0.00000     0.39439    0.00375     0.39813
      H   29    0.06677      0.00000     0.42855    0.00468     0.43323
 =======================================================================
   * Total *   -0.00000     19.99282    40.80760    0.19959    61.00000

 Normal termination of Gaussian 16 at Thu Dec 10 21:58:12 2020.
