 Gaussian 16, Revision A.03,

 -----------------------------------------------------------
 # opt freq B3LYP/6-31G(d) empiricaldispersion=gd3bj scf=xqc
 -----------------------------------------------------------

 --------------------------------
 CID_112990634_JID_10139_neutraal
 --------------------------------
 Symbolic Z-matrix:
 Charge =  0 Multiplicity = 1

 SCF Done:  E(RB3LYP) =  -920.109549135     A.U. after   15 cycles
 SCF Done:  E(RB3LYP) =  -919.272956554     A.U. after   17 cycles
 SCF Done:  E(RB3LYP) =  -920.107466648     A.U. after   14 cycles
 SCF Done:  E(RB3LYP) =  -920.115341902     A.U. after   11 cycles
 SCF Done:  E(RB3LYP) =  -920.117966022     A.U. after   12 cycles
 SCF Done:  E(RB3LYP) =  -920.118805977     A.U. after   15 cycles
 SCF Done:  E(RB3LYP) =  -920.119891706     A.U. after   13 cycles
 SCF Done:  E(RB3LYP) =  -920.120506886     A.U. after   12 cycles
 SCF Done:  E(RB3LYP) =  -920.121135949     A.U. after   12 cycles
 SCF Done:  E(RB3LYP) =  -920.121280985     A.U. after   12 cycles
 SCF Done:  E(RB3LYP) =  -920.121462518     A.U. after    8 cycles
 SCF Done:  E(RB3LYP) =  -920.121462917     A.U. after    8 cycles
 SCF Done:  E(RB3LYP) =  -920.121463276     A.U. after    8 cycles
 SCF Done:  E(RB3LYP) =  -920.121463424     A.U. after    8 cycles
 SCF Done:  E(RB3LYP) =  -920.121463434     A.U. after    6 cycles
 Optimization completed.
    -- Stationary point found.
 Normal termination of Gaussian 16 at Mon Dec 14 18:00:37 2020.

 --------------------------------------------------------------------
 #N Geom=AllCheck Guess=TCheck SCRF=Check GenChk RB3LYP/6-31G(d) Freq
 --------------------------------------------------------------------

 Structure from the checkpoint file:  "JID_10139.chk"
 --------------------------------
 CID_112990634_JID_10139_neutraal
 --------------------------------
 Charge =  0 Multiplicity = 1

 SCF Done:  E(RB3LYP) =  -920.121463434     A.U. after    1 cycles

  Exact polarizability: 203.920  13.943 159.097 -10.749   9.482 153.038
 Approx polarizability: 291.727  22.355 226.721 -17.140  29.910 267.107

                      1                      2                      3
                      A                      A                      A
 Frequencies --     22.8587                41.2434                44.3882
 Red. masses --      5.7759                 4.3498                 5.0732
 Frc consts  --      0.0018                 0.0044                 0.0059
 IR Inten    --      0.5981                 0.6671                 0.6411

                      4                      5                      6
                      A                      A                      A
 Frequencies --     58.9524                62.4378                77.3397
 Red. masses --      4.2373                 3.6593                 3.3374
 Frc consts  --      0.0087                 0.0084                 0.0118
 IR Inten    --      2.0023                 0.9265                 2.6137

                      7                      8                      9
                      A                      A                      A
 Frequencies --     89.8216                97.2217               107.2548
 Red. masses --      4.5897                 3.8468                 3.5639
 Frc consts  --      0.0218                 0.0214                 0.0242
 IR Inten    --      2.1991                 1.1245                 1.1664

                     10                     11                     12
                      A                      A                      A
 Frequencies --    115.4416               152.8999               179.2027
 Red. masses --      4.1014                 5.1826                 4.1620
 Frc consts  --      0.0322                 0.0714                 0.0787
 IR Inten    --      0.8767                 2.5224                 0.5791

                     13                     14                     15
                      A                      A                      A
 Frequencies --    197.9124               215.6218               225.2928
 Red. masses --      2.7679                 3.3677                 2.1124
 Frc consts  --      0.0639                 0.0922                 0.0632
 IR Inten    --      3.7447                 0.3236                 3.5895

                     16                     17                     18
                      A                      A                      A
 Frequencies --    242.9735               264.4484               289.7514
 Red. masses --      2.2917                 1.4081                 1.6115
 Frc consts  --      0.0797                 0.0580                 0.0797
 IR Inten    --      2.6806                 0.8947                 2.7541

                     19                     20                     21
                      A                      A                      A
 Frequencies --    294.4566               322.9503               364.4655
 Red. masses --      1.9251                 3.5284                 2.6090
 Frc consts  --      0.0983                 0.2168                 0.2042
 IR Inten    --      1.0329                 1.9732                 1.7190

                     22                     23                     24
                      A                      A                      A
 Frequencies --    371.4639               424.3487               431.4355
 Red. masses --      2.8572                 3.9454                 3.4165
 Frc consts  --      0.2323                 0.4186                 0.3747
 IR Inten    --      3.3072                 0.3403                 0.3533

                     25                     26                     27
                      A                      A                      A
 Frequencies --    456.3341               483.6184               499.5263
 Red. masses --      2.7843                 2.9076                 2.1007
 Frc consts  --      0.3416                 0.4007                 0.3088
 IR Inten    --      3.1708                11.6105                21.7632

                     28                     29                     30
                      A                      A                      A
 Frequencies --    524.0978               526.9966               535.3633
 Red. masses --      2.7870                 2.8831                 2.3419
 Frc consts  --      0.4510                 0.4718                 0.3955
 IR Inten    --     19.7815                 4.0004                14.9128

                     31                     32                     33
                      A                      A                      A
 Frequencies --    576.5550               589.6387               595.2278
 Red. masses --      1.7824                 1.9453                 2.1687
 Frc consts  --      0.3491                 0.3985                 0.4527
 IR Inten    --     36.0034                24.1298               109.0725

                     34                     35                     36
                      A                      A                      A
 Frequencies --    652.4367               683.2913               717.5456
 Red. masses --      6.1474                 4.6208                 3.8278
 Frc consts  --      1.5418                 1.2711                 1.1612
 IR Inten    --      3.2557                 9.8403                14.1142

                     37                     38                     39
                      A                      A                      A
 Frequencies --    734.6626               759.0491               794.1377
 Red. masses --      4.3697                 1.2464                 4.3600
 Frc consts  --      1.3896                 0.4231                 1.6201
 IR Inten    --     12.9685                 6.9324                34.3571

                     40                     41                     42
                      A                      A                      A
 Frequencies --    822.2171               833.5373               838.1995
 Red. masses --      2.1953                 1.7956                 1.4035
 Frc consts  --      0.8744                 0.7350                 0.5810
 IR Inten    --      0.6140                33.4355                10.6120

                     43                     44                     45
                      A                      A                      A
 Frequencies --    852.2622               864.6200               891.2187
 Red. masses --      2.6240                 3.5957                 2.7521
 Frc consts  --      1.1230                 1.5838                 1.2879
 IR Inten    --      7.5835                 2.9379                 3.4516

                     46                     47                     48
                      A                      A                      A
 Frequencies --    909.2514               954.3926               965.4126
 Red. masses --      1.9736                 1.5075                 1.4745
 Frc consts  --      0.9614                 0.8090                 0.8097
 IR Inten    --      3.0874                 1.2173                 3.9298

                     49                     50                     51
                      A                      A                      A
 Frequencies --    974.3301               975.3097              1001.9859
 Red. masses --      1.5811                 1.7767                 1.4988
 Frc consts  --      0.8843                 0.9957                 0.8866
 IR Inten    --      1.7798                 0.9975                 4.5750

                     52                     53                     54
                      A                      A                      A
 Frequencies --   1026.9378              1037.1515              1059.8304
 Red. masses --      1.7420                 2.7860                 1.7039
 Frc consts  --      1.0824                 1.7657                 1.1276
 IR Inten    --      9.7793                 0.6404                 3.2278

                     55                     56                     57
                      A                      A                      A
 Frequencies --   1080.2494              1115.2975              1137.3623
 Red. masses --      6.3019                 2.4270                 2.0997
 Frc consts  --      4.3328                 1.7787                 1.6003
 IR Inten    --     53.6154                 1.0949                19.7733

                     58                     59                     60
                      A                      A                      A
 Frequencies --   1145.1873              1148.5660              1186.3954
 Red. masses --      1.6126                 1.9335                 1.2791
 Frc consts  --      1.2460                 1.5028                 1.0608
 IR Inten    --      2.6031                 2.0927                 1.2665

                     61                     62                     63
                      A                      A                      A
 Frequencies --   1188.1511              1189.7847              1215.8185
 Red. masses --      1.4643                 1.9112                 1.1953
 Frc consts  --      1.2180                 1.5940                 1.0411
 IR Inten    --     47.5599                 3.5094                20.3100

                     64                     65                     66
                      A                      A                      A
 Frequencies --   1218.9117              1231.5113              1252.3979
 Red. masses --      1.3760                 2.4528                 1.2177
 Frc consts  --      1.2045                 2.1917                 1.1253
 IR Inten    --     14.7121                 4.7866                41.4527

                     67                     68                     69
                      A                      A                      A
 Frequencies --   1269.6405              1292.2828              1301.7557
 Red. masses --      1.2355                 1.2867                 4.4778
 Frc consts  --      1.1734                 1.2660                 4.4707
 IR Inten    --      5.8496                 1.4154               207.3341

                     70                     71                     72
                      A                      A                      A
 Frequencies --   1318.3698              1342.8696              1350.1034
 Red. masses --      1.6011                 1.1346                 1.4789
 Frc consts  --      1.6397                 1.2055                 1.5882
 IR Inten    --     12.8181                 3.7032                60.1813

                     73                     74                     75
                      A                      A                      A
 Frequencies --   1352.1239              1369.8430              1380.1350
 Red. masses --      1.7061                 2.2511                 1.4632
 Frc consts  --      1.8378                 2.4888                 1.6421
 IR Inten    --     16.8035                 4.9302                45.5090

                     76                     77                     78
                      A                      A                      A
 Frequencies --   1400.8000              1407.3691              1409.9942
 Red. masses --      2.5174                 1.5027                 1.5086
 Frc consts  --      2.9105                 1.7537                 1.7671
 IR Inten    --    112.9347                37.6874                16.7664

                     79                     80                     81
                      A                      A                      A
 Frequencies --   1427.3195              1452.3529              1472.9616
 Red. masses --      2.0022                 1.2668                 2.7936
 Frc consts  --      2.4032                 1.5744                 3.5711
 IR Inten    --     46.1990                 4.0668                 1.9020

                     82                     83                     84
                      A                      A                      A
 Frequencies --   1489.4227              1498.6679              1500.2026
 Red. masses --      1.6797                 1.6013                 1.3242
 Frc consts  --      2.1954                 2.1190                 1.7559
 IR Inten    --     42.4898                41.4336                 9.5088

                     85                     86                     87
                      A                      A                      A
 Frequencies --   1511.7229              1512.7090              1520.4934
 Red. masses --      1.1095                 1.1161                 1.0759
 Frc consts  --      1.4940                 1.5047                 1.4655
 IR Inten    --     10.4444                 5.8107                 2.6126

                     88                     89                     90
                      A                      A                      A
 Frequencies --   1521.3660              1528.4821              1533.1992
 Red. masses --      1.0535                 1.0859                 1.0596
 Frc consts  --      1.4366                 1.4947                 1.4676
 IR Inten    --      3.2677                 1.4562                20.7552

                     91                     92                     93
                      A                      A                      A
 Frequencies --   1535.8931              1539.7439              1552.8818
 Red. masses --      1.0569                 1.0664                 1.0712
 Frc consts  --      1.4690                 1.4895                 1.5219
 IR Inten    --     13.8895                21.8378                20.0603

                     94                     95                     96
                      A                      A                      A
 Frequencies --   1567.8636              1635.8643              1676.2329
 Red. masses --      2.3873                 6.6526                 5.6886
 Frc consts  --      3.4576                10.4891                 9.4173
 IR Inten    --    109.7283                 4.2569                38.6924

                     97                     98                     99
                      A                      A                      A
 Frequencies --   1783.4283              1793.3911              3028.2250
 Red. masses --      8.0207                 7.9486                 1.0384
 Frc consts  --     15.0305                15.0622                 5.6102
 IR Inten    --    311.1835               460.9586                26.8298

                    100                    101                    102
                      A                      A                      A
 Frequencies --   3028.7119              3041.7475              3055.1135
 Red. masses --      1.0611                 1.0617                 1.0383
 Frc consts  --      5.7348                 5.7876                 5.7101
 IR Inten    --     36.4926                38.2794                19.9264

                    103                    104                    105
                      A                      A                      A
 Frequencies --   3058.7183              3066.1351              3069.7348
 Red. masses --      1.0679                 1.1010                 1.0617
 Frc consts  --      5.8863                 6.0986                 5.8947
 IR Inten    --     14.3594                23.8723                 8.8168

                    106                    107                    108
                      A                      A                      A
 Frequencies --   3072.5548              3080.6612              3088.6465
 Red. masses --      1.0618                 1.0991                 1.1063
 Frc consts  --      5.9059                 6.1457                 6.2179
 IR Inten    --     32.6867                61.3128                40.8579

                    109                    110                    111
                      A                      A                      A
 Frequencies --   3119.1886              3119.2868              3128.5862
 Red. masses --      1.1032                 1.1022                 1.1021
 Frc consts  --      6.3241                 6.3187                 6.3560
 IR Inten    --     32.0075                25.6551                21.7375

                    112                    113                    114
                      A                      A                      A
 Frequencies --   3132.9593              3139.6055              3164.3335
 Red. masses --      1.1003                 1.0937                 1.0999
 Frc consts  --      6.3634                 6.3516                 6.4888
 IR Inten    --     10.7124                11.2262                23.4508

                    115                    116                    117
                      A                      A                      A
 Frequencies --   3179.8588              3199.0816              3220.1626
 Red. masses --      1.0891                 1.0896                 1.0929
 Frc consts  --      6.4886                 6.5703                 6.6768
 IR Inten    --     12.8099                 1.7840                 4.6565

                    118                    119                    120
                      A                      A                      A
 Frequencies --   3229.1169              3585.4180              3592.9412
 Red. masses --      1.0916                 1.0758                 1.0757
 Frc consts  --      6.7062                 8.1484                 8.1814
 IR Inten    --      7.7640                26.3579                17.3102

 - Thermochemistry -
 -------------------
 Temperature   298.150 Kelvin.  Pressure   1.00000 Atm.
 Atom     1 has atomic number  6 and mass  12.00000

 Molecular mass:   278.16304 amu.
 Principal axes and moments of inertia in atomic units:
                           1         2         3
     Eigenvalues --  4427.287956393.538039064.47905
           X            0.99908   0.04071  -0.01358
           Y           -0.04084   0.99912  -0.00954
           Z            0.01318   0.01009   0.99986
 This molecule is an asymmetric top.
 Rotational symmetry number  1.
 Warning -- assumption of classical behavior for rotation
           may cause significant error
 Rotational temperatures (Kelvin)      0.01956     0.01355     0.00956
 Rotational constants (GHZ):           0.40764     0.28228     0.19910
 Zero-point vibrational energy     948574.2 (Joules/Mol)
                                  226.71468 (Kcal/Mol)
 Warning -- explicit consideration of  33 degrees of freedom as
           vibrations may cause significant error
 Vibrational temperatures:     32.89    59.34    63.86    84.82    89.83
          (Kelvin)            111.27   129.23   139.88   154.32   166.09
                              219.99   257.83   284.75   310.23   324.15
                              349.58   380.48   416.89   423.66   464.65
                              524.38   534.45   610.54   620.74   656.56
                              695.82   718.71   754.06   758.23   770.27
                              829.53   848.36   856.40   938.71   983.10
                             1032.39  1057.02  1092.10  1142.59  1182.99
                             1199.27  1205.98  1226.22  1244.00  1282.26
                             1308.21  1373.16  1389.01  1401.84  1403.25
                             1441.63  1477.53  1492.23  1524.86  1554.24
                             1604.66  1636.41  1647.67  1652.53  1706.96
                             1709.48  1711.83  1749.29  1753.74  1771.87
                             1801.92  1826.73  1859.31  1872.94  1896.84
                             1932.09  1942.50  1945.40  1970.90  1985.71
                             2015.44  2024.89  2028.67  2053.59  2089.61
                             2119.26  2142.95  2156.25  2158.46  2175.03
                             2176.45  2187.65  2188.91  2199.14  2205.93
                             2209.81  2215.35  2234.25  2255.81  2353.64
                             2411.73  2565.96  2580.29  4356.94  4357.64
                             4376.40  4395.63  4400.81  4411.48  4416.66
                             4420.72  4432.38  4443.87  4487.82  4487.96
                             4501.34  4507.63  4517.19  4552.77  4575.11
                             4602.76  4633.10  4645.98  5158.62  5169.44

 Zero-point correction=                           0.361293 (Hartree/Particle)
 Thermal correction to Energy=                    0.381989
 Thermal correction to Enthalpy=                  0.382933
 Thermal correction to Gibbs Free Energy=         0.310552
 Sum of electronic and zero-point Energies=           -919.760171
 Sum of electronic and thermal Energies=              -919.739475
 Sum of electronic and thermal Enthalpies=            -919.738530
 Sum of electronic and thermal Free Energies=         -919.810912

                     E (Thermal)             CV                S
                      KCal/Mol        Cal/Mol-Kelvin    Cal/Mol-Kelvin
 Total                  239.702             77.062            152.340
 Electronic               0.000              0.000              0.000
 Translational            0.889              2.981             42.767
 Rotational               0.889              2.981             33.906
 Vibrational            237.924             71.100             75.667
 Vibration     1          0.593              1.985              6.369
 Vibration     2          0.594              1.981              5.198
 Vibration     3          0.595              1.980              5.053
 Vibration     4          0.596              1.974              4.492
 Vibration     5          0.597              1.972              4.379
 Vibration     6          0.599              1.964              3.957
 Vibration     7          0.602              1.956              3.664
 Vibration     8          0.603              1.951              3.509
 Vibration     9          0.606              1.943              3.318
 Vibration    10          0.608              1.937              3.175
 Vibration    11          0.619              1.899              2.636
 Vibration    12          0.629              1.868              2.337
 Vibration    13          0.637              1.843              2.152
 Vibration    14          0.645              1.817              1.996
 Vibration    15          0.650              1.803              1.916
 Vibration    16          0.659              1.774              1.781
 Vibration    17          0.671              1.738              1.632
 Vibration    18          0.686              1.693              1.475
 Vibration    19          0.689              1.684              1.448
 Vibration    20          0.708              1.630              1.295
 Vibration    21          0.738              1.545              1.103
 Vibration    22          0.743              1.531              1.074
 Vibration    23          0.786              1.417              0.877
 Vibration    24          0.792              1.402              0.854
 Vibration    25          0.815              1.347              0.777
 Vibration    26          0.840              1.286              0.700
 Vibration    27          0.855              1.251              0.659
 Vibration    28          0.879              1.197              0.601
 Vibration    29          0.882              1.190              0.594
 Vibration    30          0.890              1.172              0.575
 Vibration    31          0.933              1.082              0.492
 Vibration    32          0.947              1.054              0.468
 Vibration    33          0.953              1.042              0.458

 Optimization completed.
    -- Stationary point found.
 Normal termination of Gaussian 16 at Mon Dec 14 18:29:47 2020.

 ----------------------------------------------------------------------
 # B3LYP/6-311++G(d,p) empiricaldispersion=gd3bj scf=xqc pop=npa geom=c
 heck
 ----------------------------------------------------------------------

 ----------------------------------------
 CID_112990634_JID_10139_Energie_neutraal
 ----------------------------------------
 Structure from the checkpoint file:  "JID_10139.chk"
 Charge =  0 Multiplicity = 1

 SCF Done:  E(RB3LYP) =  -920.387386608     A.U. after   15 cycles
 Normal termination of Gaussian 16 at Mon Dec 14 18:42:47 2020.

 ----------------------------------------------------------------------
 # B3LYP/6-311++G(d,p) empiricaldispersion=gd3bj scf=xqc pop=npa geom=c
 heck
 ----------------------------------------------------------------------

 --------------------------------------
 CID_112990634_JID_10139_Energie_kation
 --------------------------------------
 Structure from the checkpoint file:  "JID_10139.chk"
 Charge =  1 Multiplicity = 2

 SCF Done:  E(UB3LYP) =  -920.090639086     A.U. after   28 cycles
 Normal termination of Gaussian 16 at Mon Dec 14 19:17:48 2020.
 Gaussian 16:  ES64L-G16RevA.03 25-Dec-2016

 ----------------------------------------------------------------------
 # B3LYP/6-311++G(d,p) empiricaldispersion=gd3bj scf=xqc pop=npa geom=c
 heck
 ----------------------------------------------------------------------

 -------------------------------------
 CID_112990634_JID_10139_Energie_anion
 -------------------------------------
 Structure from the checkpoint file:  "JID_10139.chk"
 Charge = -1 Multiplicity = 2

                         Standard orientation:
 ---------------------------------------------------------------------
 Center     Atomic      Atomic             Coordinates (Angstroms)
 Number     Number       Type             X           Y           Z
 ---------------------------------------------------------------------
      1          6           0        1.791328    2.589605    0.998786
      2          6           0        1.237552    3.215127   -0.283686
      3          6           0        0.744798    2.193421   -1.319568
      4          6           0       -0.393397    1.285338   -0.847992
      5          7           0       -1.555719    2.075077   -0.449368
      6          6           0       -2.615178    1.704550    0.323231
      7          8           0       -3.520198    2.479180    0.610382
      8          6           0       -2.648700    0.245302    0.797598
      9          7           0       -2.809914   -0.651439   -0.337048
     10          6           0       -2.387317   -1.946942   -0.471645
     11          8           0       -2.640019   -2.591956   -1.482462
     12          6           0       -1.531996   -2.530219    0.652992
     13          6           0       -0.104622   -2.025134    0.569048
     14          6           0        0.543857   -1.476521    1.683666
     15          6           0        1.831159   -0.961391    1.586533
     16          6           0        2.501616   -0.980961    0.357484
     17          6           0        1.877107   -1.543035   -0.762061
     18          6           0        0.586021   -2.059866   -0.645100
     19          8           0        3.745245   -0.416952    0.350728
     20          6           0        4.454670   -0.388574   -0.877806
     21          1           0        1.021124    2.026442    1.536219
     22          1           0        2.166273    3.363942    1.677023
     23          1           0        2.614860    1.899904    0.784188
     24          1           0        0.422171    3.904328   -0.027467
     25          1           0        2.014623    3.830857   -0.754600
     26          1           0        0.426634    2.721392   -2.229839
     27          1           0        1.575089    1.539842   -1.615853
     28          1           0       -0.657863    0.583069   -1.647545
     29          1           0       -0.057950    0.682785   -0.001687
     30          1           0       -1.620995    3.028044   -0.786080
     31          1           0       -1.720118   -0.002227    1.317295
     32          1           0       -3.481161    0.173807    1.505882
     33          1           0       -3.414759   -0.346188   -1.090781
     34          1           0       -1.955242   -2.300381    1.636572
     35          1           0       -1.572762   -3.614878    0.518417
     36          1           0        0.030928   -1.446427    2.642166
     37          1           0        2.331575   -0.526249    2.445019
     38          1           0        2.377683   -1.578217   -1.722338
     39          1           0        0.095964   -2.478088   -1.519840
     40          1           0        4.645189   -1.401294   -1.255193
     41          1           0        3.912001    0.184485   -1.641205
     42          1           0        5.404555    0.103203   -0.663500
 ---------------------------------------------------------------------

 SCF Done:  E(UB3LYP) =  -920.380785824     A.U. after   33 cycles
 SCF Done:  E(UB3LYP) =  -920.380785824     a.u. after    1 cycles

 The electronic state is 2-A.
 Alpha  occ. eigenvalues --  -19.06734 -19.01193 -19.01092 -14.26578 -14.25644
 Alpha  occ. eigenvalues --  -10.19909 -10.19660 -10.14987 -10.14190 -10.12889
 Alpha  occ. eigenvalues --  -10.11903 -10.10629 -10.10077 -10.09347 -10.08947
 Alpha  occ. eigenvalues --  -10.08760 -10.08629 -10.08254 -10.07797 -10.06459
 Alpha  occ. eigenvalues --   -0.98279  -0.96489  -0.96020  -0.85558  -0.83967
 Alpha  occ. eigenvalues --   -0.77820  -0.70873  -0.70567  -0.66926  -0.66114
 Alpha  occ. eigenvalues --   -0.64324  -0.63646  -0.59656  -0.56557  -0.53472
 Alpha  occ. eigenvalues --   -0.51780  -0.51436  -0.49601  -0.49040  -0.45126
 Alpha  occ. eigenvalues --   -0.44218  -0.42273  -0.40431  -0.40112  -0.39305
 Alpha  occ. eigenvalues --   -0.38356  -0.38296  -0.37512  -0.37089  -0.36220
 Alpha  occ. eigenvalues --   -0.35578  -0.34315  -0.34175  -0.33961  -0.33314
 Alpha  occ. eigenvalues --   -0.32189  -0.31552  -0.31028  -0.30701  -0.29779
 Alpha  occ. eigenvalues --   -0.29399  -0.28768  -0.28103  -0.27251  -0.24946
 Alpha  occ. eigenvalues --   -0.24699  -0.24423  -0.24144  -0.23290  -0.19186
 Alpha  occ. eigenvalues --   -0.18445  -0.17940  -0.17508  -0.17218  -0.13879
 Alpha  occ. eigenvalues --    0.03726
 Alpha virt. eigenvalues --    0.05568   0.06043   0.06337   0.06857   0.07018
 Alpha virt. eigenvalues --    0.07842   0.08179   0.08467   0.08758   0.09112
 Alpha virt. eigenvalues --    0.09189   0.09297   0.10397   0.10716   0.11047

  Beta  occ. eigenvalues --  -19.06726 -19.01192 -19.01086 -14.26574 -14.25633
  Beta  occ. eigenvalues --  -10.19909 -10.19653 -10.14996 -10.14174 -10.12829
  Beta  occ. eigenvalues --  -10.11899 -10.10619 -10.10088 -10.09308 -10.08913
  Beta  occ. eigenvalues --  -10.08719 -10.08592 -10.08225 -10.07779 -10.06449
  Beta  occ. eigenvalues --   -0.98258  -0.96482  -0.96011  -0.85548  -0.83952
  Beta  occ. eigenvalues --   -0.77770  -0.70839  -0.70538  -0.66836  -0.66085
  Beta  occ. eigenvalues --   -0.64277  -0.63616  -0.59583  -0.56520  -0.53376
  Beta  occ. eigenvalues --   -0.51746  -0.51411  -0.49562  -0.48984  -0.45075
  Beta  occ. eigenvalues --   -0.44201  -0.42247  -0.40389  -0.40085  -0.39275
  Beta  occ. eigenvalues --   -0.38320  -0.38257  -0.37488  -0.37050  -0.36187
  Beta  occ. eigenvalues --   -0.35551  -0.34283  -0.34139  -0.33934  -0.33290
  Beta  occ. eigenvalues --   -0.32164  -0.31515  -0.31001  -0.30671  -0.29754
  Beta  occ. eigenvalues --   -0.29369  -0.28697  -0.28065  -0.27214  -0.24909
  Beta  occ. eigenvalues --   -0.24665  -0.24382  -0.24109  -0.23227  -0.19175
  Beta  occ. eigenvalues --   -0.18439  -0.17819  -0.17486  -0.17100  -0.13789
  Beta virt. eigenvalues --    0.05791   0.06366   0.06475   0.06817   0.07112
  Beta virt. eigenvalues --    0.07274   0.08219   0.08410   0.08723   0.09011
  Beta virt. eigenvalues --    0.09207   0.09338   0.09567   0.10697   0.10972

 Mulliken charges and spin densities:
               1          2
     1  C   -0.475681   0.045371
     2  C   -0.001799  -0.521201
     3  C   -0.159289  -0.204230
     4  C   -0.341898   0.150578
     5  N   -0.118507  -0.010375
     6  C   -0.132268   0.017582
     7  O   -0.325197   0.006336
     8  C   -0.161959   0.011189
     9  N   -0.131166  -0.045645
    10  C   -0.138464  -0.013385
    11  O   -0.287852   0.007755
    12  C    0.701354  -1.148625
    13  C    1.109333  -0.404629
    14  C   -0.860634   0.526243
    15  C   -0.588430   0.514827
    16  C   -0.531388  -0.185908
    17  C    0.022856  -0.038254
    18  C    0.003938  -0.225513
    19  O   -0.099106   0.028378
    20  C    1.145022  -1.484873
    21  H   -0.142046   0.267481
    22  H   -0.120483   0.283049
    23  H    0.319210  -0.160783
    24  H    0.165094  -0.078423
    25  H   -0.353310   0.530921
    26  H   -0.299208   0.494636
    27  H    0.180333  -0.065362
    28  H    0.087502   0.146731
    29  H    1.595235  -1.229407
    30  H    0.210790   0.111972
    31  H    0.168357   0.008456
    32  H   -0.020448   0.258475
    33  H    0.296723   0.035551
    34  H    0.063648   0.095025
    35  H    0.182026   0.035510
    36  H   -0.391266   0.559136
    37  H   -0.040525   0.233439
    38  H   -0.378069   0.581081
    39  H    0.042027   0.168119
    40  H   -0.175273   0.326426
    41  H   -0.370390   0.552920
    42  H   -0.648792   0.819428
 Sum of Mulliken charges =  -1.00000   1.00000

 Dipole moment (field-independent basis, Debye):
    X=             -4.7680    Y=             -2.1195    Z=              2.9590  Tot=              5.9985
 Quadrupole moment (field-independent basis, Debye-Ang):
   XX=           -213.3495   YY=           -177.6752   ZZ=           -166.6505
   XY=             -1.4748   XZ=             11.1474   YZ=             -5.0405

 Summary of Natural Population Analysis:

                                       Natural Population
                Natural  -----------------------------------------------
    Atom  No    Charge         Core      Valence    Rydberg      Total
 -----------------------------------------------------------------------
      C    1   -0.28996      0.99966     2.28486    0.00544     3.28996
      C    2   -0.19080      0.99964     2.18347    0.00769     3.19080
      C    3   -0.19269      0.99962     2.18371    0.00935     3.19269
      C    4   -0.09640      0.99960     2.08678    0.01003     3.09640
      N    5   -0.31202      0.99966     2.80396    0.00840     3.81202
      C    6    0.33636      0.99968     1.64224    0.02172     2.66364
      O    7   -0.32228      0.99988     3.31656    0.00584     4.32228
      C    8   -0.13130      0.99958     2.12161    0.01012     3.13130
      N    9   -0.31804      0.99966     2.80981    0.00857     3.81804
      C   10    0.34894      0.99967     1.62864    0.02275     2.65106
      O   11   -0.32202      0.99988     3.31645    0.00569     4.32202
      C   12   -0.23860      0.99956     2.23048    0.00856     3.23860
      C   13   -0.04076      0.99949     2.03131    0.00996     3.04076
      C   14   -0.10297      0.99953     2.09165    0.01179     3.10297
      C   15   -0.09798      0.99952     2.09179    0.00667     3.09798
      C   16    0.15420      0.99939     1.83148    0.01493     2.84580
      C   17   -0.13489      0.99951     2.12603    0.00934     3.13489
      C   18   -0.08770      0.99952     2.07866    0.00953     3.08770
      O   19   -0.27318      0.99986     3.26266    0.01066     4.27318
      C   20   -0.10074      0.99960     2.09175    0.00940     3.10074
      H   21    0.09525      0.00000     0.40351    0.00124     0.40475
      H   22    0.09758      0.00000     0.40158    0.00084     0.40242
      H   23    0.10323      0.00000     0.39485    0.00192     0.39677
      H   24    0.09016      0.00000     0.40853    0.00131     0.40984
      H   25    0.09953      0.00000     0.39932    0.00115     0.40047
      H   26    0.09678      0.00000     0.40185    0.00137     0.40322
      H   27    0.10609      0.00000     0.39176    0.00215     0.39391
      H   28    0.09715      0.00000     0.40086    0.00199     0.40285
      H   29    0.10269      0.00000     0.39358    0.00373     0.39731
      H   30    0.19437      0.00000     0.30324    0.00239     0.30563
      H   31    0.11289      0.00000     0.38530    0.00181     0.38711
      H   32    0.10319      0.00000     0.39569    0.00112     0.39681
      H   33    0.19533      0.00000     0.30260    0.00207     0.30467
      H   34    0.10723      0.00000     0.39160    0.00117     0.39277
      H   35    0.11657      0.00000     0.38232    0.00110     0.38343
      H   36    0.10092      0.00000     0.39788    0.00120     0.39908
      H   37    0.10648      0.00000     0.39208    0.00144     0.39352
      H   38    0.10984      0.00000     0.38880    0.00136     0.39016
      H   39    0.10819      0.00000     0.39032    0.00149     0.39181
      H   40    0.08442      0.00000     0.41390    0.00168     0.41558
      H   41    0.08822      0.00000     0.40896    0.00282     0.41178
      H   42    0.09676      0.00000     0.40168    0.00156     0.40324
 =======================================================================
   * Total *    0.00004     19.99250    54.76410    0.24336    74.99996

 Normal termination of Gaussian 16 at Mon Dec 14 19:58:29 2020.
