 Gaussian 16, Revision A.03,

 -----------------------------------------------------------
 # opt freq B3LYP/6-31G(d) empiricaldispersion=gd3bj scf=xqc
 -----------------------------------------------------------

 -----------------------------
 CID_1529858_JID_1845_neutraal
 -----------------------------
 Symbolic Z-matrix:
 Charge =  0 Multiplicity = 1

 SCF Done:  E(RB3LYP) =  -531.519095847     A.U. after   15 cycles
 SCF Done:  E(RB3LYP) =  -531.521118907     A.U. after   12 cycles
 SCF Done:  E(RB3LYP) =  -531.521422082     A.U. after   11 cycles
 SCF Done:  E(RB3LYP) =  -531.521457425     A.U. after    9 cycles
 SCF Done:  E(RB3LYP) =  -531.521458367     A.U. after    9 cycles
 SCF Done:  E(RB3LYP) =  -531.521460568     A.U. after    8 cycles
 Optimization completed.
    -- Stationary point found.
 Normal termination of Gaussian 16 at Tue Dec  8 21:15:18 2020.

 --------------------------------------------------------------------
 #N Geom=AllCheck Guess=TCheck SCRF=Check GenChk RB3LYP/6-31G(d) Freq
 --------------------------------------------------------------------

 Structure from the checkpoint file:  "JID_1845.chk"
 -----------------------------
 CID_1529858_JID_1845_neutraal
 -----------------------------
 Charge =  0 Multiplicity = 1

 SCF Done:  E(RB3LYP) =  -531.521460568     A.U. after    1 cycles

  Exact polarizability: 173.710 -10.228  86.934   0.030   0.008  40.044
 Approx polarizability: 249.267 -28.634 150.913  -0.021   0.041  59.959

                      1                      2                      3
                      A                      A                      A
 Frequencies --     16.7645                46.4344                84.0471
 Red. masses --      1.1367                 5.2406                 5.2306
 Frc consts  --      0.0002                 0.0067                 0.0218
 IR Inten    --      0.2431                 0.0155                 0.0240

                      4                      5                      6
                      A                      A                      A
 Frequencies --     90.6810               141.7291               214.4529
 Red. masses --      5.3479                 3.0811                 2.7842
 Frc consts  --      0.0259                 0.0365                 0.0754
 IR Inten    --      0.1189                 0.0218                 3.9968

                      7                      8                      9
                      A                      A                      A
 Frequencies --    227.9101               293.7167               348.0963
 Red. masses --      6.4635                 4.6720                 3.4648
 Frc consts  --      0.1978                 0.2375                 0.2474
 IR Inten    --      0.7979                 3.1401                 0.4806

                     10                     11                     12
                      A                      A                      A
 Frequencies --    415.7927               525.8039               578.2103
 Red. masses --      3.8112                 4.8206                 1.2041
 Frc consts  --      0.3882                 0.7852                 0.2372
 IR Inten    --      3.1437                 4.2680                70.9839

                     13                     14                     15
                      A                      A                      A
 Frequencies --    602.8557               626.2345               664.4056
 Red. masses --      4.3178                 3.3912                 3.7755
 Frc consts  --      0.9246                 0.7836                 0.9820
 IR Inten    --     63.5333                20.8998                26.9194

                     16                     17                     18
                      A                      A                      A
 Frequencies --    702.8391               741.4976               796.1008
 Red. masses --      4.3611                 3.4659                 4.6828
 Frc consts  --      1.2693                 1.1227                 1.7486
 IR Inten    --     13.2302                 9.2124                26.0747

                     19                     20                     21
                      A                      A                      A
 Frequencies --    798.6571               873.8771               890.2313
 Red. masses --      1.4875                 1.3979                 2.1436
 Frc consts  --      0.5590                 0.6290                 1.0009
 IR Inten    --     21.1659                22.5958                 8.5719

                     22                     23                     24
                      A                      A                      A
 Frequencies --    921.5762              1002.2213              1023.4031
 Red. masses --      4.4982                 3.8995                 1.1340
 Frc consts  --      2.2509                 2.3077                 0.6998
 IR Inten    --     20.9955                12.5794                24.7114

                     25                     26                     27
                      A                      A                      A
 Frequencies --   1049.1763              1085.4738              1162.1456
 Red. masses --      3.5930                 1.5587                 1.3073
 Frc consts  --      2.3303                 1.0821                 1.0402
 IR Inten    --     27.0977                52.4466                 0.1789

                     28                     29                     30
                      A                      A                      A
 Frequencies --   1182.9386              1203.4824              1247.1998
 Red. masses --      1.7293                 1.9201                 1.5450
 Frc consts  --      1.4258                 1.6385                 1.4160
 IR Inten    --    214.9087               174.4325                41.5414

                     31                     32                     33
                      A                      A                      A
 Frequencies --   1284.1185              1327.0665              1352.4173
 Red. masses --      1.5894                 2.1958                 1.6383
 Frc consts  --      1.5441                 2.2784                 1.7654
 IR Inten    --     20.4161                14.5518                 4.5190

                     34                     35                     36
                      A                      A                      A
 Frequencies --   1389.3165              1433.0644              1440.8072
 Red. masses --      2.8433                 3.9972                 5.9611
 Frc consts  --      3.2336                 4.8365                 7.2910
 IR Inten    --    126.5163                45.1491                 8.3284

                     37                     38                     39
                      A                      A                      A
 Frequencies --   1472.8063              1502.7165              1503.1260
 Red. masses --      1.5460                 1.7381                 1.1279
 Frc consts  --      1.9758                 2.3124                 1.5015
 IR Inten    --     63.5685                17.8850                 8.6816

                     40                     41                     42
                      A                      A                      A
 Frequencies --   1551.4486              1602.6515              1704.1382
 Red. masses --      1.3007                 4.8473                 5.9662
 Frc consts  --      1.8446                 7.3354                10.2084
 IR Inten    --     14.3136                87.4993               175.2944

                     43                     44                     45
                      A                      A                      A
 Frequencies --   1816.1399              3076.5852              3146.6848
 Red. masses --      8.8367                 1.0320                 1.1064
 Frc consts  --     17.1726                 5.7554                 6.4545
 IR Inten    --    514.8317                46.2564                11.7582

                     46                     47                     48
                      A                      A                      A
 Frequencies --   3171.1222              3191.6434              3219.4133
 Red. masses --      1.1052                 1.0900                 1.0896
 Frc consts  --      6.5480                 6.5418                 6.6537
 IR Inten    --      8.2952                 2.5859                 5.3331

                     49                     50                     51
                      A                      A                      A
 Frequencies --   3263.4551              3274.1290              3707.1040
 Red. masses --      1.0959                 1.0978                 1.0642
 Frc consts  --      6.8764                 6.9338                 8.6171
 IR Inten    --      2.3769                 0.1506                73.0632

 - Thermochemistry -
 -------------------
 Temperature   298.150 Kelvin.  Pressure   1.00000 Atm.
 Atom     1 has atomic number  6 and mass  12.00000

 Molecular mass:   152.05858 amu.
 Principal axes and moments of inertia in atomic units:
                           1         2         3
     Eigenvalues --   411.761194275.133724675.47883
           X            0.99998  -0.00569   0.00004
           Y            0.00569   0.99998  -0.00004
           Z           -0.00004   0.00004   1.00000
 This molecule is an asymmetric top.
 Rotational symmetry number  1.
 Rotational temperatures (Kelvin)      0.21035     0.02026     0.01853
 Rotational constants (GHZ):           4.38298     0.42215     0.38600
 Zero-point vibrational energy     388714.0 (Joules/Mol)
                                   92.90488 (Kcal/Mol)
 Warning -- explicit consideration of  13 degrees of freedom as
           vibrations may cause significant error
 Vibrational temperatures:     24.12    66.81   120.93   130.47   203.92
          (Kelvin)            308.55   327.91   422.59   500.83   598.23
                              756.51   831.92   867.37   901.01   955.93
                             1011.23  1066.85  1145.41  1149.09  1257.31
                             1280.84  1325.94  1441.97  1472.45  1509.53
                             1561.75  1672.07  1701.98  1731.54  1794.44
                             1847.56  1909.35  1945.83  1998.92  2061.86
                             2073.00  2119.04  2162.07  2162.66  2232.19
                             2305.86  2451.87  2613.02  4426.52  4527.38
                             4562.54  4592.06  4632.02  4695.38  4710.74
                             5333.70

 Zero-point correction=                           0.148053 (Hartree/Particle)
 Thermal correction to Energy=                    0.158568
 Thermal correction to Enthalpy=                  0.159512
 Thermal correction to Gibbs Free Energy=         0.109419
 Sum of electronic and zero-point Energies=           -531.373407
 Sum of electronic and thermal Energies=              -531.362893
 Sum of electronic and thermal Enthalpies=            -531.361948
 Sum of electronic and thermal Free Energies=         -531.412042

                     E (Thermal)             CV                S
                      KCal/Mol        Cal/Mol-Kelvin    Cal/Mol-Kelvin
 Total                   99.503             36.942            105.431
 Electronic               0.000              0.000              0.000
 Translational            0.889              2.981             40.967
 Rotational               0.889              2.981             30.488
 Vibrational             97.725             30.980             33.976
 Vibration     1          0.593              1.986              6.985
 Vibration     2          0.595              1.979              4.964
 Vibration     3          0.601              1.960              3.794
 Vibration     4          0.602              1.956              3.645
 Vibration     5          0.615              1.912              2.780
 Vibration     6          0.644              1.819              2.005
 Vibration     7          0.651              1.798              1.895
 Vibration     8          0.689              1.685              1.452
 Vibration     9          0.726              1.579              1.175
 Vibration    10          0.779              1.436              0.906
 Vibration    11          0.881              1.193              0.597
 Vibration    12          0.935              1.078              0.489
 Vibration    13          0.961              1.026              0.445

                           ! Non-Optimized Parameters !
 Normal termination of Gaussian 16 at Tue Dec  8 21:18:39 2020.

 ----------------------------------------------------------------------
 # B3LYP/6-311++G(d,p) empiricaldispersion=gd3bj scf=xqc pop=npa geom=c
 heck
 ----------------------------------------------------------------------

 -------------------------------------
 CID_1529858_JID_1845_Energie_neutraal
 -------------------------------------
 Structure from the checkpoint file:  "JID_1845.chk"
 Charge =  0 Multiplicity = 1

 SCF Done:  E(RB3LYP) =  -531.680319139     A.U. after   14 cycles
 Normal termination of Gaussian 16 at Tue Dec  8 21:21:19 2020.

 ----------------------------------------------------------------------
 # B3LYP/6-311++G(d,p) empiricaldispersion=gd3bj scf=xqc pop=npa geom=c
 heck
 ----------------------------------------------------------------------

 -----------------------------------
 CID_1529858_JID_1845_Energie_kation
 -----------------------------------
 Structure from the checkpoint file:  "JID_1845.chk"
 Charge =  1 Multiplicity = 2

 SCF Done:  E(UB3LYP) =  -531.369924085     A.U. after   23 cycles
 Normal termination of Gaussian 16 at Tue Dec  8 21:23:56 2020.
 Gaussian 16:  ES64L-G16RevA.03 25-Dec-2016

 ----------------------------------------------------------------------
 # B3LYP/6-311++G(d,p) empiricaldispersion=gd3bj scf=xqc pop=npa geom=c
 heck
 ----------------------------------------------------------------------

 ----------------------------------
 CID_1529858_JID_1845_Energie_anion
 ----------------------------------
 Structure from the checkpoint file:  "JID_1845.chk"
 Charge = -1 Multiplicity = 2

                         Standard orientation:
 ---------------------------------------------------------------------
 Center     Atomic      Atomic             Coordinates (Angstroms)
 Number     Number       Type             X           Y           Z
 ---------------------------------------------------------------------
      1          6           0        4.229553   -0.596412    0.003289
      2          7           0        2.851257   -0.147937   -0.001608
      3          6           0        1.725742   -0.896234   -0.000825
      4          6           0        0.644516   -0.016642   -0.000776
      5          6           0        1.262241    1.266867   -0.001467
      6          7           0        2.586578    1.184345   -0.001347
      7          6           0       -0.753059   -0.379111   -0.000894
      8          6           0       -1.790698    0.481897    0.000713
      9          6           0       -3.196310    0.066803    0.000477
     10          8           0       -4.142438    0.832283    0.002302
     11          8           0       -3.371482   -1.287531   -0.001181
     12          1           0        4.749943   -0.205594   -0.874946
     13          1           0        4.734779   -0.240997    0.905412
     14          1           0        4.244884   -1.687559   -0.018188
     15          1           0        1.757750   -1.976606   -0.000473
     16          1           0        0.786782    2.238505   -0.002416
     17          1           0       -0.974878   -1.443677   -0.002360
     18          1           0       -1.647706    1.557452    0.002373
     19          1           0       -4.336950   -1.417401   -0.000792
 ---------------------------------------------------------------------

 SCF Done:  E(UB3LYP) =  -531.684627719     A.U. after   30 cycles

 The electronic state is 2-A.
 Alpha  occ. eigenvalues --  -18.99663 -18.91752 -14.25362 -14.19515 -10.11009
 Alpha  occ. eigenvalues --  -10.10194 -10.05449 -10.04721 -10.02238  -9.98829
 Alpha  occ. eigenvalues --   -9.98076  -0.92936  -0.91592  -0.83390  -0.71788
 Alpha  occ. eigenvalues --   -0.65929  -0.61350  -0.57204  -0.49929  -0.44987
 Alpha  occ. eigenvalues --   -0.43468  -0.41421  -0.38032  -0.36292  -0.32785
 Alpha  occ. eigenvalues --   -0.32008  -0.30651  -0.29316  -0.27745  -0.27325
 Alpha  occ. eigenvalues --   -0.27279  -0.25569  -0.22035  -0.20666  -0.16147
 Alpha  occ. eigenvalues --   -0.16005  -0.15438  -0.12846  -0.10282  -0.07229
 Alpha  occ. eigenvalues --    0.05981
 Alpha virt. eigenvalues --    0.07056   0.09964   0.10478   0.10629   0.11724
 Alpha virt. eigenvalues --    0.12600   0.13812   0.14654   0.15246   0.15688
 Alpha virt. eigenvalues --    0.16334   0.18156   0.18275   0.18566   0.18941

  Beta  occ. eigenvalues --  -18.99620 -18.91386 -14.25285 -14.19589 -10.11013
  Beta  occ. eigenvalues --  -10.09959 -10.05156 -10.04612 -10.02287  -9.98328
  Beta  occ. eigenvalues --   -9.97904  -0.92666  -0.91474  -0.82864  -0.71724
  Beta  occ. eigenvalues --   -0.65501  -0.60758  -0.56912  -0.49199  -0.44796
  Beta  occ. eigenvalues --   -0.43208  -0.41108  -0.37622  -0.36102  -0.32669
  Beta  occ. eigenvalues --   -0.31808  -0.30338  -0.29137  -0.27341  -0.27051
  Beta  occ. eigenvalues --   -0.26177  -0.25366  -0.21710  -0.20437  -0.16004
  Beta  occ. eigenvalues --   -0.14810  -0.13826  -0.12136  -0.09915  -0.05437
  Beta virt. eigenvalues --    0.06971   0.09879   0.10440   0.10612   0.11640
  Beta virt. eigenvalues --    0.12512   0.12710   0.14240   0.14589   0.15201
  Beta virt. eigenvalues --    0.16058   0.16271   0.18131   0.18379   0.18518

 Mulliken charges and spin densities:
               1          2
     1  C   -0.314930   0.006350
     2  N    0.303020  -0.001330
     3  C    0.383663   0.281712
     4  C   -0.314987  -0.058005
     5  C   -0.120288   0.105682
     6  N   -0.341177  -0.050051
     7  C   -0.699618   0.332831
     8  C   -0.270957   0.102538
     9  C   -0.103716   0.205349
    10  O   -0.445987   0.116575
    11  O   -0.250637   0.010450
    12  H    0.145360   0.007606
    13  H    0.142886   0.009768
    14  H    0.125205  -0.000236
    15  H    0.115146  -0.016605
    16  H    0.152018  -0.006591
    17  H    0.143308  -0.031129
    18  H    0.108262  -0.014569
    19  H    0.243429  -0.000345
 Sum of Mulliken charges =  -1.00000   1.00000

 Dipole moment (field-independent basis, Debye):
    X=              6.9325    Y=             -3.7240    Z=             -0.0048  Tot=              7.8694
 Quadrupole moment (field-independent basis, Debye-Ang):
   XX=           -109.2080   YY=            -73.0985   ZZ=            -73.1413
   XY=              1.6280   XZ=             -0.0004   YZ=             -0.0165

 Summary of Natural Population Analysis:

                                       Natural Population
                Natural  -----------------------------------------------
    Atom  No    Charge         Core      Valence    Rydberg      Total
 -----------------------------------------------------------------------
      C    1   -0.16863      0.99966     2.16226    0.00672     3.16863
      N    2   -0.10790      0.99966     2.59711    0.01113     3.60790
      C    3    0.05169      0.99953     1.93768    0.01110     2.94831
      C    4   -0.09069      0.99954     2.08217    0.00898     3.09069
      C    5    0.02011      0.99961     1.96688    0.01340     2.97989
      N    6   -0.18825      0.99973     2.67426    0.01426     3.68825
      C    7    0.01329      0.99953     1.97803    0.00915     2.98671
      C    8   -0.13775      0.99949     2.12873    0.00953     3.13775
      C    9    0.40954      0.99968     1.56680    0.02398     2.59046
      O   10   -0.30825      0.99987     3.30156    0.00682     4.30825
      O   11   -0.36406      0.99988     3.35603    0.00815     4.36406
      H   12    0.09473      0.00000     0.40399    0.00128     0.40527
      H   13    0.09419      0.00000     0.40451    0.00130     0.40581
      H   14    0.09439      0.00000     0.40479    0.00083     0.40561
      H   15    0.09177      0.00000     0.40734    0.00089     0.40823
      H   16    0.09351      0.00000     0.40559    0.00090     0.40649
      H   17    0.08816      0.00000     0.41006    0.00177     0.41184
      H   18    0.08916      0.00000     0.40943    0.00141     0.41084
      H   19    0.22499      0.00000     0.26962    0.00539     0.27501
 =======================================================================
   * Total *    0.00000     10.99618    28.86683    0.13699    40.00000

 Normal termination of Gaussian 16 at Tue Dec  8 21:27:43 2020.
