 Gaussian 16, Revision A.03,

 -----------------------------------------------------------
 # opt freq B3LYP/6-31G(d) empiricaldispersion=gd3bj scf=xqc
 -----------------------------------------------------------

 -------------------------------
 CID_108406996_JID_7865_neutraal
 -------------------------------
 Symbolic Z-matrix:
 Charge =  0 Multiplicity = 1

 SCF Done:  E(RB3LYP) =  -1126.18775538     A.U. after   18 cycles
 SCF Done:  E(RB3LYP) =  -1126.19430745     A.U. after   14 cycles
 SCF Done:  E(RB3LYP) =  -1126.19491342     A.U. after   14 cycles
 SCF Done:  E(RB3LYP) =  -1126.19092724     A.U. after   15 cycles
 SCF Done:  E(RB3LYP) =  -1126.19573065     A.U. after   14 cycles
 SCF Done:  E(RB3LYP) =  -1126.19640589     A.U. after   15 cycles
 SCF Done:  E(RB3LYP) =  -1126.19671863     A.U. after   15 cycles
 SCF Done:  E(RB3LYP) =  -1126.19673980     A.U. after   14 cycles
 SCF Done:  E(RB3LYP) =  -1126.19691880     A.U. after   14 cycles
 SCF Done:  E(RB3LYP) =  -1126.19693292     A.U. after   13 cycles
 SCF Done:  E(RB3LYP) =  -1126.19694410     A.U. after   10 cycles
 SCF Done:  E(RB3LYP) =  -1126.19694625     A.U. after   10 cycles
 SCF Done:  E(RB3LYP) =  -1126.19694685     A.U. after    8 cycles
 SCF Done:  E(RB3LYP) =  -1126.19694706     A.U. after    8 cycles
 SCF Done:  E(RB3LYP) =  -1126.19694706     A.U. after    6 cycles
 Optimization completed.
    -- Stationary point found.
 Normal termination of Gaussian 16 at Fri Dec 11 13:26:18 2020.

 --------------------------------------------------------------------
 #N Geom=AllCheck Guess=TCheck SCRF=Check GenChk RB3LYP/6-31G(d) Freq
 --------------------------------------------------------------------

 Structure from the checkpoint file:  "JID_7865.chk"
 -------------------------------
 CID_108406996_JID_7865_neutraal
 -------------------------------
 Charge =  0 Multiplicity = 1

 SCF Done:  E(RB3LYP) =  -1126.19694706     A.U. after    2 cycles

  Exact polarizability: 277.550  25.922 157.149 -10.347  20.594 119.199
 Approx polarizability: 397.461  42.943 250.899 -27.716  60.241 212.292

                      1                      2                      3
                      A                      A                      A
 Frequencies --     19.4837                34.0318                47.9765
 Red. masses --      4.9610                 2.7419                 6.2186
 Frc consts  --      0.0011                 0.0019                 0.0084
 IR Inten    --      1.7633                 0.4755                 0.0485

                      4                      5                      6
                      A                      A                      A
 Frequencies --     61.2110                70.4299                91.7191
 Red. masses --      3.5867                 3.8833                 3.2342
 Frc consts  --      0.0079                 0.0113                 0.0160
 IR Inten    --      0.3529                 0.4528                 0.8705

                      7                      8                      9
                      A                      A                      A
 Frequencies --     96.1458               134.5359               151.9614
 Red. masses --      8.2528                 5.1678                 3.5598
 Frc consts  --      0.0449                 0.0551                 0.0484
 IR Inten    --      0.2838                 1.1367                 0.0486

                     10                     11                     12
                      A                      A                      A
 Frequencies --    175.3680               187.4974               226.5988
 Red. masses --      2.5954                 3.1903                 1.1128
 Frc consts  --      0.0470                 0.0661                 0.0337
 IR Inten    --      1.9039                 1.9755                 0.2776

                     13                     14                     15
                      A                      A                      A
 Frequencies --    229.3250               244.8023               256.3581
 Red. masses --      1.4121                 3.1947                 3.6271
 Frc consts  --      0.0438                 0.1128                 0.1404
 IR Inten    --      0.4404                 0.1624                 0.7931

                     16                     17                     18
                      A                      A                      A
 Frequencies --    266.2986               293.3030               308.2238
 Red. masses --      1.2892                 1.9592                 4.2999
 Frc consts  --      0.0539                 0.0993                 0.2407
 IR Inten    --      0.8335                 0.6829                 0.4920

                     19                     20                     21
                      A                      A                      A
 Frequencies --    361.2989               387.2576               429.8917
 Red. masses --      3.8521                 2.5261                 5.8121
 Frc consts  --      0.2963                 0.2232                 0.6329
 IR Inten    --      0.2465                 0.1113                 3.7812

                     22                     23                     24
                      A                      A                      A
 Frequencies --    457.9539               469.4249               494.4347
 Red. masses --      2.5006                 2.8654                 4.6068
 Frc consts  --      0.3090                 0.3720                 0.6635
 IR Inten    --      1.1265                 1.1600                 2.0733

                     25                     26                     27
                      A                      A                      A
 Frequencies --    507.2348               551.4018               574.2594
 Red. masses --      6.6619                 2.9710                 2.6730
 Frc consts  --      1.0099                 0.5322                 0.5194
 IR Inten    --      0.7979                 2.6515                 5.3819

                     28                     29                     30
                      A                      A                      A
 Frequencies --    599.8817               653.0901               742.2336
 Red. masses --      3.4113                 8.7913                 8.2906
 Frc consts  --      0.7233                 2.2093                 2.6910
 IR Inten    --      1.3790                 3.0392                22.0647

                     31                     32                     33
                      A                      A                      A
 Frequencies --    754.4027               782.0246               798.7681
 Red. masses --      5.9479                 1.6113                 1.8911
 Frc consts  --      1.9944                 0.5806                 0.7109
 IR Inten    --      0.1550                27.0413                35.8166

                     34                     35                     36
                      A                      A                      A
 Frequencies --    805.6720               819.2348               820.9060
 Red. masses --      2.0734                 3.6972                 2.3666
 Frc consts  --      0.7930                 1.4620                 0.9396
 IR Inten    --     12.5512                12.8738                13.1718

                     37                     38                     39
                      A                      A                      A
 Frequencies --    834.5891               861.7002               889.9667
 Red. masses --      2.1687                 1.8257                 1.4260
 Frc consts  --      0.8900                 0.7987                 0.6655
 IR Inten    --     13.5224                14.0203                22.6690

                     40                     41                     42
                      A                      A                      A
 Frequencies --    924.8964               938.5592               952.7201
 Red. masses --      1.4017                 1.2351                 1.5271
 Frc consts  --      0.7065                 0.6410                 0.8167
 IR Inten    --      1.2706                 2.2262                 2.9246

                     43                     44                     45
                      A                      A                      A
 Frequencies --    966.7134               985.7277              1015.4473
 Red. masses --      1.9096                 1.7513                 1.9628
 Frc consts  --      1.0514                 1.0026                 1.1925
 IR Inten    --      4.1479                10.8221                12.5991

                     46                     47                     48
                      A                      A                      A
 Frequencies --   1051.6547              1093.5661              1105.9791
 Red. masses --      1.6514                 1.8622                 1.6429
 Frc consts  --      1.0761                 1.3121                 1.1840
 IR Inten    --     48.8409                 7.9286                 1.6831

                     49                     50                     51
                      A                      A                      A
 Frequencies --   1128.1749              1154.5046              1158.7814
 Red. masses --      3.5244                 2.5471                 2.3543
 Frc consts  --      2.6430                 2.0002                 1.8626
 IR Inten    --     53.4173                36.4522                 1.4584

                     52                     53                     54
                      A                      A                      A
 Frequencies --   1172.4937              1192.8677              1209.1657
 Red. masses --      3.5574                 1.6744                 1.9788
 Frc consts  --      2.8814                 1.4038                 1.7046
 IR Inten    --      4.7265                 4.8304                52.3814

                     55                     56                     57
                      A                      A                      A
 Frequencies --   1224.6627              1267.6360              1296.2268
 Red. masses --      2.8797                 1.5216                 1.4249
 Frc consts  --      2.5447                 1.4406                 1.4106
 IR Inten    --      5.4692                 5.8020                42.4066

                     58                     59                     60
                      A                      A                      A
 Frequencies --   1303.1767              1365.5480              1372.0871
 Red. masses --      1.1829                 1.3609                 1.4397
 Frc consts  --      1.1836                 1.4951                 1.5969
 IR Inten    --      5.2145                 6.2924                 9.5501

                     61                     62                     63
                      A                      A                      A
 Frequencies --   1378.9620              1382.3702              1400.3951
 Red. masses --      1.3914                 3.7124                 3.7414
 Frc consts  --      1.5588                 4.1797                 4.3230
 IR Inten    --     97.6813               423.1669               336.4777

                     64                     65                     66
                      A                      A                      A
 Frequencies --   1402.3824              1425.1271              1429.1130
 Red. masses --      1.5271                 1.2646                 1.2562
 Frc consts  --      1.7695                 1.5132                 1.5117
 IR Inten    --     81.8139                 5.6310                 5.8152

                     67                     68                     69
                      A                      A                      A
 Frequencies --   1443.7041              1445.1765              1490.0440
 Red. masses --      1.3884                 1.3222                 6.7581
 Frc consts  --      1.7050                 1.6270                 8.8404
 IR Inten    --      4.0195                 7.4992               122.3934

                     70                     71                     72
                      A                      A                      A
 Frequencies --   1500.7681              1505.1075              1514.7054
 Red. masses --      1.1450                 1.1039                 1.0536
 Frc consts  --      1.5194                 1.4734                 1.4242
 IR Inten    --     30.4233                 5.3484                 0.9666

                     73                     74                     75
                      A                      A                      A
 Frequencies --   1518.5430              1527.2758              1527.8266
 Red. masses --      1.0521                 1.0477                 1.0689
 Frc consts  --      1.4294                 1.4399                 1.4701
 IR Inten    --      2.3640                 5.5264                 4.4668

                     76                     77                     78
                      A                      A                      A
 Frequencies --   1537.8712              1539.1352              1543.3980
 Red. masses --      1.0952                 1.0532                 1.0564
 Frc consts  --      1.5261                 1.4700                 1.4826
 IR Inten    --      5.1565                15.8515                 1.4520

                     79                     80                     81
                      A                      A                      A
 Frequencies --   1580.5641              1614.7390              1692.0712
 Red. masses --      5.7165                12.3272                 6.9292
 Frc consts  --      8.4140                18.9373                11.6888
 IR Inten    --     24.6744               171.3724                66.3773

                     82                     83                     84
                      A                      A                      A
 Frequencies --   3004.1396              3024.7783              3032.3450
 Red. masses --      1.0565                 1.0832                 1.0969
 Frc consts  --      5.6176                 5.8391                 5.9427
 IR Inten    --     11.3376                15.3597                14.6027

                     85                     86                     87
                      A                      A                      A
 Frequencies --   3040.8348              3046.5210              3054.8569
 Red. masses --      1.0426                 1.0403                 1.0365
 Frc consts  --      5.6803                 5.6888                 5.6990
 IR Inten    --     23.6753                33.4445                38.4648

                     88                     89                     90
                      A                      A                      A
 Frequencies --   3058.0028              3096.7481              3105.0689
 Red. masses --      1.0583                 1.1029                 1.0992
 Frc consts  --      5.8308                 6.2313                 6.2441
 IR Inten    --     22.7176                12.2869                 5.2905

                     91                     92                     93
                      A                      A                      A
 Frequencies --   3113.1937              3120.7462              3122.0191
 Red. masses --      1.0978                 1.1016                 1.1029
 Frc consts  --      6.2688                 6.3213                 6.3337
 IR Inten    --     59.4829                40.4248                43.2250

                     94                     95                     96
                      A                      A                      A
 Frequencies --   3138.1310              3139.9722              3156.5531
 Red. masses --      1.1030                 1.1024                 1.0874
 Frc consts  --      6.3996                 6.4038                 6.3834
 IR Inten    --     31.1831                24.9465                14.1478

                     97                     98                     99
                      A                      A                      A
 Frequencies --   3248.1690              3266.1383              3466.3901
 Red. masses --      1.0905                 1.0968                 1.0734
 Frc consts  --      6.7790                 6.8937                 7.5992
 IR Inten    --      5.2178                 0.8068                 0.2947

 - Thermochemistry -
 -------------------
 Temperature   298.150 Kelvin.  Pressure   1.00000 Atm.
 Atom     1 has atomic number  6 and mass  12.00000

 Molecular mass:   254.10890 amu.
 Principal axes and moments of inertia in atomic units:
                           1         2         3
     Eigenvalues --  2367.83971********************
           X            0.99997  -0.00766   0.00310
           Y            0.00770   0.99990  -0.01199
           Z           -0.00301   0.01201   0.99992
 This molecule is an asymmetric top.
 Rotational symmetry number  1.
 Warning -- assumption of classical behavior for rotation
           may cause significant error
 Rotational temperatures (Kelvin)      0.03658     0.00823     0.00713
 Rotational constants (GHZ):           0.76219     0.17146     0.14854
 Zero-point vibrational energy     765642.2 (Joules/Mol)
                                  182.99287 (Kcal/Mol)
 Warning -- explicit consideration of  28 degrees of freedom as
           vibrations may cause significant error
 Vibrational temperatures:     28.03    48.96    69.03    88.07   101.33
          (Kelvin)            131.96   138.33   193.57   218.64   252.32
                              269.77   326.03   329.95   352.22   368.84
                              383.14   422.00   443.47   519.83   557.18
                              618.52   658.89   675.40   711.38   729.80
                              793.34   826.23   863.10   939.65  1067.91
                             1085.42  1125.16  1149.25  1159.18  1178.70
                             1181.10  1200.79  1239.79  1280.46  1330.72
                             1350.38  1370.75  1390.88  1418.24  1461.00
                             1513.10  1573.40  1591.26  1623.19  1661.07
                             1667.23  1686.96  1716.27  1739.72  1762.02
                             1823.85  1864.98  1874.98  1964.72  1974.13
                             1984.02  1988.92  2014.86  2017.72  2050.44
                             2056.17  2077.17  2079.29  2143.84  2159.27
                             2165.51  2179.32  2184.84  2197.41  2198.20
                             2212.65  2214.47  2220.61  2274.08  2323.25
                             2434.51  4322.29  4351.98  4362.87  4375.08
                             4383.26  4395.26  4399.78  4455.53  4467.50
                             4479.19  4490.06  4491.89  4515.07  4517.72
                             4541.58  4673.39  4699.24  4987.36

 Zero-point correction=                           0.291618 (Hartree/Particle)
 Thermal correction to Energy=                    0.309908
 Thermal correction to Enthalpy=                  0.310852
 Thermal correction to Gibbs Free Energy=         0.243128
 Sum of electronic and zero-point Energies=          -1125.905329
 Sum of electronic and thermal Energies=             -1125.887039
 Sum of electronic and thermal Enthalpies=           -1125.886095
 Sum of electronic and thermal Free Energies=        -1125.953820

                     E (Thermal)             CV                S
                      KCal/Mol        Cal/Mol-Kelvin    Cal/Mol-Kelvin
 Total                  194.470             66.951            142.538
 Electronic               0.000              0.000              0.000
 Translational            0.889              2.981             42.498
 Rotational               0.889              2.981             34.070
 Vibrational            192.693             60.989             65.970
 Vibration     1          0.593              1.986              6.686
 Vibration     2          0.594              1.983              5.579
 Vibration     3          0.595              1.978              4.899
 Vibration     4          0.597              1.973              4.418
 Vibration     5          0.598              1.968              4.141
 Vibration     6          0.602              1.955              3.623
 Vibration     7          0.603              1.952              3.531
 Vibration     8          0.613              1.919              2.880
 Vibration     9          0.619              1.900              2.648
 Vibration    10          0.627              1.873              2.377
 Vibration    11          0.632              1.857              2.252
 Vibration    12          0.650              1.800              1.906
 Vibration    13          0.652              1.796              1.884
 Vibration    14          0.660              1.771              1.768
 Vibration    15          0.666              1.752              1.686
 Vibration    16          0.672              1.735              1.620
 Vibration    17          0.688              1.686              1.455
 Vibration    18          0.698              1.658              1.372
 Vibration    19          0.735              1.552              1.117
 Vibration    20          0.756              1.497              1.011
 Vibration    21          0.791              1.405              0.859
 Vibration    22          0.816              1.343              0.772
 Vibration    23          0.827              1.318              0.739
 Vibration    24          0.850              1.262              0.672
 Vibration    25          0.862              1.234              0.640
 Vibration    26          0.907              1.137              0.541
 Vibration    27          0.931              1.087              0.496
 Vibration    28          0.958              1.032              0.450

 Optimization completed.
    -- Stationary point found.
 Normal termination of Gaussian 16 at Fri Dec 11 13:36:50 2020.

 ----------------------------------------------------------------------
 # B3LYP/6-311++G(d,p) empiricaldispersion=gd3bj scf=xqc pop=npa geom=c
 heck
 ----------------------------------------------------------------------

 ---------------------------------------
 CID_108406996_JID_7865_Energie_neutraal
 ---------------------------------------
 Structure from the checkpoint file:  "JID_7865.chk"
 Charge =  0 Multiplicity = 1

 SCF Done:  E(RB3LYP) =  -1126.43072433     A.U. after   19 cycles
 Normal termination of Gaussian 16 at Fri Dec 11 13:44:07 2020.

 ----------------------------------------------------------------------
 # B3LYP/6-311++G(d,p) empiricaldispersion=gd3bj scf=xqc pop=npa geom=c
 heck
 ----------------------------------------------------------------------

 -------------------------------------
 CID_108406996_JID_7865_Energie_kation
 -------------------------------------
 Structure from the checkpoint file:  "JID_7865.chk"
 Charge =  1 Multiplicity = 2

 SCF Done:  E(UB3LYP) =  -1126.13305683     A.U. after   30 cycles
 Normal termination of Gaussian 16 at Fri Dec 11 14:00:14 2020.
 Gaussian 16:  ES64L-G16RevA.03 25-Dec-2016

 ----------------------------------------------------------------------
 # B3LYP/6-311++G(d,p) empiricaldispersion=gd3bj scf=xqc pop=npa geom=c
 heck
 ----------------------------------------------------------------------

 ------------------------------------
 CID_108406996_JID_7865_Energie_anion
 ------------------------------------
 Structure from the checkpoint file:  "JID_7865.chk"
 Charge = -1 Multiplicity = 2

                         Standard orientation:
 ---------------------------------------------------------------------
 Center     Atomic      Atomic             Coordinates (Angstroms)
 Number     Number       Type             X           Y           Z
 ---------------------------------------------------------------------
      1          6           0       -3.320552   -2.689686    0.963309
      2          6           0       -2.452919   -2.412350   -0.275598
      3          6           0       -1.438150   -1.321670   -0.032536
      4          6           0       -0.118668   -1.604323   -0.103444
      5          6           0        1.002246   -0.718577    0.164319
      6          6           0        1.123388    0.352109    1.040820
      7          6           0        2.402511    0.952017    1.029212
      8          6           0        3.248265    0.324394    0.148151
      9         16           0        2.508871   -1.005698   -0.685322
     10          7           0        4.611735    0.662262   -0.105190
     11          8           0        5.221498   -0.029864   -0.929397
     12          8           0        5.087182    1.618725    0.512879
     13          6           0       -1.977781    0.051404    0.304711
     14          7           0       -3.224631    0.326869   -0.405928
     15          6           0       -3.942574    1.528034    0.040942
     16          6           0       -3.159328    2.839646   -0.131928
     17          6           0       -5.285672    1.585778   -0.688049
     18          1           0       -2.701693   -2.961893    1.825630
     19          1           0       -4.013143   -3.515139    0.767216
     20          1           0       -3.912481   -1.806461    1.220049
     21          1           0       -1.934523   -3.328307   -0.580977
     22          1           0       -3.116330   -2.117881   -1.096218
     23          1           0        0.157786   -2.613816   -0.403888
     24          1           0        0.328055    0.661271    1.706146
     25          1           0        2.713203    1.791198    1.637747
     26          1           0       -2.208828    0.091439    1.380253
     27          1           0       -1.197187    0.805708    0.130072
     28          1           0       -3.028557    0.411010   -1.403682
     29          1           0       -4.137363    1.380210    1.112993
     30          1           0       -2.932823    3.013863   -1.191969
     31          1           0       -3.741220    3.694605    0.230572
     32          1           0       -2.212115    2.826047    0.417377
     33          1           0       -5.840355    0.654326   -0.542151
     34          1           0       -5.893599    2.422110   -0.327086
     35          1           0       -5.134526    1.727409   -1.766412
 ---------------------------------------------------------------------

 SCF Done:  E(UB3LYP) =  -1126.47969365     A.U. after   23 cycles

 The electronic state is 2-A.
 Alpha  occ. eigenvalues --  -88.73554 -18.95749 -18.95704 -14.34296 -14.21144
 Alpha  occ. eigenvalues --  -10.12668 -10.09741 -10.09186 -10.08641 -10.08219
 Alpha  occ. eigenvalues --  -10.07078 -10.06933 -10.06724 -10.06070 -10.05900
 Alpha  occ. eigenvalues --  -10.04818 -10.03925  -7.82193  -5.78489  -5.78138
 Alpha  occ. eigenvalues --   -5.77786  -1.03700  -0.86540  -0.82764  -0.75500
 Alpha  occ. eigenvalues --   -0.71793  -0.68306  -0.65516  -0.62114  -0.61779
 Alpha  occ. eigenvalues --   -0.60829  -0.57041  -0.54427  -0.51233  -0.50470
 Alpha  occ. eigenvalues --   -0.45021  -0.41382  -0.40245  -0.39715  -0.38892
 Alpha  occ. eigenvalues --   -0.38105  -0.36718  -0.36035  -0.35027  -0.34448
 Alpha  occ. eigenvalues --   -0.33128  -0.33011  -0.32303  -0.31946  -0.30866
 Alpha  occ. eigenvalues --   -0.29858  -0.28561  -0.28256  -0.27333  -0.27150
 Alpha  occ. eigenvalues --   -0.26457  -0.25540  -0.24747  -0.24111  -0.22975
 Alpha  occ. eigenvalues --   -0.21484  -0.16467  -0.14765  -0.14401  -0.13464
 Alpha  occ. eigenvalues --   -0.12579  -0.11379  -0.09593   0.01157
 Alpha virt. eigenvalues --    0.05271   0.06863   0.07123   0.07871   0.08935
 Alpha virt. eigenvalues --    0.09419   0.09634   0.09975   0.10174   0.11166
 Alpha virt. eigenvalues --    0.11605   0.11682   0.12557   0.12933   0.13300

  Beta  occ. eigenvalues --  -88.73499 -18.95337 -18.95276 -14.33813 -14.21134
  Beta  occ. eigenvalues --  -10.12667 -10.09759 -10.09187 -10.08641 -10.08137
  Beta  occ. eigenvalues --  -10.07093 -10.06913 -10.06426 -10.05981 -10.05818
  Beta  occ. eigenvalues --  -10.04908 -10.03755  -7.82144  -5.78466  -5.78115
  Beta  occ. eigenvalues --   -5.77605  -1.02830  -0.85751  -0.82738  -0.75220
  Beta  occ. eigenvalues --   -0.71610  -0.68244  -0.65201  -0.61899  -0.61541
  Beta  occ. eigenvalues --   -0.60552  -0.56906  -0.54088  -0.51176  -0.50200
  Beta  occ. eigenvalues --   -0.44789  -0.41206  -0.40097  -0.39548  -0.38527
  Beta  occ. eigenvalues --   -0.37887  -0.36636  -0.34914  -0.34407  -0.33564
  Beta  occ. eigenvalues --   -0.33057  -0.32413  -0.32180  -0.31891  -0.30789
  Beta  occ. eigenvalues --   -0.29767  -0.28443  -0.28191  -0.27260  -0.27082
  Beta  occ. eigenvalues --   -0.26432  -0.25287  -0.24413  -0.23749  -0.22814
  Beta  occ. eigenvalues --   -0.21240  -0.15718  -0.14395  -0.13049  -0.12419
  Beta  occ. eigenvalues --   -0.11156  -0.10958  -0.08213
  Beta virt. eigenvalues --    0.05257   0.06566   0.07017   0.07466   0.07847
  Beta virt. eigenvalues --    0.09052   0.09404   0.09668   0.10099   0.11133
  Beta virt. eigenvalues --    0.11550   0.11599   0.11703   0.12540   0.12931

 Mulliken charges and spin densities:
               1          2
     1  C   -0.680711  -0.012318
     2  C   -0.128408  -0.019468
     3  C    1.254785   0.205538
     4  C   -1.512533  -0.102271
     5  C    1.241144   0.185819
     6  C   -0.670976  -0.056701
     7  C    0.961437   0.206760
     8  C   -0.942531  -0.030901
     9  S   -0.568947   0.112422
    10  N   -0.233980   0.164089
    11  O   -0.217013   0.156183
    12  O   -0.145536   0.163362
    13  C   -1.149821  -0.028850
    14  N    0.132237   0.000591
    15  C    0.091241   0.013442
    16  C   -0.485990  -0.013670
    17  C   -0.517169  -0.000414
    18  H    0.125967   0.002504
    19  H    0.114282   0.009763
    20  H    0.146862  -0.001775
    21  H    0.152491   0.002001
    22  H    0.100249   0.008369
    23  H    0.143963   0.016492
    24  H    0.099506   0.002227
    25  H    0.232732  -0.009699
    26  H    0.178503   0.011454
    27  H    0.129376   0.009159
    28  H    0.205930   0.000698
    29  H    0.116622   0.001733
    30  H    0.128099   0.000835
    31  H    0.126552   0.000245
    32  H    0.164405   0.001668
    33  H    0.154633  -0.000015
    34  H    0.123330   0.000586
    35  H    0.129271   0.000141
 Sum of Mulliken charges =  -1.00000   1.00000

 Dipole moment (field-independent basis, Debye):
    X=            -16.1224    Y=             -0.2095    Z=              0.6939  Tot=             16.1387
 Quadrupole moment (field-independent basis, Debye-Ang):
   XX=           -219.9453   YY=           -125.7434   ZZ=           -119.2232
   XY=            -16.7249   XZ=              5.1856   YZ=             -0.6131

 Summary of Natural Population Analysis:

                                       Natural Population
                Natural  -----------------------------------------------
    Atom  No    Charge         Core      Valence    Rydberg      Total
 -----------------------------------------------------------------------
      C    1   -0.28115      0.99967     2.27717    0.00432     3.28115
      C    2   -0.19855      0.99961     2.19116    0.00779     3.19855
      C    3    0.03959      0.99950     1.95112    0.00978     2.96041
      C    4   -0.12927      0.99945     2.11969    0.01013     3.12927
      C    5   -0.05480      0.99950     2.04286    0.01243     3.05480
      C    6   -0.15586      0.99950     2.14742    0.00894     3.15586
      C    7   -0.08765      0.99949     2.07718    0.01099     3.08765
      C    8   -0.02653      0.99943     2.01245    0.01465     3.02653
      S    9    0.23493      4.99939     2.74298    0.02270     7.76507
      N   10    0.27744      0.99966     2.19496    0.02794     3.22256
      O   11   -0.19771      0.99990     3.19014    0.00767     4.19771
      O   12   -0.19458      0.99990     3.18703    0.00764     4.19458
      C   13   -0.10859      0.99958     2.09989    0.00912     3.10859
      N   14   -0.34302      0.99974     2.83105    0.01223     3.84302
      C   15   -0.00903      0.99964     2.00073    0.00866     3.00903
      C   16   -0.29633      0.99965     2.29192    0.00475     3.29633
      C   17   -0.28558      0.99965     2.28092    0.00501     3.28558
      H   18    0.09426      0.00000     0.40472    0.00102     0.40574
      H   19    0.09136      0.00000     0.40759    0.00104     0.40864
      H   20    0.09832      0.00000     0.40059    0.00109     0.40168
      H   21    0.09362      0.00000     0.40519    0.00119     0.40638
      H   22    0.10011      0.00000     0.39859    0.00129     0.39989
      H   23    0.09622      0.00000     0.40229    0.00149     0.40378
      H   24    0.09874      0.00000     0.39977    0.00149     0.40126
      H   25    0.11109      0.00000     0.38760    0.00131     0.38891
      H   26    0.09391      0.00000     0.40481    0.00127     0.40609
      H   27    0.09811      0.00000     0.40014    0.00175     0.40189
      H   28    0.16783      0.00000     0.33020    0.00197     0.33217
      H   29    0.08523      0.00000     0.41287    0.00190     0.41477
      H   30    0.09556      0.00000     0.40351    0.00093     0.40444
      H   31    0.09554      0.00000     0.40362    0.00084     0.40446
      H   32    0.10450      0.00000     0.39464    0.00087     0.39550
      H   33    0.10328      0.00000     0.39573    0.00099     0.39672
      H   34    0.09528      0.00000     0.40396    0.00077     0.40472
      H   35    0.09372      0.00000     0.40538    0.00090     0.40628
 =======================================================================
   * Total *   -0.00000     20.99326    46.79987    0.20687    68.00000

 Normal termination of Gaussian 16 at Fri Dec 11 14:12:32 2020.
