 Gaussian 16, Revision A.03,

 -----------------------------------------------------------
 # opt freq B3LYP/6-31G(d) empiricaldispersion=gd3bj scf=xqc
 -----------------------------------------------------------

 ------------------------------
 CID_80958339_JID_6923_neutraal
 ------------------------------
 Symbolic Z-matrix:
 Charge =  0 Multiplicity = 1

 SCF Done:  E(RB3LYP) =  -724.274699778     A.U. after   14 cycles
 SCF Done:  E(RB3LYP) =  -724.284203665     A.U. after   13 cycles
 SCF Done:  E(RB3LYP) =  -724.285696633     A.U. after   12 cycles
 SCF Done:  E(RB3LYP) =  -724.288180801     A.U. after   12 cycles
 SCF Done:  E(RB3LYP) =  -724.289654519     A.U. after   12 cycles
 SCF Done:  E(RB3LYP) =  -724.290196411     A.U. after   11 cycles
 SCF Done:  E(RB3LYP) =  -724.290393841     A.U. after   11 cycles
 SCF Done:  E(RB3LYP) =  -724.290465583     A.U. after   10 cycles
 SCF Done:  E(RB3LYP) =  -724.290500654     A.U. after   10 cycles
 SCF Done:  E(RB3LYP) =  -724.290529305     A.U. after   10 cycles
 SCF Done:  E(RB3LYP) =  -724.290622186     A.U. after   10 cycles
 SCF Done:  E(RB3LYP) =  -724.290621468     A.U. after    8 cycles
 SCF Done:  E(RB3LYP) =  -724.290623731     A.U. after   10 cycles
 SCF Done:  E(RB3LYP) =  -724.290624562     A.U. after   10 cycles
 SCF Done:  E(RB3LYP) =  -724.290624903     A.U. after    9 cycles
 SCF Done:  E(RB3LYP) =  -724.290625067     A.U. after    8 cycles
 Optimization completed.
    -- Stationary point found.
 Normal termination of Gaussian 16 at Fri Dec 11 01:17:51 2020.

 --------------------------------------------------------------------
 #N Geom=AllCheck Guess=TCheck SCRF=Check GenChk RB3LYP/6-31G(d) Freq
 --------------------------------------------------------------------

 Structure from the checkpoint file:  "JID_6923.chk"
 ------------------------------
 CID_80958339_JID_6923_neutraal
 ------------------------------
 Charge =  0 Multiplicity = 1

 SCF Done:  E(RB3LYP) =  -724.290625067     A.U. after    1 cycles

  Exact polarizability: 185.918   0.331 153.060   0.737  -0.068  94.070
 Approx polarizability: 263.925  -7.042 226.358   3.236  -0.355 136.426

                      1                      2                      3
                      A                      A                      A
 Frequencies --     23.6283                48.4337                54.0205
 Red. masses --      5.8514                 4.7223                 2.7406
 Frc consts  --      0.0019                 0.0065                 0.0047
 IR Inten    --      1.8669                 1.2090                 0.1049

                      4                      5                      6
                      A                      A                      A
 Frequencies --     80.4821               100.2938               128.3665
 Red. masses --      2.7405                 3.5024                 3.0314
 Frc consts  --      0.0105                 0.0208                 0.0294
 IR Inten    --      6.4213                 0.5857                 1.3028

                      7                      8                      9
                      A                      A                      A
 Frequencies --    170.8777               182.7301               219.2910
 Red. masses --      4.3546                 3.0906                 3.8818
 Frc consts  --      0.0749                 0.0608                 0.1100
 IR Inten    --      0.8975                 4.8748                 2.2916

                     10                     11                     12
                      A                      A                      A
 Frequencies --    224.1260               240.1233               261.2917
 Red. masses --      1.0446                 2.0667                 1.4746
 Frc consts  --      0.0309                 0.0702                 0.0593
 IR Inten    --      0.0792                 1.3407                 0.9586

                     13                     14                     15
                      A                      A                      A
 Frequencies --    272.7606               298.7118               316.5149
 Red. masses --      2.5127                 2.8358                 1.1213
 Frc consts  --      0.1101                 0.1491                 0.0662
 IR Inten    --      8.6774                 1.4488               154.9210

                     16                     17                     18
                      A                      A                      A
 Frequencies --    321.3511               368.8206               395.1476
 Red. masses --      3.6708                 1.8342                 2.1006
 Frc consts  --      0.2233                 0.1470                 0.1933
 IR Inten    --      6.9882                 8.3809                12.1536

                     19                     20                     21
                      A                      A                      A
 Frequencies --    416.4051               437.9563               453.9343
 Red. masses --      1.3243                 1.9964                 1.9907
 Frc consts  --      0.1353                 0.2256                 0.2417
 IR Inten    --     98.2962                 1.4839                 8.0664

                     22                     23                     24
                      A                      A                      A
 Frequencies --    482.3165               504.8676               511.8489
 Red. masses --      3.4739                 2.1909                 1.6359
 Frc consts  --      0.4761                 0.3290                 0.2525
 IR Inten    --     13.3605                77.0824               193.7755

                     25                     26                     27
                      A                      A                      A
 Frequencies --    566.0168               631.9688               674.4366
 Red. masses --      4.0146                 3.0789                 3.7827
 Frc consts  --      0.7578                 0.7245                 1.0138
 IR Inten    --     26.7183                10.4951                 4.7882

                     28                     29                     30
                      A                      A                      A
 Frequencies --    701.4061               705.3609               713.5774
 Red. masses --      7.8231                 2.7636                 3.6555
 Frc consts  --      2.2676                 0.8101                 1.0967
 IR Inten    --      3.6369                 6.3529                 1.3623

                     31                     32                     33
                      A                      A                      A
 Frequencies --    785.3898               792.6051               811.7099
 Red. masses --      1.7832                 1.4764                 2.7096
 Frc consts  --      0.6481                 0.5465                 1.0518
 IR Inten    --     18.4429                 1.9477                 3.5004

                     34                     35                     36
                      A                      A                      A
 Frequencies --    822.0643               885.7841               914.0154
 Red. masses --      8.2800                 2.6814                 4.0983
 Frc consts  --      3.2968                 1.2395                 2.0173
 IR Inten    --     35.9501                 1.3272                 4.5694

                     37                     38                     39
                      A                      A                      A
 Frequencies --    945.4508               952.6592               979.4200
 Red. masses --      1.1625                 1.7242                 1.5304
 Frc consts  --      0.6122                 0.9220                 0.8650
 IR Inten    --      1.7781                14.6339                 0.0612

                     40                     41                     42
                      A                      A                      A
 Frequencies --    997.4569               998.1193              1003.2199
 Red. masses --      5.2430                 4.2472                 3.0795
 Frc consts  --      3.0734                 2.4930                 1.8261
 IR Inten    --      0.5120                 3.0657                28.5175

                     43                     44                     45
                      A                      A                      A
 Frequencies --   1015.7674              1040.8836              1100.9749
 Red. masses --      2.5943                 2.5220                 1.3221
 Frc consts  --      1.5771                 1.6099                 0.9442
 IR Inten    --      6.4826                 2.7965                 5.1725

                     46                     47                     48
                      A                      A                      A
 Frequencies --   1109.5876              1118.9690              1131.0866
 Red. masses --      1.5308                 1.9817                 2.3759
 Frc consts  --      1.1105                 1.4619                 1.7909
 IR Inten    --     28.4222               164.0101                 0.2432

                     49                     50                     51
                      A                      A                      A
 Frequencies --   1143.2343              1151.2595              1200.4227
 Red. masses --      2.0107                 1.6821                 1.6293
 Frc consts  --      1.5484                 1.3136                 1.3834
 IR Inten    --     80.0738                10.4822                 5.4119

                     52                     53                     54
                      A                      A                      A
 Frequencies --   1209.8009              1230.1634              1257.4826
 Red. masses --      1.8376                 1.3297                 1.7094
 Frc consts  --      1.5846                 1.1856                 1.5926
 IR Inten    --      1.7898                 0.0669                68.8926

                     55                     56                     57
                      A                      A                      A
 Frequencies --   1266.1573              1286.1899              1298.9254
 Red. masses --      1.3504                 1.6196                 1.3451
 Frc consts  --      1.2755                 1.5786                 1.3371
 IR Inten    --      1.6938                11.3786                 3.3132

                     58                     59                     60
                      A                      A                      A
 Frequencies --   1321.3873              1333.8971              1355.0395
 Red. masses --      4.1396                 1.5984                 1.8189
 Frc consts  --      4.2586                 1.6757                 1.9677
 IR Inten    --    121.8657                 5.6164                18.9690

                     61                     62                     63
                      A                      A                      A
 Frequencies --   1370.5887              1404.9645              1419.3978
 Red. masses --      1.3102                 1.9984                 1.2370
 Frc consts  --      1.4502                 2.3242                 1.4683
 IR Inten    --      1.0402                36.0813                 3.0971

                     64                     65                     66
                      A                      A                      A
 Frequencies --   1425.8093              1439.9536              1447.1114
 Red. masses --      1.4771                 1.2969                 1.7350
 Frc consts  --      1.7692                 1.5844                 2.1407
 IR Inten    --     44.4789                41.0783                24.3274

                     67                     68                     69
                      A                      A                      A
 Frequencies --   1467.5804              1479.0066              1500.6991
 Red. masses --      2.1565                 1.0881                 1.2115
 Frc consts  --      2.7365                 1.4023                 1.6076
 IR Inten    --     16.1274                 8.6972                 6.1776

                     70                     71                     72
                      A                      A                      A
 Frequencies --   1514.7203              1516.0101              1521.9860
 Red. masses --      2.6834                 1.0453                 1.0476
 Frc consts  --      3.6274                 1.4155                 1.4298
 IR Inten    --     42.6952                 0.9358                 0.0733

                     73                     74                     75
                      A                      A                      A
 Frequencies --   1529.0947              1544.8722              1561.5312
 Red. masses --      1.0518                 1.0888                 3.7961
 Frc consts  --      1.4489                 1.5311                 5.4536
 IR Inten    --      7.9019                 6.0223               209.5536

                     76                     77                     78
                      A                      A                      A
 Frequencies --   1632.4390              1652.0285              1674.2198
 Red. masses --      3.7373                 3.0404                 1.6591
 Frc consts  --      5.8680                 4.8889                 2.7399
 IR Inten    --    102.4596               520.8448               549.8871

                     79                     80                     81
                      A                      A                      A
 Frequencies --   3049.0608              3052.7015              3061.1758
 Red. masses --      1.0348                 1.0359                 1.0668
 Frc consts  --      5.6680                 5.6875                 5.8902
 IR Inten    --     33.1955                23.7065                39.9137

                     82                     83                     84
                      A                      A                      A
 Frequencies --   3061.9045              3079.3129              3089.4878
 Red. masses --      1.0718                 1.0850                 1.0842
 Frc consts  --      5.9204                 6.0614                 6.0974
 IR Inten    --     24.6073                 7.4991                61.4928

                     85                     86                     87
                      A                      A                      A
 Frequencies --   3113.7866              3116.5577              3129.8457
 Red. masses --      1.1030                 1.1025                 1.1019
 Frc consts  --      6.3008                 6.3093                 6.3598
 IR Inten    --     17.7741                46.6498                 6.4138

                     88                     89                     90
                      A                      A                      A
 Frequencies --   3136.5637              3148.7914              3153.7948
 Red. masses --      1.1004                 1.0960                 1.0980
 Frc consts  --      6.3781                 6.4022                 6.4347
 IR Inten    --     59.1428                13.9438                 3.5249

                     91                     92                     93
                      A                      A                      A
 Frequencies --   3163.0230              3189.0202              3575.7254
 Red. masses --      1.0914                 1.0914                 1.0464
 Frc consts  --      6.4335                 6.5396                 7.8830
 IR Inten    --     40.8811                17.2598                39.9160

                     94                     95                     96
                      A                      A                      A
 Frequencies --   3641.6560              3690.6742              3723.9574
 Red. masses --      1.0772                 1.1010                 1.0658
 Frc consts  --      8.4164                 8.8360                 8.7086
 IR Inten    --     25.9339                21.8020                 4.5974

 - Thermochemistry -
 -------------------
 Temperature   298.150 Kelvin.  Pressure   1.00000 Atm.
 Atom     1 has atomic number  6 and mass  12.00000

 Molecular mass:   222.14806 amu.
 Principal axes and moments of inertia in atomic units:
                           1         2         3
     Eigenvalues --  2354.662194696.277936361.54041
           X            0.99997  -0.00818  -0.00141
           Y            0.00818   0.99997  -0.00019
           Z            0.00141   0.00018   1.00000
 This molecule is an asymmetric top.
 Rotational symmetry number  1.
 Warning -- assumption of classical behavior for rotation
           may cause significant error
 Rotational temperatures (Kelvin)      0.03678     0.01844     0.01362
 Rotational constants (GHZ):           0.76645     0.38429     0.28370
 Zero-point vibrational energy     767076.9 (Joules/Mol)
                                  183.33578 (Kcal/Mol)
 Warning -- explicit consideration of  25 degrees of freedom as
           vibrations may cause significant error
 Vibrational temperatures:     34.00    69.69    77.72   115.80   144.30
          (Kelvin)            184.69   245.85   262.91   315.51   322.47
                              345.48   375.94   392.44   429.78   455.39
                              462.35   530.65   568.53   599.11   630.12
                              653.11   693.95   726.39   736.44   814.37
                              909.26   970.36  1009.17  1014.86  1026.68
                             1130.00  1140.38  1167.87  1182.77  1274.45
                             1315.06  1360.29  1370.66  1409.17  1435.12
                             1436.07  1443.41  1461.46  1497.60  1584.06
                             1596.45  1609.95  1627.38  1644.86  1656.41
                             1727.14  1740.63  1769.93  1809.24  1821.72
                             1850.54  1868.86  1901.18  1919.18  1949.60
                             1971.97  2021.43  2042.20  2051.42  2071.77
                             2082.07  2111.52  2127.96  2159.17  2179.34
                             2181.20  2189.80  2200.03  2222.73  2246.70
                             2348.72  2376.90  2408.83  4386.92  4392.16
                             4404.35  4405.40  4430.44  4445.08  4480.04
                             4484.03  4503.15  4512.82  4530.41  4537.61
                             4550.88  4588.29  5144.67  5239.53  5310.06
                             5357.94

 Zero-point correction=                           0.292164 (Hartree/Particle)
 Thermal correction to Energy=                    0.308646
 Thermal correction to Enthalpy=                  0.309590
 Thermal correction to Gibbs Free Energy=         0.247812
 Sum of electronic and zero-point Energies=           -723.998461
 Sum of electronic and thermal Energies=              -723.981979
 Sum of electronic and thermal Enthalpies=            -723.981035
 Sum of electronic and thermal Free Energies=         -724.042813

                     E (Thermal)             CV                S
                      KCal/Mol        Cal/Mol-Kelvin    Cal/Mol-Kelvin
 Total                  193.678             62.869            130.022
 Electronic               0.000              0.000              0.000
 Translational            0.889              2.981             42.097
 Rotational               0.889              2.981             32.620
 Vibrational            191.901             56.907             55.305
 Vibration     1          0.593              1.985              6.303
 Vibration     2          0.595              1.978              4.880
 Vibration     3          0.596              1.976              4.664
 Vibration     4          0.600              1.962              3.879
 Vibration     5          0.604              1.949              3.449
 Vibration     6          0.611              1.925              2.970
 Vibration     7          0.626              1.878              2.426
 Vibration     8          0.630              1.863              2.300
 Vibration     9          0.647              1.812              1.965
 Vibration    10          0.649              1.804              1.926
 Vibration    11          0.657              1.779              1.802
 Vibration    12          0.669              1.744              1.653
 Vibration    13          0.676              1.724              1.579
 Vibration    14          0.692              1.676              1.424
 Vibration    15          0.703              1.642              1.328
 Vibration    16          0.707              1.633              1.303
 Vibration    17          0.741              1.536              1.085
 Vibration    18          0.762              1.481              0.981
 Vibration    19          0.780              1.435              0.904
 Vibration    20          0.798              1.387              0.833
 Vibration    21          0.812              1.352              0.784
 Vibration    22          0.839              1.289              0.704
 Vibration    23          0.860              1.239              0.646
 Vibration    24          0.867              1.224              0.629
 Vibration    25          0.922              1.105              0.512

                           ! Non-Optimized Parameters !
 Normal termination of Gaussian 16 at Fri Dec 11 01:29:49 2020.

 ----------------------------------------------------------------------
 # B3LYP/6-311++G(d,p) empiricaldispersion=gd3bj scf=xqc pop=npa geom=c
 heck
 ----------------------------------------------------------------------

 --------------------------------------
 CID_80958339_JID_6923_Energie_neutraal
 --------------------------------------
 Structure from the checkpoint file:  "JID_6923.chk"
 Charge =  0 Multiplicity = 1

 SCF Done:  E(RB3LYP) =  -724.507290702     A.U. after   14 cycles
 Normal termination of Gaussian 16 at Fri Dec 11 01:34:30 2020.

 ----------------------------------------------------------------------
 # B3LYP/6-311++G(d,p) empiricaldispersion=gd3bj scf=xqc pop=npa geom=c
 heck
 ----------------------------------------------------------------------

 ------------------------------------
 CID_80958339_JID_6923_Energie_kation
 ------------------------------------
 Structure from the checkpoint file:  "JID_6923.chk"
 Charge =  1 Multiplicity = 2

 SCF Done:  E(UB3LYP) =  -724.221624278     A.U. after   24 cycles
 Normal termination of Gaussian 16 at Fri Dec 11 01:45:28 2020.
 Gaussian 16:  ES64L-G16RevA.03 25-Dec-2016

 ----------------------------------------------------------------------
 # B3LYP/6-311++G(d,p) empiricaldispersion=gd3bj scf=xqc pop=npa geom=c
 heck
 ----------------------------------------------------------------------

 -----------------------------------
 CID_80958339_JID_6923_Energie_anion
 -----------------------------------
 Structure from the checkpoint file:  "JID_6923.chk"
 Charge = -1 Multiplicity = 2

                         Standard orientation:
 ---------------------------------------------------------------------
 Center     Atomic      Atomic             Coordinates (Angstroms)
 Number     Number       Type             X           Y           Z
 ---------------------------------------------------------------------
      1          6           0       -0.257799    2.724975    1.278807
      2          6           0       -1.048237    2.332503    0.021168
      3          6           0       -0.294751    2.729787   -1.258490
      4          6           0       -1.355877    0.848334    0.016375
      5          7           0       -2.643052    0.499413   -0.012849
      6          6           0       -2.901862   -0.828173   -0.026231
      7          6           0       -1.888164   -1.784552   -0.002935
      8          6           0       -0.570095   -1.299239    0.031356
      9          7           0       -0.302734    0.021174    0.039801
     10          7           0        0.488594   -2.161024    0.067528
     11          6           0        1.892457   -1.798680    0.025664
     12          6           0        2.434592   -0.802570    1.096183
     13          6           0        2.859967    0.179438   -0.031991
     14          6           0        2.394767   -0.845944   -1.104555
     15          8           0        4.208559    0.604121   -0.064656
     16          7           0       -4.232003   -1.169935   -0.106020
     17          1           0        0.702290    2.200713    1.310129
     18          1           0       -0.812277    2.471030    2.189215
     19          1           0       -0.062514    3.803340    1.287814
     20          1           0       -2.016212    2.843976    0.034334
     21          1           0        0.664106    2.205374   -1.319732
     22          1           0       -0.876640    2.479305   -2.152424
     23          1           0       -0.098841    3.808035   -1.269183
     24          1           0       -2.104798   -2.848667   -0.019438
     25          1           0        0.265424   -3.140965   -0.010514
     26          1           0        2.429313   -2.750973    0.036269
     27          1           0        3.284299   -1.197289    1.665935
     28          1           0        1.685613   -0.420105    1.790736
     29          1           0        2.265539    1.091782   -0.039250
     30          1           0        1.621279   -0.489468   -1.786498
     31          1           0        3.223180   -1.263347   -1.689223
     32          1           0        4.767168   -0.189259   -0.056543
     33          1           0       -4.866396   -0.416526    0.124258
     34          1           0       -4.504630   -2.082603    0.230025
 ---------------------------------------------------------------------

 SCF Done:  E(UB3LYP) =  -724.501038560     A.U. after   30 cycles

 The electronic state is 2-A.
 Alpha  occ. eigenvalues --  -19.02850 -14.23131 -14.22749 -14.19789 -14.19429
 Alpha  occ. eigenvalues --  -10.15224 -10.15173 -10.13991 -10.11844 -10.11062
 Alpha  occ. eigenvalues --  -10.08730 -10.07423 -10.07361 -10.06565 -10.06405
 Alpha  occ. eigenvalues --  -10.06385  -0.93012  -0.89476  -0.85254  -0.81767
 Alpha  occ. eigenvalues --   -0.75491  -0.72724  -0.70984  -0.65804  -0.59950
 Alpha  occ. eigenvalues --   -0.57365  -0.56872  -0.56596  -0.52688  -0.49533
 Alpha  occ. eigenvalues --   -0.47805  -0.45464  -0.42249  -0.40536  -0.40136
 Alpha  occ. eigenvalues --   -0.38857  -0.36390  -0.36202  -0.35329  -0.35123
 Alpha  occ. eigenvalues --   -0.34679  -0.32566  -0.32444  -0.31074  -0.30889
 Alpha  occ. eigenvalues --   -0.30157  -0.29157  -0.27331  -0.26849  -0.26225
 Alpha  occ. eigenvalues --   -0.25589  -0.24804  -0.23739  -0.20350  -0.19960
 Alpha  occ. eigenvalues --   -0.19570  -0.17110  -0.15754  -0.14358  -0.11909
 Alpha  occ. eigenvalues --    0.03853
 Alpha virt. eigenvalues --    0.05663   0.06773   0.07440   0.07736   0.08844
 Alpha virt. eigenvalues --    0.08865   0.09335   0.09704   0.10039   0.10283
 Alpha virt. eigenvalues --    0.10961   0.11832   0.12061   0.12965   0.13246

  Beta  occ. eigenvalues --  -19.02830 -14.23100 -14.22705 -14.19784 -14.19422
  Beta  occ. eigenvalues --  -10.15227 -10.15170 -10.13989 -10.11845 -10.11035
  Beta  occ. eigenvalues --  -10.08729 -10.07422 -10.07360 -10.06536 -10.06392
  Beta  occ. eigenvalues --  -10.06374  -0.92973  -0.89458  -0.85212  -0.81720
  Beta  occ. eigenvalues --   -0.75458  -0.72693  -0.70969  -0.65770  -0.59948
  Beta  occ. eigenvalues --   -0.57323  -0.56840  -0.56565  -0.52640  -0.49492
  Beta  occ. eigenvalues --   -0.47760  -0.45427  -0.42185  -0.40488  -0.40090
  Beta  occ. eigenvalues --   -0.38802  -0.36332  -0.36172  -0.35295  -0.35110
  Beta  occ. eigenvalues --   -0.34659  -0.32541  -0.32420  -0.31014  -0.30877
  Beta  occ. eigenvalues --   -0.30149  -0.29137  -0.27314  -0.26837  -0.26219
  Beta  occ. eigenvalues --   -0.25559  -0.24802  -0.23715  -0.20331  -0.19926
  Beta  occ. eigenvalues --   -0.19556  -0.17094  -0.15745  -0.14329  -0.11875
  Beta virt. eigenvalues --    0.06453   0.06972   0.07073   0.07685   0.08602
  Beta virt. eigenvalues --    0.08909   0.09295   0.09425   0.09778   0.10216
  Beta virt. eigenvalues --    0.10723   0.11669   0.11873   0.12157   0.12960

 Mulliken charges and spin densities:
               1          2
     1  C   -0.540120  -0.033338
     2  C    0.879489  -0.453716
     3  C   -0.549220  -0.030841
     4  C   -0.624282  -0.201569
     5  N   -0.023529  -0.039319
     6  C    0.672709  -0.700347
     7  C   -0.059308  -0.109892
     8  C    0.530002  -0.612340
     9  N    0.019963   0.031554
    10  N   -0.067076   0.048556
    11  C   -0.389578   0.018915
    12  C    0.665561  -0.645691
    13  C   -0.408985  -0.259879
    14  C    0.715242  -0.696419
    15  O   -0.200398  -0.005898
    16  N   -0.374739   0.057285
    17  H    0.139419   0.009955
    18  H    0.105255   0.031346
    19  H    0.134923  -0.007388
    20  H    0.175481   0.015462
    21  H    0.138958   0.012168
    22  H    0.127045   0.013010
    23  H    0.135057  -0.007372
    24  H   -1.046745   1.228020
    25  H   -0.022159   0.352039
    26  H   -1.335251   1.545996
    27  H   -0.122231   0.287159
    28  H    0.115082   0.017439
    29  H    0.333117  -0.040416
    30  H    0.114262   0.008124
    31  H   -0.146381   0.307644
    32  H    0.103931   0.145940
    33  H    0.111486   0.142019
    34  H   -0.306980   0.571794
 Sum of Mulliken charges =  -1.00000   1.00000

 Dipole moment (field-independent basis, Debye):
    X=             -0.6402    Y=              9.2311    Z=             -0.0734  Tot=              9.2536
 Quadrupole moment (field-independent basis, Debye-Ang):
   XX=           -176.3775   YY=           -161.5354   ZZ=           -119.7916
   XY=             -5.2931   XZ=              0.1187   YZ=              1.0997

 Summary of Natural Population Analysis:

                                       Natural Population
                Natural  -----------------------------------------------
    Atom  No    Charge         Core      Valence    Rydberg      Total
 -----------------------------------------------------------------------
      C    1   -0.28098      0.99965     2.27652    0.00481     3.28098
      C    2   -0.12878      0.99957     2.11963    0.00958     3.12878
      C    3   -0.28027      0.99965     2.27620    0.00441     3.28027
      C    4    0.23959      0.99959     1.74091    0.01992     2.76041
      N    5   -0.29625      0.99964     2.78716    0.00945     3.79625
      C    6    0.21119      0.99954     1.77390    0.01537     2.78881
      C    7   -0.18748      0.99947     2.17838    0.00964     3.18748
      C    8    0.22393      0.99954     1.76118    0.01536     2.77607
      N    9   -0.30743      0.99964     2.79743    0.01036     3.80743
      N   10   -0.30070      0.99965     2.78906    0.01199     3.80070
      C   11   -0.01010      0.99960     1.99429    0.01621     3.01010
      C   12   -0.20339      0.99961     2.19518    0.00860     3.20339
      C   13    0.05856      0.99956     1.92795    0.01393     2.94144
      C   14   -0.20454      0.99961     2.19641    0.00851     3.20454
      O   15   -0.36872      0.99989     3.36279    0.00604     4.36872
      N   16   -0.39013      0.99970     2.88092    0.00950     3.89013
      H   17    0.10398      0.00000     0.39503    0.00100     0.39602
      H   18    0.09982      0.00000     0.39950    0.00068     0.40018
      H   19    0.09351      0.00000     0.40572    0.00077     0.40649
      H   20    0.10113      0.00000     0.39726    0.00162     0.39887
      H   21    0.10324      0.00000     0.39570    0.00106     0.39676
      H   22    0.10003      0.00000     0.39932    0.00065     0.39997
      H   23    0.09368      0.00000     0.40557    0.00075     0.40632
      H   24    0.11020      0.00000     0.38723    0.00257     0.38980
      H   25    0.19955      0.00000     0.29392    0.00653     0.30045
      H   26    0.10433      0.00000     0.38869    0.00698     0.39567
      H   27    0.09909      0.00000     0.39966    0.00125     0.40091
      H   28    0.10821      0.00000     0.39069    0.00110     0.39179
      H   29    0.09167      0.00000     0.40678    0.00155     0.40833
      H   30    0.10738      0.00000     0.39156    0.00106     0.39262
      H   31    0.09956      0.00000     0.39917    0.00127     0.40044
      H   32    0.22559      0.00000     0.27152    0.00289     0.27441
      H   33    0.19092      0.00000     0.30690    0.00218     0.30908
      H   34    0.19361      0.00000     0.30132    0.00507     0.30639
 =======================================================================
   * Total *    0.00000     15.99392    43.79345    0.21264    60.00000

 Normal termination of Gaussian 16 at Fri Dec 11 01:59:00 2020.
