 Gaussian 16, Revision A.03,

 -----------------------------------------------------------
 # opt freq B3LYP/6-31G(d) empiricaldispersion=gd3bj scf=xqc
 -----------------------------------------------------------

 -------------------------------
 CID_150681804_JID_1167_neutraal
 -------------------------------
 Symbolic Z-matrix:
 Charge =  0 Multiplicity = 1

 SCF Done:  E(RB3LYP) =  -496.797275169     A.U. after   14 cycles
 SCF Done:  E(RB3LYP) =  -496.800439858     A.U. after   12 cycles
 SCF Done:  E(RB3LYP) =  -496.800901169     A.U. after   11 cycles
 SCF Done:  E(RB3LYP) =  -496.800967841     A.U. after   10 cycles
 SCF Done:  E(RB3LYP) =  -496.800981534     A.U. after    9 cycles
 SCF Done:  E(RB3LYP) =  -496.800984596     A.U. after    8 cycles
 SCF Done:  E(RB3LYP) =  -496.800985318     A.U. after    8 cycles
 SCF Done:  E(RB3LYP) =  -496.800985480     A.U. after    7 cycles
 Optimization completed.
    -- Stationary point found.
 Normal termination of Gaussian 16 at Tue Dec  8 19:13:21 2020.

 --------------------------------------------------------------------
 #N Geom=AllCheck Guess=TCheck SCRF=Check GenChk RB3LYP/6-31G(d) Freq
 --------------------------------------------------------------------

 Structure from the checkpoint file:  "JID_1167.chk"
 -------------------------------
 CID_150681804_JID_1167_neutraal
 -------------------------------
 Charge =  0 Multiplicity = 1

 SCF Done:  E(RB3LYP) =  -496.800985480     A.U. after    1 cycles

  Exact polarizability: 105.391   6.882  81.224   0.365  -1.049  78.561
 Approx polarizability: 144.798  15.112 122.333   0.831   0.208 118.791

                      1                      2                      3
                      A                      A                      A
 Frequencies --     61.4959                90.1136               126.7513
 Red. masses --      4.6873                 3.4142                 4.1527
 Frc consts  --      0.0104                 0.0163                 0.0393
 IR Inten    --      4.0747                 5.4133                 5.5615

                      4                      5                      6
                      A                      A                      A
 Frequencies --    158.8248               255.3233               359.3661
 Red. masses --      2.4267                 7.7164                 2.7175
 Frc consts  --      0.0361                 0.2964                 0.2068
 IR Inten    --      2.9255                 3.1237                 1.9776

                      7                      8                      9
                      A                      A                      A
 Frequencies --    370.9378               390.3854               442.9394
 Red. masses --      3.0698                 3.8689                 2.1687
 Frc consts  --      0.2489                 0.3474                 0.2507
 IR Inten    --      2.7584                 1.7328                 2.5149

                     10                     11                     12
                      A                      A                      A
 Frequencies --    469.3829               517.5542               560.5856
 Red. masses --      2.4182                 2.7729                 4.9390
 Frc consts  --      0.3139                 0.4376                 0.9145
 IR Inten    --      1.1494                 1.6636                 6.1485

                     13                     14                     15
                      A                      A                      A
 Frequencies --    627.1200               734.2292               776.3452
 Red. masses --      2.9837                 4.3754                 3.1823
 Frc consts  --      0.6914                 1.3897                 1.1300
 IR Inten    --      0.8616                 7.9660                 1.5285

                     16                     17                     18
                      A                      A                      A
 Frequencies --    796.5974               810.2865               871.6209
 Red. masses --      2.3232                 4.0592                 2.4273
 Frc consts  --      0.8686                 1.5702                 1.0865
 IR Inten    --      2.9577                32.9102                 3.2631

                     19                     20                     21
                      A                      A                      A
 Frequencies --    912.8605               928.8985               949.4185
 Red. masses --      3.5366                 2.9158                 2.1252
 Frc consts  --      1.7364                 1.4823                 1.1287
 IR Inten    --     39.6034                16.7276                 1.9569

                     22                     23                     24
                      A                      A                      A
 Frequencies --    956.5022               976.2744               989.9257
 Red. masses --      3.2854                 2.7860                 2.5743
 Frc consts  --      1.7710                 1.5645                 1.4863
 IR Inten    --     39.9315                 1.7629                 0.6064

                     25                     26                     27
                      A                      A                      A
 Frequencies --   1014.6987              1056.3666              1065.8888
 Red. masses --      2.2580                 2.7799                 2.7293
 Frc consts  --      1.3698                 1.8277                 1.8270
 IR Inten    --      9.8933                16.4374                58.4999

                     28                     29                     30
                      A                      A                      A
 Frequencies --   1097.3780              1101.8321              1160.0726
 Red. masses --      2.4433                 1.8351                 1.8504
 Frc consts  --      1.7336                 1.3126                 1.4672
 IR Inten    --     43.5306                 0.8454                 5.2963

                     31                     32                     33
                      A                      A                      A
 Frequencies --   1168.6724              1203.0731              1236.8580
 Red. masses --      1.7474                 1.1296                 1.2973
 Frc consts  --      1.4062                 0.9633                 1.1693
 IR Inten    --     16.6873                 3.7792                 1.9493

                     34                     35                     36
                      A                      A                      A
 Frequencies --   1246.6711              1288.0176              1301.1017
 Red. masses --      1.3595                 1.3504                 1.2616
 Frc consts  --      1.2449                 1.3199                 1.2584
 IR Inten    --      7.3334                 5.6568                 3.4473

                     37                     38                     39
                      A                      A                      A
 Frequencies --   1316.8972              1330.9289              1334.2066
 Red. masses --      1.4583                 1.3027                 1.5187
 Frc consts  --      1.4901                 1.3595                 1.5928
 IR Inten    --      1.1475                 2.9782                 3.9969

                     40                     41                     42
                      A                      A                      A
 Frequencies --   1365.0773              1373.9383              1387.3670
 Red. masses --      1.2771                 1.3748                 1.4203
 Frc consts  --      1.4022                 1.5290                 1.6107
 IR Inten    --     12.7198                 7.0098                 4.8178

                     43                     44                     45
                      A                      A                      A
 Frequencies --   1401.7536              1411.5775              1417.3768
 Red. masses --      1.3115                 1.3393                 1.3270
 Frc consts  --      1.5183                 1.5723                 1.5707
 IR Inten    --      1.6528                11.8326                 2.8583

                     46                     47                     48
                      A                      A                      A
 Frequencies --   1489.4206              1519.0526              1534.5513
 Red. masses --      1.0816                 1.0860                 1.0824
 Frc consts  --      1.4136                 1.4765                 1.5018
 IR Inten    --      8.4501                 3.1473                 4.2821

                     49                     50                     51
                      A                      A                      A
 Frequencies --   1544.3639              1568.2684              2367.6667
 Red. masses --      1.0803                 1.1046                12.5919
 Frc consts  --      1.5181                 1.6006                41.5893
 IR Inten    --      7.3960                 0.1837                12.7538

                     52                     53                     54
                      A                      A                      A
 Frequencies --   3051.9726              3054.0107              3059.5055
 Red. masses --      1.0796                 1.0625                 1.0651
 Frc consts  --      5.9247                 5.8387                 5.8743
 IR Inten    --      7.0475                55.5393                66.7826

                     55                     56                     57
                      A                      A                      A
 Frequencies --   3070.5262              3071.9760              3085.6654
 Red. masses --      1.0682                 1.0635                 1.0694
 Frc consts  --      5.9336                 5.9133                 5.9992
 IR Inten    --     23.5648                 1.4819                23.5638

                     58                     59                     60
                      A                      A                      A
 Frequencies --   3091.4227              3100.2930              3107.9971
 Red. masses --      1.1019                 1.0852                 1.1046
 Frc consts  --      6.2044                 6.1457                 6.2868
 IR Inten    --     16.2788                50.1462                21.3300

                     61                     62                     63
                      A                      A                      A
 Frequencies --   3119.7355              3122.8714              3155.7739
 Red. masses --      1.0981                 1.1043                 1.1024
 Frc consts  --      6.2970                 6.3452                 6.4682
 IR Inten    --      8.1709                46.5863                18.1395

 - Thermochemistry -
 -------------------
 Temperature   298.150 Kelvin.  Pressure   1.00000 Atm.
 Atom     1 has atomic number  6 and mass  12.00000

 Molecular mass:   152.09496 amu.
 Principal axes and moments of inertia in atomic units:
                           1         2         3
     Eigenvalues --   773.602862303.356642532.47739
           X            0.99999  -0.00277   0.00216
           Y            0.00279   0.99995  -0.00953
           Z           -0.00213   0.00953   0.99995
 This molecule is an asymmetric top.
 Rotational symmetry number  1.
 Warning -- assumption of classical behavior for rotation
           may cause significant error
 Rotational temperatures (Kelvin)      0.11196     0.03760     0.03420
 Rotational constants (GHZ):           2.33290     0.78353     0.71264
 Zero-point vibrational energy     523537.1 (Joules/Mol)
                                  125.12837 (Kcal/Mol)
 Warning -- explicit consideration of  12 degrees of freedom as
           vibrations may cause significant error
 Vibrational temperatures:     88.48   129.65   182.37   228.51   367.35
          (Kelvin)            517.05   533.70   561.68   637.29   675.34
                              744.65   806.56   902.29  1056.39  1116.99
                             1146.13  1165.82  1254.07  1313.40  1336.48
                             1366.00  1376.19  1404.64  1424.28  1459.93
                             1519.88  1533.58  1578.88  1585.29  1669.09
                             1681.46  1730.95  1779.56  1793.68  1853.17
                             1872.00  1894.72  1914.91  1919.63  1964.04
                             1976.79  1996.11  2016.81  2030.95  2039.29
                             2142.94  2185.58  2207.88  2222.00  2256.39
                             3406.54  4391.11  4394.04  4401.95  4417.80
                             4419.89  4439.58  4447.87  4460.63  4471.71
                             4488.60  4493.12  4540.45

 Zero-point correction=                           0.199405 (Hartree/Particle)
 Thermal correction to Energy=                    0.208674
 Thermal correction to Enthalpy=                  0.209619
 Thermal correction to Gibbs Free Energy=         0.164443
 Sum of electronic and zero-point Energies=           -496.601581
 Sum of electronic and thermal Energies=              -496.592311
 Sum of electronic and thermal Enthalpies=            -496.591367
 Sum of electronic and thermal Free Energies=         -496.636542

                     E (Thermal)             CV                S
                      KCal/Mol        Cal/Mol-Kelvin    Cal/Mol-Kelvin
 Total                  130.945             36.197             95.079
 Electronic               0.000              0.000              0.000
 Translational            0.889              2.981             40.968
 Rotational               0.889              2.981             29.891
 Vibrational            129.168             30.236             24.220
 Vibration     1          0.597              1.973              4.409
 Vibration     2          0.602              1.956              3.658
 Vibration     3          0.611              1.926              2.995
 Vibration     4          0.621              1.893              2.564
 Vibration     5          0.666              1.754              1.694
 Vibration     6          0.734              1.556              1.125
 Vibration     7          0.743              1.532              1.076
 Vibration     8          0.758              1.491              0.999
 Vibration     9          0.803              1.376              0.817
 Vibration    10          0.826              1.318              0.739
 Vibration    11          0.873              1.211              0.616
 Vibration    12          0.916              1.117              0.523

 Optimization completed.
    -- Stationary point found.
 Normal termination of Gaussian 16 at Tue Dec  8 19:18:40 2020.

 ----------------------------------------------------------------------
 # B3LYP/6-311++G(d,p) empiricaldispersion=gd3bj scf=xqc pop=npa geom=c
 heck
 ----------------------------------------------------------------------

 ---------------------------------------
 CID_150681804_JID_1167_Energie_neutraal
 ---------------------------------------
 Structure from the checkpoint file:  "JID_1167.chk"
 Charge =  0 Multiplicity = 1

 SCF Done:  E(RB3LYP) =  -496.938044228     A.U. after   14 cycles
 Normal termination of Gaussian 16 at Tue Dec  8 19:20:48 2020.

 ----------------------------------------------------------------------
 # B3LYP/6-311++G(d,p) empiricaldispersion=gd3bj scf=xqc pop=npa geom=c
 heck
 ----------------------------------------------------------------------

 -------------------------------------
 CID_150681804_JID_1167_Energie_kation
 -------------------------------------
 Structure from the checkpoint file:  "JID_1167.chk"
 Charge =  1 Multiplicity = 2

 SCF Done:  E(UB3LYP) =  -496.608741184     A.U. after   23 cycles
 Normal termination of Gaussian 16 at Tue Dec  8 19:25:52 2020.
 Gaussian 16:  ES64L-G16RevA.03 25-Dec-2016

 ----------------------------------------------------------------------
 # B3LYP/6-311++G(d,p) empiricaldispersion=gd3bj scf=xqc pop=npa geom=c
 heck
 ----------------------------------------------------------------------

 ------------------------------------
 CID_150681804_JID_1167_Energie_anion
 ------------------------------------
 Structure from the checkpoint file:  "JID_1167.chk"
 Charge = -1 Multiplicity = 2

                         Standard orientation:
 ---------------------------------------------------------------------
 Center     Atomic      Atomic             Coordinates (Angstroms)
 Number     Number       Type             X           Y           Z
 ---------------------------------------------------------------------
      1          6           0        0.388725    1.365484    0.322681
      2          6           0       -0.834249    1.558130   -0.604982
      3          7           0       -1.998149    0.685676   -0.283342
      4          6           0       -1.863134    0.132656    1.079555
      5          6           0       -0.715895   -0.867122    0.852071
      6          6           0        0.628907   -0.100985    0.753626
      7          6           0        1.592594   -0.859451   -0.185066
      8          6           0        2.921996   -0.248860   -0.217623
      9          7           0        3.964139    0.262722   -0.231782
     10          8           0       -1.060457   -1.451489   -0.412919
     11          6           0       -1.993278   -0.538547   -1.049228
     12          1           0        0.238125    1.965460    1.226024
     13          1           0        1.281416    1.779470   -0.158477
     14          1           0       -1.158115    2.603431   -0.548457
     15          1           0       -0.558614    1.373408   -1.648275
     16          1           0       -2.789259   -0.381337    1.355604
     17          1           0       -1.659349    0.909373    1.818024
     18          1           0       -0.658693   -1.677851    1.584201
     19          1           0        1.081048   -0.088544    1.752705
     20          1           0        1.688037   -1.904033    0.133951
     21          1           0        1.181332   -0.886564   -1.198545
     22          1           0       -1.688927   -0.370417   -2.085507
     23          1           0       -2.989270   -0.997090   -1.028233
 ---------------------------------------------------------------------

 SCF Done:  E(UB3LYP) =  -496.927773472     A.U. after   31 cycles

 The electronic state is 2-A.
 Alpha  occ. eigenvalues --  -19.02091 -14.21457 -14.21352 -10.13723 -10.12114
 Alpha  occ. eigenvalues --  -10.11430 -10.11091 -10.09672 -10.09436 -10.08936
 Alpha  occ. eigenvalues --  -10.07113  -0.95069  -0.81585  -0.81140  -0.72854
 Alpha  occ. eigenvalues --   -0.65556  -0.64959  -0.57680  -0.54514  -0.49070
 Alpha  occ. eigenvalues --   -0.46102  -0.42011  -0.41316  -0.40033  -0.38187
 Alpha  occ. eigenvalues --   -0.36018  -0.33608  -0.32458  -0.31530  -0.30807
 Alpha  occ. eigenvalues --   -0.28821  -0.27925  -0.27294  -0.26333  -0.24609
 Alpha  occ. eigenvalues --   -0.23821  -0.23390  -0.22359  -0.21972  -0.16196
 Alpha  occ. eigenvalues --   -0.13687   0.04383
 Alpha virt. eigenvalues --    0.07211   0.07730   0.07926   0.09824   0.10065
 Alpha virt. eigenvalues --    0.10276   0.10875   0.11506   0.12211   0.12410
 Alpha virt. eigenvalues --    0.13535   0.13554   0.14002   0.14694   0.15460

  Beta  occ. eigenvalues --  -19.02090 -14.21461 -14.21344 -10.13697 -10.12091
  Beta  occ. eigenvalues --  -10.11430 -10.11067 -10.09644 -10.09394 -10.08920
  Beta  occ. eigenvalues --  -10.07089  -0.95056  -0.81571  -0.81124  -0.72811
  Beta  occ. eigenvalues --   -0.65505  -0.64908  -0.57620  -0.54449  -0.49001
  Beta  occ. eigenvalues --   -0.46050  -0.41949  -0.41276  -0.39974  -0.38139
  Beta  occ. eigenvalues --   -0.35977  -0.33561  -0.32408  -0.31496  -0.30777
  Beta  occ. eigenvalues --   -0.28777  -0.27878  -0.27272  -0.26302  -0.24584
  Beta  occ. eigenvalues --   -0.23788  -0.23352  -0.22322  -0.21939  -0.16172
  Beta  occ. eigenvalues --   -0.13668
  Beta virt. eigenvalues --    0.06927   0.08385   0.08569   0.08687   0.10591
  Beta virt. eigenvalues --    0.10739   0.10900   0.11249   0.11886   0.12331
  Beta virt. eigenvalues --    0.12587   0.13897   0.14200   0.14281   0.15033

 Mulliken charges and spin densities:
               1          2
     1  C   -0.419885  -0.207172
     2  C    0.721904  -1.138555
     3  N   -0.220694   0.250581
     4  C    1.483845  -1.963805
     5  C   -2.606083   2.807614
     6  C    2.446529  -2.088882
     7  C   -0.521311   0.477914
     8  C    1.030580  -1.452374
     9  N   -0.350925   0.050866
    10  O   -0.134541  -0.039588
    11  C    0.955813  -1.353404
    12  H   -0.185289   0.373675
    13  H    0.078115   0.065981
    14  H   -0.170803   0.368175
    15  H   -0.146552   0.291113
    16  H   -0.507347   0.700771
    17  H   -0.532233   0.707949
    18  H   -1.096181   1.375254
    19  H   -0.341714   0.567366
    20  H   -0.095958   0.304757
    21  H   -0.009291   0.207151
    22  H   -0.275562   0.423789
    23  H   -0.102418   0.270823
 Sum of Mulliken charges =  -1.00000   1.00000

 Dipole moment (field-independent basis, Debye):
    X=              0.1990    Y=             -0.1015    Z=             -3.6108  Tot=              3.6177
 Quadrupole moment (field-independent basis, Debye-Ang):
   XX=           -128.1551   YY=           -103.6032   ZZ=           -106.9710
   XY=             -1.8965   XZ=              3.8124   YZ=              2.8397

 Summary of Natural Population Analysis:

                                       Natural Population
                Natural  -----------------------------------------------
    Atom  No    Charge         Core      Valence    Rydberg      Total
 -----------------------------------------------------------------------
      C    1   -0.20789      0.99961     2.19892    0.00937     3.20789
      C    2   -0.08666      0.99960     2.07498    0.01208     3.08666
      N    3   -0.27659      0.99975     2.76259    0.01424     3.77659
      C    4   -0.10329      0.99960     2.09116    0.01253     3.10329
      C    5    0.05730      0.99954     1.92577    0.01738     2.94270
      C    6   -0.11141      0.99957     2.09984    0.01199     3.11141
      C    7   -0.24939      0.99952     2.24105    0.00882     3.24939
      C    8    0.16776      0.99966     1.81607    0.01651     2.83224
      N    9   -0.19429      0.99979     2.68309    0.01141     3.69429
      O   10   -0.31897      0.99990     3.31051    0.00857     4.31897
      C   11    0.07964      0.99959     1.90725    0.01353     2.92036
      H   12    0.10455      0.00000     0.39367    0.00178     0.39545
      H   13    0.10820      0.00000     0.39058    0.00122     0.39180
      H   14    0.09803      0.00000     0.40035    0.00162     0.40197
      H   15    0.09227      0.00000     0.40611    0.00162     0.40773
      H   16    0.10429      0.00000     0.39369    0.00202     0.39571
      H   17    0.10794      0.00000     0.38927    0.00279     0.39206
      H   18    0.10038      0.00000     0.39544    0.00418     0.39962
      H   19    0.10790      0.00000     0.38918    0.00293     0.39210
      H   20    0.12464      0.00000     0.37382    0.00154     0.37536
      H   21    0.12619      0.00000     0.37198    0.00182     0.37381
      H   22    0.08572      0.00000     0.41260    0.00168     0.41428
      H   23    0.08368      0.00000     0.41469    0.00163     0.41632
 =======================================================================
   * Total *   -0.00000     10.99613    29.84260    0.16127    41.00000

 Normal termination of Gaussian 16 at Tue Dec  8 19:32:37 2020.
