 Gaussian 16, Revision A.03,

 -----------------------------------------------------------
 # opt freq B3LYP/6-31G(d) empiricaldispersion=gd3bj scf=xqc
 -----------------------------------------------------------

 ------------------------------
 CID_146588430_JID_304_neutraal
 ------------------------------
 Symbolic Z-matrix:
 Charge =  0 Multiplicity = 1

 SCF Done:  E(RB3LYP) =  -763.218480928     A.U. after   14 cycles
 SCF Done:  E(RB3LYP) =  -763.222911490     A.U. after   13 cycles
 SCF Done:  E(RB3LYP) =  -763.224522475     A.U. after   14 cycles
 SCF Done:  E(RB3LYP) =  -763.224961322     A.U. after   12 cycles
 SCF Done:  E(RB3LYP) =  -763.225048217     A.U. after   11 cycles
 SCF Done:  E(RB3LYP) =  -763.225066789     A.U. after   10 cycles
 SCF Done:  E(RB3LYP) =  -763.225071631     A.U. after   10 cycles
 SCF Done:  E(RB3LYP) =  -763.225073270     A.U. after    9 cycles
 SCF Done:  E(RB3LYP) =  -763.225073944     A.U. after    9 cycles
 Optimization completed.
    -- Stationary point found.
 Normal termination of Gaussian 16 at Tue Dec  8 10:21:27 2020.

 --------------------------------------------------------------------
 #N Geom=AllCheck Guess=TCheck SCRF=Check GenChk RB3LYP/6-31G(d) Freq
 --------------------------------------------------------------------

 Structure from the checkpoint file:  "JID_304.chk"
 ------------------------------
 CID_146588430_JID_304_neutraal
 ------------------------------
 Charge =  0 Multiplicity = 1

 SCF Done:  E(RB3LYP) =  -763.225073944     A.U. after    1 cycles

  Exact polarizability: 137.378  -7.294 116.703   6.710   6.097  59.373
 Approx polarizability: 199.813 -15.676 206.041  15.401  18.140  94.129

                      1                      2                      3
                      A                      A                      A
 Frequencies --     51.7933                92.3928               124.5785
 Red. masses --      3.9721                 3.2778                 3.8193
 Frc consts  --      0.0063                 0.0165                 0.0349
 IR Inten    --      1.4578                 1.5710                 2.2117

                      4                      5                      6
                      A                      A                      A
 Frequencies --    153.2743               192.4825               220.9261
 Red. masses --      1.0533                 4.8540                 3.7047
 Frc consts  --      0.0146                 0.1060                 0.1065
 IR Inten    --      0.3681                 1.3897                 3.3770

                      7                      8                      9
                      A                      A                      A
 Frequencies --    334.0579               393.8527               418.9910
 Red. masses --      3.9480                 4.0404                 3.6122
 Frc consts  --      0.2596                 0.3693                 0.3736
 IR Inten    --      0.4660                 1.3905                 3.7723

                     10                     11                     12
                      A                      A                      A
 Frequencies --    437.2195               518.3594               597.9149
 Red. masses --      4.6947                 5.8957                 3.4201
 Frc consts  --      0.5288                 0.9334                 0.7204
 IR Inten    --      1.3061                 2.0709                 3.8405

                     13                     14                     15
                      A                      A                      A
 Frequencies --    640.4581               695.7748               711.4922
 Red. masses --      6.9392                 4.8590                 1.5983
 Frc consts  --      1.6770                 1.3859                 0.4767
 IR Inten    --      2.6853                 4.2255                 3.3789

                     16                     17                     18
                      A                      A                      A
 Frequencies --    715.8628               766.9371               819.0839
 Red. masses --      2.6644                 1.5200                 2.2566
 Frc consts  --      0.8045                 0.5268                 0.8920
 IR Inten    --      3.3086                14.9308                26.0392

                     19                     20                     21
                      A                      A                      A
 Frequencies --    849.6513               922.1117               954.6964
 Red. masses --      2.7800                 1.3164                 1.3717
 Frc consts  --      1.1824                 0.6595                 0.7366
 IR Inten    --      2.3252                 2.2534                30.9069

                     22                     23                     24
                      A                      A                      A
 Frequencies --    978.5358               994.3937              1008.8615
 Red. masses --      1.4061                 1.1866                 1.2992
 Frc consts  --      0.7933                 0.6913                 0.7791
 IR Inten    --      0.5814                 5.5728                10.5809

                     25                     26                     27
                      A                      A                      A
 Frequencies --   1011.4575              1013.9879              1078.3904
 Red. masses --      4.2709                 1.4442                 2.4735
 Frc consts  --      2.5743                 0.8749                 1.6948
 IR Inten    --      4.8213                 8.0838                 4.0690

                     28                     29                     30
                      A                      A                      A
 Frequencies --   1112.2923              1147.8072              1187.3399
 Red. masses --      1.6965                 1.7683                 1.1223
 Frc consts  --      1.2366                 1.3726                 0.9322
 IR Inten    --      3.8822                19.9179                 1.7507

                     31                     32                     33
                      A                      A                      A
 Frequencies --   1265.0889              1312.1709              1342.0651
 Red. masses --      2.9990                 5.0309                 1.7552
 Frc consts  --      2.8279                 5.1036                 1.8626
 IR Inten    --      4.2503                 3.9372                 2.6695

                     34                     35                     36
                      A                      A                      A
 Frequencies --   1386.2759              1432.6393              1476.5007
 Red. masses --      1.1587                 1.2626                 2.0239
 Frc consts  --      1.3119                 1.5269                 2.5996
 IR Inten    --      2.6073                 6.8283                32.8766

                     37                     38                     39
                      A                      A                      A
 Frequencies --   1496.7406              1513.6802              1517.7891
 Red. masses --      1.0544                 2.3266                 1.0539
 Frc consts  --      1.3918                 3.1408                 1.4305
 IR Inten    --      5.9099                31.4285                 8.4109

                     40                     41                     42
                      A                      A                      A
 Frequencies --   1622.0584              1644.8046              1676.2986
 Red. masses --      5.0705                 5.4465                 5.1445
 Frc consts  --      7.8602                 8.6815                 8.5173
 IR Inten    --     21.5591                48.9413                 3.7657

                     43                     44                     45
                      A                      A                      A
 Frequencies --   3069.3591              3156.9989              3161.5855
 Red. masses --      1.0292                 1.1072                 1.1057
 Frc consts  --      5.7125                 6.5018                 6.5118
 IR Inten    --     24.7886                11.6352                 7.1070

                     46                     47                     48
                      A                      A                      A
 Frequencies --   3168.7404              3183.1867              3195.1384
 Red. masses --      1.0893                 1.0579                 1.0885
 Frc consts  --      6.4442                 6.3154                 6.5474
 IR Inten    --     28.3035                 1.5948                11.4134

                     49                     50                     51
                      A                      A                      A
 Frequencies --   3216.3199              3226.2376              3275.3627
 Red. masses --      1.0948                 1.0941                 1.1180
 Frc consts  --      6.6730                 6.7097                 7.0666
 IR Inten    --     21.9300                 3.6323                 1.8412

 - Thermochemistry -
 -------------------
 Temperature   298.150 Kelvin.  Pressure   1.00000 Atm.
 Atom     1 has atomic number  6 and mass  12.00000

 Molecular mass:   151.04557 amu.
 Principal axes and moments of inertia in atomic units:
                           1         2         3
     Eigenvalues --   813.304332268.977542776.65610
           X            0.99992  -0.00277  -0.01253
           Y            0.00259   0.99989  -0.01448
           Z            0.01256   0.01444   0.99982
 This molecule is an asymmetric top.
 Rotational symmetry number  1.
 Warning -- assumption of classical behavior for rotation
           may cause significant error
 Rotational temperatures (Kelvin)      0.10650     0.03817     0.03119
 Rotational constants (GHZ):           2.21902     0.79540     0.64997
 Zero-point vibrational energy     397662.7 (Joules/Mol)
                                   95.04368 (Kcal/Mol)
 Warning -- explicit consideration of  12 degrees of freedom as
           vibrations may cause significant error
 Vibrational temperatures:     74.52   132.93   179.24   220.53   276.94
          (Kelvin)            317.86   480.63   566.67   602.83   629.06
                              745.80   860.27   921.48  1001.06  1023.68
                             1029.97  1103.45  1178.48  1222.46  1326.71
                             1373.60  1407.89  1430.71  1451.53  1455.26
                             1458.90  1551.56  1600.34  1651.44  1708.32
                             1820.18  1887.92  1930.93  1994.54  2061.25
                             2124.36  2153.48  2177.85  2183.76  2333.78
                             2366.51  2411.82  4416.12  4542.22  4548.82
                             4559.11  4579.90  4597.09  4627.57  4641.84
                             4712.52

 Zero-point correction=                           0.151462 (Hartree/Particle)
 Thermal correction to Energy=                    0.161071
 Thermal correction to Enthalpy=                  0.162015
 Thermal correction to Gibbs Free Energy=         0.115859
 Sum of electronic and zero-point Energies=           -763.073612
 Sum of electronic and thermal Energies=              -763.064003
 Sum of electronic and thermal Enthalpies=            -763.063059
 Sum of electronic and thermal Free Energies=         -763.109215

                     E (Thermal)             CV                S
                      KCal/Mol        Cal/Mol-Kelvin    Cal/Mol-Kelvin
 Total                  101.074             35.703             97.144
 Electronic               0.000              0.000              0.000
 Translational            0.889              2.981             40.947
 Rotational               0.889              2.981             30.017
 Vibrational             99.296             29.741             26.179
 Vibration     1          0.596              1.977              4.748
 Vibration     2          0.602              1.955              3.609
 Vibration     3          0.610              1.928              3.028
 Vibration     4          0.619              1.899              2.631
 Vibration     5          0.634              1.850              2.204
 Vibration     6          0.648              1.809              1.951
 Vibration     7          0.716              1.607              1.240
 Vibration     8          0.761              1.483              0.986
 Vibration     9          0.782              1.429              0.895
 Vibration    10          0.798              1.389              0.835
 Vibration    11          0.873              1.209              0.614
 Vibration    12          0.956              1.036              0.453

 Optimization completed.
    -- Stationary point found.
 Normal termination of Gaussian 16 at Tue Dec  8 10:24:43 2020.

 ----------------------------------------------------------------------
 # B3LYP/6-311++G(d,p) empiricaldispersion=gd3bj scf=xqc pop=npa geom=c
 heck
 ----------------------------------------------------------------------

 --------------------------------------
 CID_146588430_JID_304_Energie_neutraal
 --------------------------------------
 Structure from the checkpoint file:  "JID_304.chk"
 Charge =  0 Multiplicity = 1

 SCF Done:  E(RB3LYP) =  -763.348034717     A.U. after   16 cycles
 Normal termination of Gaussian 16 at Tue Dec  8 10:25:57 2020.

 ----------------------------------------------------------------------
 # B3LYP/6-311++G(d,p) empiricaldispersion=gd3bj scf=xqc pop=npa geom=c
 heck
 ----------------------------------------------------------------------

 ------------------------------------
 CID_146588430_JID_304_Energie_kation
 ------------------------------------
 Structure from the checkpoint file:  "JID_304.chk"
 Charge =  1 Multiplicity = 2

 SCF Done:  E(UB3LYP) =  -763.047853722     A.U. after   27 cycles
 Normal termination of Gaussian 16 at Tue Dec  8 10:29:41 2020.
 Gaussian 16:  ES64L-G16RevA.03 25-Dec-2016

 ----------------------------------------------------------------------
 # B3LYP/6-311++G(d,p) empiricaldispersion=gd3bj scf=xqc pop=npa geom=c
 heck
 ----------------------------------------------------------------------

 -----------------------------------
 CID_146588430_JID_304_Energie_anion
 -----------------------------------
 Structure from the checkpoint file:  "JID_304.chk"
 Charge = -1 Multiplicity = 2

                         Standard orientation:
 ---------------------------------------------------------------------
 Center     Atomic      Atomic             Coordinates (Angstroms)
 Number     Number       Type             X           Y           Z
 ---------------------------------------------------------------------
      1          6           0       -2.170667   -1.308501    1.126095
      2         16           0       -2.325280   -0.327264   -0.413724
      3          6           0       -0.975368    0.832471   -0.202825
      4          6           0       -1.238995    2.146801   -0.200595
      5          6           0        0.420013    0.319655   -0.116695
      6          6           0        0.771597   -0.960216   -0.570816
      7          6           0        2.098835   -1.371023   -0.476623
      8          6           0        3.039400   -0.498611    0.065112
      9          6           0        2.597715    0.758246    0.484503
     10          7           0        1.330018    1.164092    0.406952
     11          1           0       -2.953481   -2.070598    1.092587
     12          1           0       -2.321045   -0.673251    2.002017
     13          1           0       -1.195508   -1.797820    1.187679
     14          1           0       -0.424370    2.862366   -0.157774
     15          1           0       -2.256729    2.518473   -0.245079
     16          1           0        0.014848   -1.603589   -1.005193
     17          1           0        2.391862   -2.357118   -0.826116
     18          1           0        4.083903   -0.776993    0.162890
     19          1           0        3.299706    1.473178    0.910967
 ---------------------------------------------------------------------

 SCF Done:  E(UB3LYP) =  -763.348858689     A.U. after   31 cycles

 The electronic state is 2-A.
 Alpha  occ. eigenvalues --  -88.70077 -14.13322 -10.06173 -10.05208 -10.03964
 Alpha  occ. eigenvalues --  -10.03158 -10.02784 -10.02123 -10.01474  -9.98947
 Alpha  occ. eigenvalues --   -7.78644  -5.75044  -5.74671  -5.74034  -0.78109
 Alpha  occ. eigenvalues --   -0.66962  -0.64581  -0.61293  -0.58032  -0.50430
 Alpha  occ. eigenvalues --   -0.47730  -0.46906  -0.39496  -0.35309  -0.32935
 Alpha  occ. eigenvalues --   -0.31225  -0.30130  -0.29786  -0.28360  -0.26338
 Alpha  occ. eigenvalues --   -0.25053  -0.23751  -0.22610  -0.21746  -0.17604
 Alpha  occ. eigenvalues --   -0.14964  -0.13395  -0.10386  -0.09308  -0.07813
 Alpha  occ. eigenvalues --    0.05683
 Alpha virt. eigenvalues --    0.08678   0.09319   0.10733   0.11322   0.12018
 Alpha virt. eigenvalues --    0.12253   0.12397   0.13785   0.14213   0.14899
 Alpha virt. eigenvalues --    0.15678   0.15845   0.16630   0.18028   0.18771

  Beta  occ. eigenvalues --  -88.70075 -14.12990 -10.06149 -10.05288 -10.03703
  Beta  occ. eigenvalues --  -10.03116 -10.02635 -10.02172 -10.01238  -9.98511
  Beta  occ. eigenvalues --   -7.78642  -5.75032  -5.74671  -5.74035  -0.77584
  Beta  occ. eigenvalues --   -0.66692  -0.64129  -0.61025  -0.57610  -0.50133
  Beta  occ. eigenvalues --   -0.47015  -0.46781  -0.39116  -0.35082  -0.32734
  Beta  occ. eigenvalues --   -0.30995  -0.30041  -0.29656  -0.28218  -0.26179
  Beta  occ. eigenvalues --   -0.24024  -0.23583  -0.22369  -0.21448  -0.17268
  Beta  occ. eigenvalues --   -0.13645  -0.12336  -0.09907  -0.08822  -0.06418
  Beta virt. eigenvalues --    0.08663   0.09307   0.10643   0.11166   0.11418
  Beta virt. eigenvalues --    0.12142   0.12306   0.12696   0.13729   0.14127
  Beta virt. eigenvalues --    0.14786   0.15717   0.16550   0.16791   0.18171

 Mulliken charges and spin densities:
               1          2
     1  C   -0.550862  -0.125181
     2  S   -0.046149  -0.038547
     3  C    0.374617  -0.153912
     4  C   -0.372017   0.487411
     5  C   -0.540685   0.147134
     6  C    0.130876   0.042595
     7  C   -0.698119   0.101079
     8  C   -0.062333   0.208461
     9  C   -0.141272  -0.025134
    10  N    0.009210   0.170248
    11  H   -0.045305   0.167777
    12  H    0.163956  -0.003030
    13  H    0.167593  -0.004250
    14  H    0.125673  -0.021895
    15  H    0.096527  -0.019911
    16  H    0.049447   0.069268
    17  H    0.106162   0.003145
    18  H    0.099270  -0.009756
    19  H    0.133411   0.004499
 Sum of Mulliken charges =  -1.00000   1.00000

 Dipole moment (field-independent basis, Debye):
    X=              0.5076    Y=             -2.7035    Z=              0.8020  Tot=              2.8653
 Quadrupole moment (field-independent basis, Debye-Ang):
   XX=            -94.9539   YY=            -84.5381   ZZ=            -79.4596
   XY=              0.6182   XZ=             -2.3250   YZ=             -0.5594

 Summary of Natural Population Analysis:

                                       Natural Population
                Natural  -----------------------------------------------
    Atom  No    Charge         Core      Valence    Rydberg      Total
 -----------------------------------------------------------------------
      C    1   -0.35263      0.99962     2.34574    0.00726     3.35263
      S    2    0.08474      4.99955     2.89333    0.02238     7.91526
      C    3   -0.10999      0.99940     2.09661    0.01398     3.10999
      C    4   -0.08365      0.99950     2.07403    0.01013     3.08365
      C    5    0.12496      0.99946     1.86022    0.01536     2.87504
      C    6   -0.13403      0.99952     2.12659    0.00792     3.13403
      C    7   -0.07008      0.99957     2.06144    0.00908     3.07008
      C    8   -0.10161      0.99956     2.09253    0.00952     3.10161
      C    9    0.00746      0.99960     1.97871    0.01423     2.99254
      N   10   -0.19669      0.99968     2.68422    0.01278     3.69669
      H   11    0.09642      0.00000     0.40179    0.00179     0.40358
      H   12    0.09863      0.00000     0.40013    0.00124     0.40137
      H   13    0.10340      0.00000     0.39506    0.00154     0.39660
      H   14    0.09661      0.00000     0.40236    0.00104     0.40339
      H   15    0.08202      0.00000     0.41706    0.00092     0.41798
      H   16    0.10188      0.00000     0.39627    0.00185     0.39812
      H   17    0.08719      0.00000     0.41139    0.00142     0.41281
      H   18    0.08798      0.00000     0.41079    0.00123     0.41202
      H   19    0.07739      0.00000     0.42123    0.00139     0.42261
 =======================================================================
   * Total *    0.00000     13.99547    25.86949    0.13504    40.00000

 Normal termination of Gaussian 16 at Tue Dec  8 10:37:15 2020.
