 Gaussian 16, Revision A.03,

 -----------------------------------------------------------
 # opt freq B3LYP/6-31G(d) empiricaldispersion=gd3bj scf=xqc
 -----------------------------------------------------------

 -------------------------------
 CID_104214570_JID_8212_neutraal
 -------------------------------
 Symbolic Z-matrix:
 Charge =  0 Multiplicity = 1

 SCF Done:  E(RB3LYP) =  -1111.01107700     A.U. after   14 cycles
 SCF Done:  E(RB3LYP) =  -1111.01834946     A.U. after   11 cycles
 SCF Done:  E(RB3LYP) =  -1111.01908785     A.U. after   12 cycles
 SCF Done:  E(RB3LYP) =  -1111.02022107     A.U. after   12 cycles
 SCF Done:  E(RB3LYP) =  -1111.02109327     A.U. after   13 cycles
 SCF Done:  E(RB3LYP) =  -1111.02330582     A.U. after   15 cycles
 SCF Done:  E(RB3LYP) =  -1111.02496256     A.U. after   12 cycles
 SCF Done:  E(RB3LYP) =  -1111.02594785     A.U. after   12 cycles
 SCF Done:  E(RB3LYP) =  -1111.02613894     A.U. after   12 cycles
 SCF Done:  E(RB3LYP) =  -1111.02629749     A.U. after   11 cycles
 SCF Done:  E(RB3LYP) =  -1111.02729665     A.U. after    9 cycles
 SCF Done:  E(RB3LYP) =  -1111.02729784     A.U. after    9 cycles
 SCF Done:  E(RB3LYP) =  -1111.02729812     A.U. after    7 cycles
 SCF Done:  E(RB3LYP) =  -1111.02729827     A.U. after    8 cycles
 SCF Done:  E(RB3LYP) =  -1111.02729827     A.U. after    7 cycles
 Optimization completed.
    -- Stationary point found.
 Normal termination of Gaussian 16 at Fri Dec 11 20:05:10 2020.

 --------------------------------------------------------------------
 #N Geom=AllCheck Guess=TCheck SCRF=Check GenChk RB3LYP/6-31G(d) Freq
 --------------------------------------------------------------------

 Structure from the checkpoint file:  "JID_8212.chk"
 -------------------------------
 CID_104214570_JID_8212_neutraal
 -------------------------------
 Charge =  0 Multiplicity = 1

 SCF Done:  E(RB3LYP) =  -1111.02729827     A.U. after    1 cycles

  Exact polarizability: 238.135   3.272 166.165   1.437  -8.521 142.554
 Approx polarizability: 292.653   3.190 276.405   3.217 -27.723 222.293

                      1                      2                      3
                      A                      A                      A
 Frequencies --     16.5373                24.4589                30.9272
 Red. masses --      3.9711                 4.1412                 3.8421
 Frc consts  --      0.0006                 0.0015                 0.0022
 IR Inten    --      0.2045                 0.0174                 0.1963

                      4                      5                      6
                      A                      A                      A
 Frequencies --     43.1955                64.7990                82.0344
 Red. masses --      3.0512                 3.8409                 4.3948
 Frc consts  --      0.0034                 0.0095                 0.0174
 IR Inten    --      0.0801                 0.3175                 1.2669

                      7                      8                      9
                      A                      A                      A
 Frequencies --     94.6041               115.1390               136.1177
 Red. masses --      3.9189                 2.2092                 2.3188
 Frc consts  --      0.0207                 0.0173                 0.0253
 IR Inten    --      1.1666                 1.7073                 0.5159

                     10                     11                     12
                      A                      A                      A
 Frequencies --    177.9210               190.8385               195.0417
 Red. masses --      3.0200                 2.1724                 3.2024
 Frc consts  --      0.0563                 0.0466                 0.0718
 IR Inten    --      0.8959                 0.4757                 1.6444

                     13                     14                     15
                      A                      A                      A
 Frequencies --    222.8921               240.1406               251.1964
 Red. masses --      1.9954                 2.1844                 1.7008
 Frc consts  --      0.0584                 0.0742                 0.0632
 IR Inten    --      1.4856                 3.6334                 7.0203

                     16                     17                     18
                      A                      A                      A
 Frequencies --    255.9463               281.2892               305.6935
 Red. masses --      1.1195                 2.6120                 1.5349
 Frc consts  --      0.0432                 0.1218                 0.0845
 IR Inten    --      1.8010                 0.6375                21.5095

                     19                     20                     21
                      A                      A                      A
 Frequencies --    324.3799               331.6035               372.5504
 Red. masses --      2.4134                 2.2062                 1.7427
 Frc consts  --      0.1496                 0.1429                 0.1425
 IR Inten    --      2.6165                 0.6943                11.1522

                     22                     23                     24
                      A                      A                      A
 Frequencies --    386.3513               397.2489               428.5302
 Red. masses --      2.9461                 2.1958                 3.9807
 Frc consts  --      0.2591                 0.2042                 0.4307
 IR Inten    --      4.6835                 0.2686                 3.6971

                     25                     26                     27
                      A                      A                      A
 Frequencies --    464.8762               470.5842               528.2635
 Red. masses --      2.8495                 3.4321                 3.7428
 Frc consts  --      0.3628                 0.4478                 0.6154
 IR Inten    --      5.3841                 3.0591                 8.0241

                     28                     29                     30
                      A                      A                      A
 Frequencies --    562.3212               597.7934               613.1644
 Red. masses --      2.5168                 2.7068                 3.9379
 Frc consts  --      0.4689                 0.5699                 0.8723
 IR Inten    --      1.3759                 6.0201                 5.8830

                     31                     32                     33
                      A                      A                      A
 Frequencies --    624.9279               662.2984               685.3815
 Red. masses --      4.2476                 6.2207                 2.0707
 Frc consts  --      0.9774                 1.6077                 0.5731
 IR Inten    --      5.6451                13.2620               105.9568

                     34                     35                     36
                      A                      A                      A
 Frequencies --    704.1251               719.2627               767.3354
 Red. masses --      1.7538                 2.2698                 3.4518
 Frc consts  --      0.5123                 0.6919                 1.1975
 IR Inten    --      0.7689                32.7960                 4.0680

                     37                     38                     39
                      A                      A                      A
 Frequencies --    789.9641               806.4101               838.7237
 Red. masses --      1.3993                 1.3311                 1.6702
 Frc consts  --      0.5145                 0.5100                 0.6922
 IR Inten    --      1.8977                 4.9421                 0.4779

                     40                     41                     42
                      A                      A                      A
 Frequencies --    844.6024               864.3781               866.9267
 Red. masses --      1.7348                 1.7538                 1.3866
 Frc consts  --      0.7291                 0.7721                 0.6140
 IR Inten    --     32.4477                49.8252                13.7494

                     43                     44                     45
                      A                      A                      A
 Frequencies --    888.3294               902.6170               923.3930
 Red. masses --      1.9292                 1.6756                 1.8452
 Frc consts  --      0.8970                 0.8043                 0.9270
 IR Inten    --     33.5430                24.9342               134.4793

                     46                     47                     48
                      A                      A                      A
 Frequencies --    947.4911               955.1360               965.9112
 Red. masses --      1.7030                 2.4281                 2.1559
 Frc consts  --      0.9008                 1.3051                 1.1851
 IR Inten    --     35.5865                 2.8734                 2.5205

                     49                     50                     51
                      A                      A                      A
 Frequencies --    987.4579               991.8930              1034.3203
 Red. masses --      2.3816                 2.6520                 2.0761
 Frc consts  --      1.3682                 1.5373                 1.3086
 IR Inten    --      4.2863                 0.9201                42.5432

                     52                     53                     54
                      A                      A                      A
 Frequencies --   1063.2982              1072.5229              1078.8087
 Red. masses --      1.2127                 1.9844                 2.0206
 Frc consts  --      0.8078                 1.3449                 1.3855
 IR Inten    --      1.6573                 0.4098                11.8999

                     55                     56                     57
                      A                      A                      A
 Frequencies --   1101.8758              1106.6432              1111.5065
 Red. masses --      1.6136                 2.1373                 2.4738
 Frc consts  --      1.1543                 1.5422                 1.8007
 IR Inten    --      3.5500                 3.6514                 2.6820

                     58                     59                     60
                      A                      A                      A
 Frequencies --   1134.8514              1154.3324              1168.9476
 Red. masses --      2.0254                 2.1907                 2.5897
 Frc consts  --      1.5369                 1.7199                 2.0849
 IR Inten    --     12.4219                24.3480                26.4859

                     61                     62                     63
                      A                      A                      A
 Frequencies --   1185.6162              1201.0377              1204.2219
 Red. masses --      2.9503                 2.6322                 2.4238
 Frc consts  --      2.4435                 2.2371                 2.0709
 IR Inten    --     53.1997                 2.3952                 5.3640

                     64                     65                     66
                      A                      A                      A
 Frequencies --   1219.1242              1228.8679              1254.2759
 Red. masses --      1.3792                 2.2127                 1.6627
 Frc consts  --      1.2078                 1.9687                 1.5412
 IR Inten    --      1.3420                25.0697                 8.4038

                     67                     68                     69
                      A                      A                      A
 Frequencies --   1266.7315              1271.2069              1283.5702
 Red. masses --      1.2540                 1.5387                 1.3184
 Frc consts  --      1.1855                 1.4650                 1.2797
 IR Inten    --      0.6027                 4.2517                 3.3096

                     70                     71                     72
                      A                      A                      A
 Frequencies --   1285.7018              1304.5670              1322.8750
 Red. masses --      1.4358                 1.5079                 1.2455
 Frc consts  --      1.3984                 1.5120                 1.2842
 IR Inten    --      1.3423                10.4864                 4.0067

                     73                     74                     75
                      A                      A                      A
 Frequencies --   1329.3659              1334.4102              1345.7860
 Red. masses --      1.6942                 1.6164                 1.4999
 Frc consts  --      1.7641                 1.6958                 1.6006
 IR Inten    --     23.4229                20.0310                 0.9361

                     76                     77                     78
                      A                      A                      A
 Frequencies --   1376.4928              1382.2720              1396.9850
 Red. masses --      1.4920                 1.3912                 1.3117
 Frc consts  --      1.6656                 1.5662                 1.5082
 IR Inten    --     17.2076                14.1905                 7.3466

                     79                     80                     81
                      A                      A                      A
 Frequencies --   1412.7577              1416.5375              1423.2547
 Red. masses --      1.2567                 1.3132                 1.2610
 Frc consts  --      1.4778                 1.5525                 1.5050
 IR Inten    --     15.6324                 7.0658                 0.8964

                     82                     83                     84
                      A                      A                      A
 Frequencies --   1430.0022              1437.7124              1497.8416
 Red. masses --      1.2335                 1.2245                 1.1402
 Frc consts  --      1.4861                 1.4912                 1.5072
 IR Inten    --     12.8040                 1.7350                 7.1988

                     85                     86                     87
                      A                      A                      A
 Frequencies --   1504.9499              1506.3999              1509.0438
 Red. masses --      1.0941                 1.0809                 1.1069
 Frc consts  --      1.4601                 1.4451                 1.4851
 IR Inten    --      3.8804                 4.9009                 3.0362

                     88                     89                     90
                      A                      A                      A
 Frequencies --   1511.6465              1517.8054              1518.1329
 Red. masses --      1.0694                 1.0761                 1.0868
 Frc consts  --      1.4398                 1.4606                 1.4757
 IR Inten    --      2.1037                 3.9737                 5.7519

                     91                     92                     93
                      A                      A                      A
 Frequencies --   1520.2828              1526.1628              1532.4525
 Red. masses --      1.1984                 1.0409                 1.1602
 Frc consts  --      1.6319                 1.4284                 1.6053
 IR Inten    --     13.0619                 9.0418                20.7629

                     94                     95                     96
                      A                      A                      A
 Frequencies --   1534.0400              1542.5414              1545.5710
 Red. masses --      1.1009                 1.1377                 3.3291
 Frc consts  --      1.5265                 1.5950                 4.6855
 IR Inten    --      1.5191                 2.0986                13.7233

                     97                     98                     99
                      A                      A                      A
 Frequencies --   1599.3207              1700.3486              3015.5121
 Red. masses --      6.3449                 1.0900                 1.0619
 Frc consts  --      9.5619                 1.8567                 5.6892
 IR Inten    --     13.7044                18.3321                24.2323

                    100                    101                    102
                      A                      A                      A
 Frequencies --   3032.8742              3033.9985              3038.3684
 Red. masses --      1.0676                 1.0745                 1.0623
 Frc consts  --      5.7861                 5.8274                 5.7778
 IR Inten    --     25.1714                12.5465                33.8835

                    103                    104                    105
                      A                      A                      A
 Frequencies --   3043.4818              3052.9634              3053.9469
 Red. masses --      1.0692                 1.0351                 1.0867
 Frc consts  --      5.8350                 5.6843                 5.9713
 IR Inten    --     15.3109                30.4984                29.3683

                    106                    107                    108
                      A                      A                      A
 Frequencies --   3055.6196              3057.8132              3070.1532
 Red. masses --      1.0608                 1.0446                 1.0662
 Frc consts  --      5.8355                 5.7547                 5.9212
 IR Inten    --     63.2483                35.0678                38.4508

                    109                    110                    111
                      A                      A                      A
 Frequencies --   3074.4891              3076.6094              3083.6651
 Red. masses --      1.1010                 1.1008                 1.0644
 Frc consts  --      6.1318                 6.1388                 5.9634
 IR Inten    --     23.8888                10.7741                53.9116

                    112                    113                    114
                      A                      A                      A
 Frequencies --   3087.3556              3101.8644              3122.7765
 Red. masses --      1.1013                 1.1039                 1.1027
 Frc consts  --      6.1850                 6.2577                 6.3357
 IR Inten    --     69.3404                15.0931                48.6561

                    115                    116                    117
                      A                      A                      A
 Frequencies --   3125.2481              3127.2282              3128.8830
 Red. masses --      1.1057                 1.0985                 1.1036
 Frc consts  --      6.3632                 6.3296                 6.3655
 IR Inten    --     14.7030                23.1806                29.9305

                    118                    119                    120
                      A                      A                      A
 Frequencies --   3147.9430              3154.0604              3213.3539
 Red. masses --      1.0986                 1.1032                 1.0932
 Frc consts  --      6.4142                 6.4659                 6.6507
 IR Inten    --     75.8993                19.7309                23.7216

                    121                    122                    123
                      A                      A                      A
 Frequencies --   3469.4981              3555.8860              3558.7423
 Red. masses --      1.0490                 1.0740                 1.0922
 Frc consts  --      7.4396                 8.0012                 8.1497
 IR Inten    --      1.0276                 1.5573                 0.4815

 - Thermochemistry -
 -------------------
 Temperature   298.150 Kelvin.  Pressure   1.00000 Atm.
 Atom     1 has atomic number  6 and mass  12.00000

 Molecular mass:   267.17692 amu.
 Principal axes and moments of inertia in atomic units:
                           1         2         3
     Eigenvalues --  1877.70196********************
           X            0.99999   0.00433   0.00170
           Y           -0.00435   0.99994   0.00984
           Z           -0.00166  -0.00985   0.99995
 This molecule is an asymmetric top.
 Rotational symmetry number  1.
 Warning -- assumption of classical behavior for rotation
           may cause significant error
 Rotational temperatures (Kelvin)      0.04613     0.00673     0.00641
 Rotational constants (GHZ):           0.96114     0.14029     0.13363
 Zero-point vibrational energy    1003860.4 (Joules/Mol)
                                  239.92840 (Kcal/Mol)
 Warning -- explicit consideration of  30 degrees of freedom as
           vibrations may cause significant error
 Vibrational temperatures:     23.79    35.19    44.50    62.15    93.23
          (Kelvin)            118.03   136.11   165.66   195.84   255.99
                              274.57   280.62   320.69   345.51   361.42
                              368.25   404.71   439.82   466.71   477.10
                              536.02   555.87   571.55   616.56   668.85
                              677.07   760.05   809.05   860.09   882.21
                              899.13   952.90   986.11  1013.08  1034.86
                             1104.02  1136.58  1160.24  1206.74  1215.19
                             1243.65  1247.31  1278.11  1298.66  1328.56
                             1363.23  1374.23  1389.73  1420.73  1427.11
                             1488.16  1529.85  1543.12  1552.17  1585.35
                             1592.21  1599.21  1632.80  1660.83  1681.85
                             1705.84  1728.03  1732.61  1754.05  1768.07
                             1804.62  1822.54  1828.98  1846.77  1849.84
                             1876.98  1903.32  1912.66  1919.92  1936.29
                             1980.47  1988.78  2009.95  2032.64  2038.08
                             2047.75  2057.45  2068.55  2155.06  2165.29
                             2167.37  2171.18  2174.92  2183.78  2184.25
                             2187.35  2195.81  2204.86  2207.14  2219.37
                             2223.73  2301.07  2446.42  4338.65  4363.63
                             4365.25  4371.53  4378.89  4392.53  4393.95
                             4396.36  4399.51  4417.27  4423.50  4426.55
                             4436.71  4442.02  4462.89  4492.98  4496.53
                             4499.38  4501.76  4529.19  4537.99  4623.30
                             4991.83  5116.13  5120.24

 Zero-point correction=                           0.382350 (Hartree/Particle)
 Thermal correction to Energy=                    0.402255
 Thermal correction to Enthalpy=                  0.403199
 Thermal correction to Gibbs Free Energy=         0.331577
 Sum of electronic and zero-point Energies=          -1110.644948
 Sum of electronic and thermal Energies=             -1110.625044
 Sum of electronic and thermal Enthalpies=           -1110.624100
 Sum of electronic and thermal Free Energies=        -1110.695722

                     E (Thermal)             CV                S
                      KCal/Mol        Cal/Mol-Kelvin    Cal/Mol-Kelvin
 Total                  252.419             75.090            150.741
 Electronic               0.000              0.000              0.000
 Translational            0.889              2.981             42.647
 Rotational               0.889              2.981             34.144
 Vibrational            250.641             69.128             73.950
 Vibration     1          0.593              1.986              7.012
 Vibration     2          0.593              1.985              6.235
 Vibration     3          0.594              1.984              5.769
 Vibration     4          0.595              1.980              5.107
 Vibration     5          0.597              1.971              4.305
 Vibration     6          0.600              1.961              3.842
 Vibration     7          0.603              1.953              3.563
 Vibration     8          0.608              1.937              3.180
 Vibration     9          0.614              1.917              2.858
 Vibration    10          0.628              1.869              2.350
 Vibration    11          0.634              1.853              2.220
 Vibration    12          0.636              1.847              2.179
 Vibration    13          0.649              1.806              1.935
 Vibration    14          0.657              1.779              1.802
 Vibration    15          0.663              1.761              1.722
 Vibration    16          0.666              1.753              1.689
 Vibration    17          0.681              1.708              1.526
 Vibration    18          0.696              1.663              1.386
 Vibration    19          0.709              1.627              1.288
 Vibration    20          0.714              1.612              1.252
 Vibration    21          0.744              1.529              1.069
 Vibration    22          0.755              1.499              1.014
 Vibration    23          0.764              1.476              0.973
 Vibration    24          0.790              1.408              0.863
 Vibration    25          0.822              1.328              0.752
 Vibration    26          0.828              1.315              0.736
 Vibration    27          0.883              1.187              0.591
 Vibration    28          0.918              1.113              0.519
 Vibration    29          0.956              1.036              0.453
 Vibration    30          0.972              1.004              0.428

 Optimization completed.
    -- Stationary point found.
 Normal termination of Gaussian 16 at Fri Dec 11 20:23:27 2020.

 ----------------------------------------------------------------------
 # B3LYP/6-311++G(d,p) empiricaldispersion=gd3bj scf=xqc pop=npa geom=c
 heck
 ----------------------------------------------------------------------

 ---------------------------------------
 CID_104214570_JID_8212_Energie_neutraal
 ---------------------------------------
 Structure from the checkpoint file:  "JID_8212.chk"
 Charge =  0 Multiplicity = 1

 SCF Done:  E(RB3LYP) =  -1111.25541651     A.U. after   15 cycles
 Normal termination of Gaussian 16 at Fri Dec 11 20:31:59 2020.

 ----------------------------------------------------------------------
 # B3LYP/6-311++G(d,p) empiricaldispersion=gd3bj scf=xqc pop=npa geom=c
 heck
 ----------------------------------------------------------------------

 -------------------------------------
 CID_104214570_JID_8212_Energie_kation
 -------------------------------------
 Structure from the checkpoint file:  "JID_8212.chk"
 Charge =  1 Multiplicity = 2

 SCF Done:  E(UB3LYP) =  -1110.97021114     A.U. after   28 cycles
 Normal termination of Gaussian 16 at Fri Dec 11 20:53:29 2020.
 Gaussian 16:  ES64L-G16RevA.03 25-Dec-2016

 ----------------------------------------------------------------------
 # B3LYP/6-311++G(d,p) empiricaldispersion=gd3bj scf=xqc pop=npa geom=c
 heck
 ----------------------------------------------------------------------

 ------------------------------------
 CID_104214570_JID_8212_Energie_anion
 ------------------------------------
 Structure from the checkpoint file:  "JID_8212.chk"
 Charge = -1 Multiplicity = 2

                         Standard orientation:
 ---------------------------------------------------------------------
 Center     Atomic      Atomic             Coordinates (Angstroms)
 Number     Number       Type             X           Y           Z
 ---------------------------------------------------------------------
      1          6           0        5.804181    1.736728    0.422110
      2          6           0        5.591581    0.479169   -0.435663
      3          6           0        4.272732   -0.192861   -0.194528
      4          6           0        4.038339   -1.422263    0.355447
      5          7           0        2.718270   -1.794714    0.498505
      6          6           0        1.924492   -0.863551    0.060905
      7         16           0        2.737892    0.567503   -0.561398
      8          6           0        0.413179   -0.939244    0.030965
      9          6           0       -0.112444   -1.529280    1.348788
     10          7           0       -0.122507    0.378805   -0.305716
     11          6           0       -1.216346    0.440478   -1.272390
     12          6           0       -2.504181   -0.363136   -0.995464
     13          6           0       -3.528746    0.194298    0.000544
     14          6           0       -3.072263    0.774088    1.378536
     15          6           0       -4.052034    1.958889    1.179318
     16          6           0       -4.146972    1.589651   -0.322706
     17          6           0       -4.638323   -0.856637    0.247494
     18          7           0       -5.418652   -1.305305   -0.903660
     19          1           0        5.044165    2.494589    0.203366
     20          1           0        6.788456    2.177520    0.229276
     21          1           0        5.736394    1.493617    1.487629
     22          1           0        5.692362    0.742386   -1.497052
     23          1           0        6.382299   -0.250598   -0.222406
     24          1           0        4.816858   -2.105132    0.680404
     25          1           0        0.141646   -1.618549   -0.788760
     26          1           0        0.098700   -0.842805    2.177265
     27          1           0       -1.193167   -1.690878    1.301743
     28          1           0        0.388449   -2.476247    1.565421
     29          1           0       -0.324037    0.906733    0.536049
     30          1           0       -1.457111    1.500308   -1.415337
     31          1           0       -0.807624    0.095014   -2.230465
     32          1           0       -3.020531   -0.468521   -1.960822
     33          1           0       -2.224926   -1.384486   -0.700704
     34          1           0       -3.224923    0.128066    2.250712
     35          1           0       -2.034054    1.108969    1.385670
     36          1           0       -3.673617    2.956493    1.419538
     37          1           0       -4.998678    1.815068    1.707909
     38          1           0       -3.487152    2.208201   -0.939516
     39          1           0       -5.141426    1.594097   -0.785167
     40          1           0       -4.176783   -1.743036    0.704042
     41          1           0       -5.345497   -0.463226    0.988699
     42          1           0       -4.811611   -1.740350   -1.595212
     43          1           0       -5.853399   -0.506759   -1.363943
 ---------------------------------------------------------------------

 SCF Done:  E(UB3LYP) =  -1111.24621194     A.U. after   33 cycles
 SCF Done:  E(UB3LYP) =  -1111.24621194     a.u. after    1 cycles

 The electronic state is 2-A.
 Alpha  occ. eigenvalues --  -88.77001 -14.21158 -14.20629 -14.20397 -10.12387
 Alpha  occ. eigenvalues --  -10.12290 -10.10706 -10.10409 -10.09847 -10.09504
 Alpha  occ. eigenvalues --  -10.09432 -10.09166 -10.08549 -10.08478 -10.07984
 Alpha  occ. eigenvalues --  -10.07623 -10.07562 -10.07400  -7.85597  -5.81859
 Alpha  occ. eigenvalues --   -5.81513  -5.81228  -0.86056  -0.82363  -0.80217
 Alpha  occ. eigenvalues --   -0.75888  -0.71912  -0.68907  -0.66213  -0.65246
 Alpha  occ. eigenvalues --   -0.62069  -0.60098  -0.57949  -0.55470  -0.54453
 Alpha  occ. eigenvalues --   -0.53205  -0.51061  -0.46108  -0.45001  -0.44204
 Alpha  occ. eigenvalues --   -0.41361  -0.40772  -0.39479  -0.38801  -0.37735
 Alpha  occ. eigenvalues --   -0.36978  -0.35845  -0.35131  -0.33754  -0.33553
 Alpha  occ. eigenvalues --   -0.33135  -0.32458  -0.31472  -0.30532  -0.29805
 Alpha  occ. eigenvalues --   -0.29426  -0.28780  -0.28511  -0.27620  -0.27282
 Alpha  occ. eigenvalues --   -0.26620  -0.26327  -0.25749  -0.25412  -0.24425
 Alpha  occ. eigenvalues --   -0.24144  -0.21697  -0.20962  -0.17594  -0.17451
 Alpha  occ. eigenvalues --   -0.15457  -0.14029  -0.13474   0.03795
 Alpha virt. eigenvalues --    0.05117   0.06081   0.06614   0.07119   0.07313
 Alpha virt. eigenvalues --    0.07764   0.08401   0.08785   0.09091   0.09144
 Alpha virt. eigenvalues --    0.09296   0.09876   0.10649   0.10826   0.11572

  Beta  occ. eigenvalues --  -88.76986 -14.21155 -14.20620 -14.20363 -10.12299
  Beta  occ. eigenvalues --  -10.12260 -10.10692 -10.10397 -10.09781 -10.09497
  Beta  occ. eigenvalues --  -10.09433 -10.09156 -10.08538 -10.08474 -10.07956
  Beta  occ. eigenvalues --  -10.07601 -10.07531 -10.07389  -7.85582  -5.81852
  Beta  occ. eigenvalues --   -5.81507  -5.81181  -0.85966  -0.82346  -0.80170
  Beta  occ. eigenvalues --   -0.75860  -0.71820  -0.68848  -0.66153  -0.65202
  Beta  occ. eigenvalues --   -0.61993  -0.60055  -0.57910  -0.55402  -0.54396
  Beta  occ. eigenvalues --   -0.53164  -0.51012  -0.46008  -0.44916  -0.44161
  Beta  occ. eigenvalues --   -0.41327  -0.40728  -0.39441  -0.38756  -0.37696
  Beta  occ. eigenvalues --   -0.36944  -0.35794  -0.35077  -0.33707  -0.33488
  Beta  occ. eigenvalues --   -0.33089  -0.32401  -0.31361  -0.30496  -0.29771
  Beta  occ. eigenvalues --   -0.29363  -0.28708  -0.28446  -0.27571  -0.27253
  Beta  occ. eigenvalues --   -0.26578  -0.26253  -0.25701  -0.25387  -0.24376
  Beta  occ. eigenvalues --   -0.24106  -0.21673  -0.20937  -0.17455  -0.17335
  Beta  occ. eigenvalues --   -0.15422  -0.13882  -0.13202
  Beta virt. eigenvalues --    0.05705   0.06022   0.06567   0.07098   0.07432
  Beta virt. eigenvalues --    0.07649   0.07882   0.08782   0.09040   0.09288
  Beta virt. eigenvalues --    0.09300   0.09482   0.09940   0.10729   0.10970

 Mulliken charges and spin densities:
               1          2
     1  C    0.255549  -0.784881
     2  C   -0.728232   0.272521
     3  C    0.452021  -0.176806
     4  C   -0.145201   0.122421
     5  N    0.080299   0.024912
     6  C   -0.206223  -0.017906
     7  S   -0.067721  -0.217230
     8  C    0.097776  -0.277438
     9  C   -0.271608  -0.293114
    10  N    0.102832   0.048720
    11  C   -0.238010  -0.609233
    12  C   -0.357730   0.472269
    13  C    0.049206   0.685308
    14  C   -0.560070   0.142595
    15  C    0.127973  -0.537965
    16  C   -0.003314  -0.383000
    17  C    1.033173  -1.763450
    18  N   -0.308801   0.035877
    19  H    0.040345   0.099048
    20  H   -0.360005   0.495848
    21  H    0.061317   0.073971
    22  H   -0.164547   0.318626
    23  H   -0.041122   0.193987
    24  H    0.038768   0.124421
    25  H   -0.059407   0.251254
    26  H    0.093849   0.066408
    27  H    0.154770  -0.027176
    28  H    0.094138   0.074160
    29  H    0.170109   0.023897
    30  H    0.017613   0.131249
    31  H   -0.072041   0.254534
    32  H   -0.210286   0.387827
    33  H    0.028402   0.158897
    34  H    0.068319   0.102766
    35  H    0.115699  -0.089626
    36  H   -0.020217   0.167148
    37  H    0.080258   0.044208
    38  H    0.043706   0.069549
    39  H   -0.401174   0.541979
    40  H    0.122069   0.071754
    41  H   -0.040835   0.186519
    42  H   -0.082583   0.317611
    43  H    0.010937   0.217540
 Sum of Mulliken charges =  -1.00000   1.00000

 Dipole moment (field-independent basis, Debye):
    X=              0.0138    Y=              0.6901    Z=              3.4536  Tot=              3.5219
 Quadrupole moment (field-independent basis, Debye-Ang):
   XX=           -266.8439   YY=           -160.5666   ZZ=           -151.7525
   XY=            -13.2988   XZ=             -7.5216   YZ=              0.7040

 Summary of Natural Population Analysis:

                                       Natural Population
                Natural  -----------------------------------------------
    Atom  No    Charge         Core      Valence    Rydberg      Total
 -----------------------------------------------------------------------
      C    1   -0.28174      0.99966     2.27619    0.00589     3.28174
      C    2   -0.20643      0.99959     2.19637    0.01047     3.20643
      C    3   -0.10467      0.99950     2.09208    0.01309     3.10467
      C    4   -0.02509      0.99945     2.01168    0.01397     3.02509
      N    5   -0.25226      0.99964     2.74170    0.01092     3.75226
      C    6    0.06174      0.99959     1.92053    0.01814     2.93826
      S    7    0.20050      4.99938     2.78158    0.01854     7.79950
      C    8   -0.03470      0.99953     2.02251    0.01266     3.03470
      C    9   -0.28662      0.99964     2.28188    0.00510     3.28662
      N   10   -0.34207      0.99974     2.83113    0.01120     3.84207
      C   11   -0.08281      0.99961     2.07137    0.01183     3.08281
      C   12   -0.20611      0.99957     2.19525    0.01130     3.20611
      C   13   -0.04578      0.99955     2.03111    0.01511     3.04578
      C   14   -0.18498      0.99960     2.17818    0.00719     3.18498
      C   15   -0.19346      0.99965     2.18516    0.00866     3.19346
      C   16   -0.18790      0.99960     2.17921    0.00909     3.18790
      C   17   -0.08440      0.99957     2.07165    0.01319     3.08440
      N   18   -0.41846      0.99978     2.90859    0.01010     3.91846
      H   19    0.09838      0.00000     0.40071    0.00090     0.40162
      H   20    0.09870      0.00000     0.39984    0.00145     0.40130
      H   21    0.09736      0.00000     0.40166    0.00098     0.40264
      H   22    0.10367      0.00000     0.39475    0.00158     0.39633
      H   23    0.10246      0.00000     0.39619    0.00135     0.39754
      H   24    0.09462      0.00000     0.40408    0.00130     0.40538
      H   25    0.10491      0.00000     0.39313    0.00196     0.39509
      H   26    0.09642      0.00000     0.40261    0.00097     0.40358
      H   27    0.09842      0.00000     0.40060    0.00098     0.40158
      H   28    0.11004      0.00000     0.38867    0.00129     0.38996
      H   29    0.17381      0.00000     0.32393    0.00226     0.32619
      H   30    0.09443      0.00000     0.40446    0.00111     0.40557
      H   31    0.09457      0.00000     0.40440    0.00103     0.40543
      H   32    0.10235      0.00000     0.39580    0.00185     0.39765
      H   33    0.09894      0.00000     0.39969    0.00137     0.40106
      H   34    0.09691      0.00000     0.40219    0.00089     0.40309
      H   35    0.09340      0.00000     0.40508    0.00152     0.40660
      H   36    0.09543      0.00000     0.40369    0.00088     0.40457
      H   37    0.09605      0.00000     0.40274    0.00120     0.40395
      H   38    0.09808      0.00000     0.40049    0.00143     0.40192
      H   39    0.09716      0.00000     0.40130    0.00154     0.40284
      H   40    0.09099      0.00000     0.40793    0.00108     0.40901
      H   41    0.09027      0.00000     0.40846    0.00127     0.40973
      H   42    0.17408      0.00000     0.32372    0.00220     0.32592
      H   43    0.17378      0.00000     0.32390    0.00231     0.32622
 =======================================================================
   * Total *    0.00000     21.99265    50.76619    0.24116    73.00000

 Normal termination of Gaussian 16 at Fri Dec 11 21:19:10 2020.
