 Gaussian 16, Revision A.03,

 -----------------------------------------------------------
 # opt freq B3LYP/6-31G(d) empiricaldispersion=gd3bj scf=xqc
 -----------------------------------------------------------

 -------------------------------
 CID_134090412_JID_8557_neutraal
 -------------------------------
 Symbolic Z-matrix:
 Charge =  0 Multiplicity = 1

 SCF Done:  E(RB3LYP) =  -839.069652236     A.U. after   15 cycles
 SCF Done:  E(RB3LYP) =  -839.073640319     A.U. after   12 cycles
 SCF Done:  E(RB3LYP) =  -839.074045854     A.U. after   11 cycles
 SCF Done:  E(RB3LYP) =  -839.074124858     A.U. after   11 cycles
 SCF Done:  E(RB3LYP) =  -839.074107078     A.U. after   11 cycles
 SCF Done:  E(RB3LYP) =  -839.074176186     A.U. after   10 cycles
 SCF Done:  E(RB3LYP) =  -839.074177051     A.U. after    8 cycles
 SCF Done:  E(RB3LYP) =  -839.074177216     A.U. after    8 cycles
 SCF Done:  E(RB3LYP) =  -839.074177280     A.U. after    7 cycles
 SCF Done:  E(RB3LYP) =  -839.074177324     A.U. after    7 cycles
 SCF Done:  E(RB3LYP) =  -839.074177352     A.U. after    7 cycles
 Optimization completed.
    -- Stationary point found.
 Normal termination of Gaussian 16 at Sun Dec 13 12:28:37 2020.

 --------------------------------------------------------------------
 #N Geom=AllCheck Guess=TCheck SCRF=Check GenChk RB3LYP/6-31G(d) Freq
 --------------------------------------------------------------------

 Structure from the checkpoint file:  "JID_8557.chk"
 -------------------------------
 CID_134090412_JID_8557_neutraal
 -------------------------------
 Charge =  0 Multiplicity = 1

 SCF Done:  E(RB3LYP) =  -839.074177352     A.U. after    1 cycles

  Exact polarizability: 263.677   0.216 152.167   0.001  -0.008  80.200
 Approx polarizability: 348.400 -10.075 271.771   0.002  -0.017 120.414

                      1                      2                      3
                      A                      A                      A
 Frequencies --     29.9968                37.0589                72.5326
 Red. masses --      4.6946                 4.8850                 5.0335
 Frc consts  --      0.0025                 0.0040                 0.0156
 IR Inten    --      0.2187                 2.1395                 0.6839

                      4                      5                      6
                      A                      A                      A
 Frequencies --     76.5194               101.9510               130.8148
 Red. masses --      6.1979                 5.5595                 3.2174
 Frc consts  --      0.0214                 0.0340                 0.0324
 IR Inten    --      0.3792                 1.3565                 0.4044

                      7                      8                      9
                      A                      A                      A
 Frequencies --    166.9800               189.3969               203.9615
 Red. masses --      1.4091                 1.9442                 5.1559
 Frc consts  --      0.0231                 0.0411                 0.1264
 IR Inten    --      0.7778                 0.1660                 0.3966

                     10                     11                     12
                      A                      A                      A
 Frequencies --    220.6429               230.8446               235.3962
 Red. masses --      4.1754                 1.3787                 2.1877
 Frc consts  --      0.1198                 0.0433                 0.0714
 IR Inten    --      0.3011                 0.6759                 1.3166

                     13                     14                     15
                      A                      A                      A
 Frequencies --    250.5934               270.1774               293.8062
 Red. masses --      1.6560                 1.5807                 5.7526
 Frc consts  --      0.0613                 0.0680                 0.2926
 IR Inten    --      2.5101                 0.1969                 6.5737

                     16                     17                     18
                      A                      A                      A
 Frequencies --    307.3765               362.7883               370.1901
 Red. masses --      3.4109                 3.9492                 4.7048
 Frc consts  --      0.1899                 0.3062                 0.3799
 IR Inten    --      4.6640                 1.1649                 5.0449

                     19                     20                     21
                      A                      A                      A
 Frequencies --    389.3934               422.0215               476.2451
 Red. masses --      5.5049                 3.1903                 5.3349
 Frc consts  --      0.4918                 0.3348                 0.7129
 IR Inten    --      0.0331                 0.2159                41.0067

                     22                     23                     24
                      A                      A                      A
 Frequencies --    516.3591               517.0416               570.1699
 Red. masses --      6.5889                 2.8875                 5.1210
 Frc consts  --      1.0351                 0.4548                 0.9809
 IR Inten    --      5.5864                20.7453                13.0291

                     25                     26                     27
                      A                      A                      A
 Frequencies --    608.5143               620.8561               637.5757
 Red. masses --      1.2691                 3.5665                 4.3067
 Frc consts  --      0.2769                 0.8100                 1.0315
 IR Inten    --     53.3059                 4.6738                 0.6611

                     28                     29                     30
                      A                      A                      A
 Frequencies --    650.5198               654.0544               716.2596
 Red. masses --      6.9735                 4.7205                 3.4034
 Frc consts  --      1.7387                 1.1898                 1.0287
 IR Inten    --      1.9418                32.1821                41.6165

                     31                     32                     33
                      A                      A                      A
 Frequencies --    738.1141               743.9400               775.5421
 Red. masses --      5.1225                 7.0751                 5.6388
 Frc consts  --      1.6443                 2.3071                 1.9982
 IR Inten    --      6.1517                 0.5872                47.2714

                     34                     35                     36
                      A                      A                      A
 Frequencies --    779.5463               827.9378               863.0043
 Red. masses --      4.7747                 3.6389                 1.2435
 Frc consts  --      1.7095                 1.4697                 0.5456
 IR Inten    --     50.1721                 0.0934                 0.0186

                     37                     38                     39
                      A                      A                      A
 Frequencies --    880.3237               901.0869               976.5930
 Red. masses --      1.7284                 3.7338                 1.4543
 Frc consts  --      0.7892                 1.7862                 0.8172
 IR Inten    --     29.0628                15.4788                 1.2967

                     40                     41                     42
                      A                      A                      A
 Frequencies --    987.8617               990.8223               999.6727
 Red. masses --      2.1470                 1.3123                 1.2956
 Frc consts  --      1.2345                 0.7590                 0.7628
 IR Inten    --      6.6765                 0.3276                 0.1734

                     43                     44                     45
                      A                      A                      A
 Frequencies --   1030.8683              1034.1623              1041.0008
 Red. masses --      2.0352                 1.2953                 2.6270
 Frc consts  --      1.2743                 0.8162                 1.6773
 IR Inten    --      7.6374                 1.1981                 9.4964

                     46                     47                     48
                      A                      A                      A
 Frequencies --   1071.5925              1110.9511              1123.2244
 Red. masses --      1.5285                 4.3417                 5.2368
 Frc consts  --      1.0341                 3.1572                 3.8927
 IR Inten    --      0.1234                 1.0167               169.7246

                     49                     50                     51
                      A                      A                      A
 Frequencies --   1153.1543              1162.6265              1176.5384
 Red. masses --      2.0609                 1.8646                 3.9701
 Frc consts  --      1.6147                 1.4849                 3.2379
 IR Inten    --      5.3455                36.6521                 0.0184

                     52                     53                     54
                      A                      A                      A
 Frequencies --   1196.5446              1203.6034              1232.2473
 Red. masses --      2.3760                 1.3693                 1.5114
 Frc consts  --      2.0043                 1.1688                 1.3522
 IR Inten    --     83.3997               239.1025               137.6169

                     55                     56                     57
                      A                      A                      A
 Frequencies --   1279.3338              1341.5231              1348.3413
 Red. masses --      3.4064                 3.7546                 1.3691
 Frc consts  --      3.2849                 3.9811                 1.4666
 IR Inten    --      6.8808               172.1306                 6.7246

                     58                     59                     60
                      A                      A                      A
 Frequencies --   1369.2640              1397.4188              1404.8496
 Red. masses --     10.5669                 2.8113                 2.6515
 Frc consts  --     11.6728                 3.2345                 3.0833
 IR Inten    --      3.8144               274.2548               155.9536

                     61                     62                     63
                      A                      A                      A
 Frequencies --   1418.5127              1442.8678              1449.8353
 Red. masses --      1.1964                 1.2065                 1.7975
 Frc consts  --      1.4183                 1.4799                 2.2262
 IR Inten    --      2.6631                 6.1900                14.7256

                     64                     65                     66
                      A                      A                      A
 Frequencies --   1474.8780              1502.0081              1505.0035
 Red. masses --      3.3346                 1.0457                 1.0748
 Frc consts  --      4.2737                 1.3899                 1.4344
 IR Inten    --     52.6659                11.7990                 6.0525

                     67                     68                     69
                      A                      A                      A
 Frequencies --   1514.9993              1518.1948              1531.4489
 Red. masses --      1.0450                 1.0468                 1.0649
 Frc consts  --      1.4132                 1.4215                 1.4715
 IR Inten    --      0.2835                 1.8256                12.1272

                     70                     71                     72
                      A                      A                      A
 Frequencies --   1540.0113              1563.8093              1626.0715
 Red. masses --      1.0676                 2.7034                 7.3970
 Frc consts  --      1.4917                 3.8952                11.5235
 IR Inten    --     11.8555               115.9839                 4.1049

                     73                     74                     75
                      A                      A                      A
 Frequencies --   1668.4961              1700.4957              1809.4610
 Red. masses --      5.6542                 8.5516                11.9763
 Frc consts  --      9.2740                14.5696                23.1031
 IR Inten    --    250.9948                26.0598               341.3379

                     76                     77                     78
                      A                      A                      A
 Frequencies --   1817.3351              3048.3381              3057.1001
 Red. masses --      9.7339                 1.0381                 1.0335
 Frc consts  --     18.9412                 5.6833                 5.6908
 IR Inten    --    246.6274                14.8451                17.3992

                     79                     80                     81
                      A                      A                      A
 Frequencies --   3059.9357              3098.9883              3129.7395
 Red. masses --      1.0342                 1.1000                 1.1040
 Frc consts  --      5.7054                 6.2242                 6.3712
 IR Inten    --     28.7780                12.7389                 9.9678

                     82                     83                     84
                      A                      A                      A
 Frequencies --   3131.7328              3139.8366              3142.5612
 Red. masses --      1.1035                 1.1038                 1.1030
 Frc consts  --      6.3766                 6.4112                 6.4180
 IR Inten    --     31.4035                 2.9094                16.0160

                     85                     86                     87
                      A                      A                      A
 Frequencies --   3155.5653              3225.3916              3231.5140
 Red. masses --      1.1004                 1.0900                 1.0905
 Frc consts  --      6.4558                 6.6813                 6.7092
 IR Inten    --      6.5462                 1.0774                 2.4379

                     88                     89                     90
                      A                      A                      A
 Frequencies --   3258.6489              3273.6786              3702.8591
 Red. masses --      1.0922                 1.0925                 1.0641
 Frc consts  --      6.8335                 6.8981                 8.5966
 IR Inten    --      0.3380                 3.7733                83.6388

 - Thermochemistry -
 -------------------
 Temperature   298.150 Kelvin.  Pressure   1.00000 Atm.
 Atom     1 has atomic number  6 and mass  12.00000

 Molecular mass:   246.10044 amu.
 Principal axes and moments of inertia in atomic units:
                           1         2         3
     Eigenvalues --  1493.445109611.89233**********
           X            0.99998   0.00565  -0.00000
           Y           -0.00565   0.99998  -0.00001
           Z            0.00000   0.00001   1.00000
 This molecule is an asymmetric top.
 Rotational symmetry number  1.
 Warning -- assumption of classical behavior for rotation
           may cause significant error
 Rotational temperatures (Kelvin)      0.05800     0.00901     0.00809
 Rotational constants (GHZ):           1.20844     0.18776     0.16862
 Zero-point vibrational energy     671171.1 (Joules/Mol)
                                  160.41374 (Kcal/Mol)
 Warning -- explicit consideration of  25 degrees of freedom as
           vibrations may cause significant error
 Vibrational temperatures:     43.16    53.32   104.36   110.09   146.68
          (Kelvin)            188.21   240.25   272.50   293.46   317.46
                              332.13   338.68   360.55   388.73   422.72
                              442.25   521.97   532.62   560.25   607.19
                              685.21   742.93   743.91   820.35   875.52
                              893.27   917.33   935.95   941.04  1030.54
                             1061.98  1070.36  1115.83  1121.59  1191.22
                             1241.67  1266.59  1296.46  1405.10  1421.31
                             1425.57  1438.31  1483.19  1487.93  1497.77
                             1541.78  1598.41  1616.07  1659.13  1672.76
                             1692.78  1721.56  1731.72  1772.93  1840.68
                             1930.15  1939.96  1970.07  2010.57  2021.27
                             2040.92  2075.97  2085.99  2122.02  2161.05
                             2165.36  2179.75  2184.34  2203.41  2215.73
                             2249.97  2339.55  2400.59  2446.63  2603.41
                             2614.74  4385.88  4398.49  4402.56  4458.75
                             4503.00  4505.87  4517.52  4521.44  4540.15
                             4640.62  4649.43  4688.47  4710.09  5327.59

 Zero-point correction=                           0.255636 (Hartree/Particle)
 Thermal correction to Energy=                    0.272382
 Thermal correction to Enthalpy=                  0.273326
 Thermal correction to Gibbs Free Energy=         0.210681
 Sum of electronic and zero-point Energies=           -838.818542
 Sum of electronic and thermal Energies=              -838.801795
 Sum of electronic and thermal Enthalpies=            -838.800851
 Sum of electronic and thermal Free Energies=         -838.863496

                     E (Thermal)             CV                S
                      KCal/Mol        Cal/Mol-Kelvin    Cal/Mol-Kelvin
 Total                  170.922             63.474            131.849
 Electronic               0.000              0.000              0.000
 Translational            0.889              2.981             42.402
 Rotational               0.889              2.981             33.396
 Vibrational            169.145             57.512             56.050
 Vibration     1          0.594              1.984              5.830
 Vibration     2          0.594              1.982              5.410
 Vibration     3          0.599              1.967              4.083
 Vibration     4          0.599              1.965              3.978
 Vibration     5          0.604              1.948              3.417
 Vibration     6          0.612              1.923              2.934
 Vibration     7          0.624              1.883              2.469
 Vibration     8          0.633              1.854              2.234
 Vibration     9          0.640              1.834              2.097
 Vibration    10          0.647              1.810              1.954
 Vibration    11          0.653              1.794              1.872
 Vibration    12          0.655              1.787              1.837
 Vibration    13          0.663              1.762              1.726
 Vibration    14          0.674              1.728              1.595
 Vibration    15          0.689              1.685              1.452
 Vibration    16          0.697              1.660              1.376
 Vibration    17          0.737              1.549              1.110
 Vibration    18          0.742              1.533              1.079
 Vibration    19          0.757              1.493              1.002
 Vibration    20          0.784              1.422              0.885
 Vibration    21          0.833              1.303              0.720
 Vibration    22          0.871              1.214              0.618
 Vibration    23          0.872              1.212              0.617
 Vibration    24          0.926              1.096              0.504
 Vibration    25          0.967              1.014              0.435

 Optimization completed.
    -- Stationary point found.
 Normal termination of Gaussian 16 at Sun Dec 13 12:40:16 2020.

 ----------------------------------------------------------------------
 # B3LYP/6-311++G(d,p) empiricaldispersion=gd3bj scf=xqc pop=npa geom=c
 heck
 ----------------------------------------------------------------------

 ---------------------------------------
 CID_134090412_JID_8557_Energie_neutraal
 ---------------------------------------
 Structure from the checkpoint file:  "JID_8557.chk"
 Charge =  0 Multiplicity = 1

 SCF Done:  E(RB3LYP) =  -839.310830434     A.U. after   15 cycles
 Normal termination of Gaussian 16 at Sun Dec 13 12:46:11 2020.

 ----------------------------------------------------------------------
 # B3LYP/6-311++G(d,p) empiricaldispersion=gd3bj scf=xqc pop=npa geom=c
 heck
 ----------------------------------------------------------------------

 -------------------------------------
 CID_134090412_JID_8557_Energie_kation
 -------------------------------------
 Structure from the checkpoint file:  "JID_8557.chk"
 Charge =  1 Multiplicity = 2

 SCF Done:  E(UB3LYP) =  -839.018084235     A.U. after   23 cycles
 Normal termination of Gaussian 16 at Sun Dec 13 12:58:27 2020.
 Gaussian 16:  ES64L-G16RevA.03 25-Dec-2016

 ----------------------------------------------------------------------
 # B3LYP/6-311++G(d,p) empiricaldispersion=gd3bj scf=xqc pop=npa geom=c
 heck
 ----------------------------------------------------------------------

 ------------------------------------
 CID_134090412_JID_8557_Energie_anion
 ------------------------------------
 Structure from the checkpoint file:  "JID_8557.chk"
 Charge = -1 Multiplicity = 2

                         Standard orientation:
 ---------------------------------------------------------------------
 Center     Atomic      Atomic             Coordinates (Angstroms)
 Number     Number       Type             X           Y           Z
 ---------------------------------------------------------------------
      1          6           0        3.926093    2.215463    0.000371
      2          6           0        2.943352    1.094230    0.000199
      3          7           0        1.675988    1.314809    0.000397
      4          7           0        1.010139    0.075649    0.000229
      5          6           0        1.895625   -0.996540   -0.000121
      6          8           0        1.630023   -2.185349   -0.000303
      7          6           0        3.295435   -0.372413   -0.000141
      8          6           0        4.052035   -0.805758    1.268147
      9          6           0        4.051686   -0.805206   -1.268831
     10          6           0       -0.398483    0.065275    0.000153
     11          6           0       -1.092903    1.286492   -0.000206
     12          6           0       -2.479197    1.287652   -0.000271
     13          6           0       -3.197227    0.084733    0.000005
     14          6           0       -2.495865   -1.127598    0.000363
     15          6           0       -1.106595   -1.148193    0.000452
     16          6           0       -4.674378    0.150994   -0.000080
     17          8           0       -5.330048    1.175480   -0.000293
     18          8           0       -5.263911   -1.075042    0.000103
     19          1           0        4.576370    2.165196   -0.881682
     20          1           0        4.576090    2.165150    0.882633
     21          1           0        3.402704    3.174247    0.000330
     22          1           0        4.107986   -1.898058    1.296437
     23          1           0        5.068819   -0.399729    1.267713
     24          1           0        3.540829   -0.464143    2.173970
     25          1           0        3.540228   -0.463199   -2.174364
     26          1           0        5.068470   -0.399175   -1.268501
     27          1           0        4.107630   -1.897493   -1.297606
     28          1           0       -0.535277    2.213198   -0.000409
     29          1           0       -3.029988    2.222022   -0.000543
     30          1           0       -3.043607   -2.062940    0.000586
     31          1           0       -0.566487   -2.083893    0.000710
     32          1           0       -6.222627   -0.899880    0.000042
 ---------------------------------------------------------------------

 SCF Done:  E(UB3LYP) =  -839.319137814     A.U. after   33 cycles
 SCF Done:  E(UB3LYP) =  -839.319137814     a.u. after    1 cycles

 The electronic state is 2-A.
 Alpha  occ. eigenvalues --  -19.02885 -18.95967 -18.95529 -14.25825 -14.23672
 Alpha  occ. eigenvalues --  -10.14039 -10.12697 -10.11025 -10.09248 -10.09117
 Alpha  occ. eigenvalues --  -10.07463 -10.07463 -10.07324 -10.03341 -10.03224
 Alpha  occ. eigenvalues --  -10.02948 -10.02782 -10.02559  -0.96421  -0.93643
 Alpha  occ. eigenvalues --   -0.88862  -0.86922  -0.76269  -0.71184  -0.70065
 Alpha  occ. eigenvalues --   -0.64779  -0.61636  -0.60606  -0.60198  -0.56700
 Alpha  occ. eigenvalues --   -0.51599  -0.48896  -0.46698  -0.44394  -0.43219
 Alpha  occ. eigenvalues --   -0.40240  -0.37501  -0.36880  -0.35584  -0.34807
 Alpha  occ. eigenvalues --   -0.33721  -0.33174  -0.32309  -0.31894  -0.31241
 Alpha  occ. eigenvalues --   -0.31058  -0.30275  -0.29797  -0.29456  -0.28576
 Alpha  occ. eigenvalues --   -0.27646  -0.26880  -0.26277  -0.26204  -0.24079
 Alpha  occ. eigenvalues --   -0.23816  -0.22640  -0.20889  -0.18924  -0.18883
 Alpha  occ. eigenvalues --   -0.15711  -0.13781  -0.12804  -0.12172  -0.09026
 Alpha  occ. eigenvalues --    0.04470
 Alpha virt. eigenvalues --    0.06003   0.07404   0.08216   0.08373   0.09068
 Alpha virt. eigenvalues --    0.09848   0.11149   0.11429   0.11695   0.12010
 Alpha virt. eigenvalues --    0.12263   0.12488   0.12874   0.13633   0.14114

  Beta  occ. eigenvalues --  -19.02829 -18.95600 -18.95297 -14.25961 -14.23583
  Beta  occ. eigenvalues --  -10.13817 -10.12347 -10.11033 -10.09281 -10.09116
  Beta  occ. eigenvalues --  -10.07414 -10.07413 -10.07025 -10.03276 -10.03257
  Beta  occ. eigenvalues --  -10.02811 -10.02805 -10.02413  -0.96176  -0.93350
  Beta  occ. eigenvalues --   -0.88391  -0.86570  -0.76134  -0.70995  -0.69841
  Beta  occ. eigenvalues --   -0.64616  -0.61331  -0.60310  -0.60100  -0.56344
  Beta  occ. eigenvalues --   -0.51234  -0.48807  -0.46514  -0.44322  -0.42966
  Beta  occ. eigenvalues --   -0.40132  -0.37301  -0.36572  -0.35492  -0.34567
  Beta  occ. eigenvalues --   -0.33460  -0.33060  -0.32109  -0.31756  -0.31086
  Beta  occ. eigenvalues --   -0.30184  -0.29942  -0.29659  -0.29321  -0.28478
  Beta  occ. eigenvalues --   -0.27519  -0.26743  -0.26053  -0.26042  -0.23865
  Beta  occ. eigenvalues --   -0.22331  -0.21989  -0.20793  -0.18789  -0.17916
  Beta  occ. eigenvalues --   -0.14805  -0.13545  -0.12556  -0.11512  -0.08071
  Beta virt. eigenvalues --    0.05928   0.08150   0.08157   0.08443   0.09059
  Beta virt. eigenvalues --    0.09773   0.09971   0.11071   0.11369   0.11794
  Beta virt. eigenvalues --    0.11984   0.12284   0.12818   0.12829   0.13633

 Mulliken charges and spin densities:
               1          2
     1  C   -0.699029   0.002754
     2  C   -0.880417  -0.045217
     3  N    0.257476   0.049836
     4  N    0.029938  -0.072933
     5  C   -0.819057   0.164024
     6  O   -0.376614   0.128641
     7  C    1.569333   0.268849
     8  C   -0.382048  -0.119178
     9  C   -0.382251  -0.119026
    10  C   -0.258950   0.170108
    11  C   -0.421371  -0.037803
    12  C   -0.390001   0.160091
    13  C    0.428570   0.021662
    14  C   -0.423857   0.103179
    15  C   -0.241965  -0.018246
    16  C    0.333201   0.147016
    17  O   -0.413351   0.083502
    18  O   -0.225797   0.012916
    19  H    0.144215  -0.002686
    20  H    0.144237  -0.002688
    21  H    0.156405   0.000006
    22  H    0.166892   0.001906
    23  H    0.098338   0.040839
    24  H    0.147300   0.016961
    25  H    0.147316   0.016961
    26  H    0.098432   0.040754
    27  H    0.166892   0.001899
    28  H    0.190613   0.001860
    29  H    0.177976  -0.008611
    30  H    0.171276  -0.004271
    31  H    0.221547  -0.002306
    32  H    0.264751  -0.000796
 Sum of Mulliken charges =  -1.00000   1.00000

 Dipole moment (field-independent basis, Debye):
    X=              8.1903    Y=              1.0852    Z=              0.0003  Tot=              8.2618
 Quadrupole moment (field-independent basis, Debye-Ang):
   XX=           -162.7882   YY=           -127.4374   ZZ=           -114.5684
   XY=             18.8120   XZ=             -0.0029   YZ=             -0.0021

 Summary of Natural Population Analysis:

                                       Natural Population
                Natural  -----------------------------------------------
    Atom  No    Charge         Core      Valence    Rydberg      Total
 -----------------------------------------------------------------------
      C    1   -0.30324      0.99962     2.29927    0.00435     3.30324
      C    2    0.11977      0.99958     1.86336    0.01728     2.88023
      N    3   -0.11858      0.99964     2.60770    0.01124     3.61858
      N    4   -0.16976      0.99959     2.65840    0.01177     3.66976
      C    5    0.39225      0.99961     1.58333    0.02481     2.60775
      O    6   -0.28264      0.99987     3.27683    0.00594     4.28264
      C    7   -0.10307      0.99951     2.09204    0.01151     3.10307
      C    8   -0.27273      0.99964     2.26759    0.00550     3.27273
      C    9   -0.27273      0.99964     2.26759    0.00550     3.27273
      C   10    0.13288      0.99949     1.85752    0.01011     2.86712
      C   11   -0.13466      0.99955     2.12722    0.00790     3.13466
      C   12   -0.04882      0.99955     2.04043    0.00883     3.04882
      C   13   -0.07319      0.99945     2.06384    0.00990     3.07319
      C   14   -0.06245      0.99956     2.05425    0.00864     3.06245
      C   15   -0.13182      0.99954     2.12407    0.00820     3.13182
      C   16    0.42154      0.99966     1.55422    0.02459     2.57846
      O   17   -0.31383      0.99987     3.30620    0.00776     4.31383
      O   18   -0.35392      0.99988     3.34817    0.00587     4.35392
      H   19    0.10118      0.00000     0.39776    0.00106     0.39882
      H   20    0.10118      0.00000     0.39776    0.00106     0.39882
      H   21    0.10979      0.00000     0.38901    0.00120     0.39021
      H   22    0.10728      0.00000     0.39166    0.00106     0.39272
      H   23    0.09208      0.00000     0.40700    0.00092     0.40792
      H   24    0.10223      0.00000     0.39680    0.00098     0.39777
      H   25    0.10223      0.00000     0.39680    0.00098     0.39777
      H   26    0.09208      0.00000     0.40700    0.00092     0.40792
      H   27    0.10728      0.00000     0.39166    0.00106     0.39272
      H   28    0.10731      0.00000     0.39172    0.00096     0.39269
      H   29    0.10288      0.00000     0.39607    0.00106     0.39712
      H   30    0.10077      0.00000     0.39819    0.00104     0.39923
      H   31    0.11809      0.00000     0.38072    0.00119     0.38191
      H   32    0.23065      0.00000     0.26607    0.00329     0.26935
 =======================================================================
   * Total *   -0.00000     17.99325    46.80025    0.20649    65.00000

 Normal termination of Gaussian 16 at Sun Dec 13 13:16:15 2020.
