 Gaussian 16, Revision A.03,

 -----------------------------------------------------------
 # opt freq B3LYP/6-31G(d) empiricaldispersion=gd3bj scf=xqc
 -----------------------------------------------------------

 ------------------------------
 CID_83918117_JID_5564_neutraal
 ------------------------------
 Symbolic Z-matrix:
 Charge =  0 Multiplicity = 1

 SCF Done:  E(RB3LYP) =  -1102.21541624     A.U. after   15 cycles
 SCF Done:  E(RB3LYP) =  -1102.22031358     A.U. after   13 cycles
 SCF Done:  E(RB3LYP) =  -1102.21975293     A.U. after   13 cycles
 SCF Done:  E(RB3LYP) =  -1102.22090815     A.U. after   12 cycles
 SCF Done:  E(RB3LYP) =  -1102.22104114     A.U. after   11 cycles
 SCF Done:  E(RB3LYP) =  -1102.22106806     A.U. after   10 cycles
 SCF Done:  E(RB3LYP) =  -1102.22107762     A.U. after   10 cycles
 SCF Done:  E(RB3LYP) =  -1102.22108259     A.U. after   10 cycles
 SCF Done:  E(RB3LYP) =  -1102.22108435     A.U. after    9 cycles
 SCF Done:  E(RB3LYP) =  -1102.22108550     A.U. after    9 cycles
 SCF Done:  E(RB3LYP) =  -1102.22108555     A.U. after    7 cycles
 Optimization completed.
    -- Stationary point found.
 Normal termination of Gaussian 16 at Thu Dec 10 16:02:12 2020.

 --------------------------------------------------------------------
 #N Geom=AllCheck Guess=TCheck SCRF=Check GenChk RB3LYP/6-31G(d) Freq
 --------------------------------------------------------------------

 Structure from the checkpoint file:  "JID_5564.chk"
 ------------------------------
 CID_83918117_JID_5564_neutraal
 ------------------------------
 Charge =  0 Multiplicity = 1

 SCF Done:  E(RB3LYP) =  -1102.22108555     A.U. after    1 cycles

  Exact polarizability: 156.613   3.256 133.441  -4.984   0.963  71.257
 Approx polarizability: 229.486   2.959 231.470 -11.583  -0.726 123.518

                      1                      2                      3
                      A                      A                      A
 Frequencies --     33.8515                65.7111                69.1652
 Red. masses --     10.2691                 7.0454                 4.6893
 Frc consts  --      0.0069                 0.0179                 0.0132
 IR Inten    --      0.2629                 4.8422                 2.4779

                      4                      5                      6
                      A                      A                      A
 Frequencies --    170.6756               182.8951               204.7516
 Red. masses --      4.0676                 8.8893                 3.3726
 Frc consts  --      0.0698                 0.1752                 0.0833
 IR Inten    --      1.0624                 1.1997                 2.3725

                      7                      8                      9
                      A                      A                      A
 Frequencies --    232.5299               264.1242               280.2538
 Red. masses --      5.2596                 3.5864                 3.7464
 Frc consts  --      0.1676                 0.1474                 0.1734
 IR Inten    --      3.3676                 1.8299                 2.8599

                     10                     11                     12
                      A                      A                      A
 Frequencies --    314.6915               336.4935               382.5571
 Red. masses --      4.7067                 3.5472                 7.5444
 Frc consts  --      0.2746                 0.2366                 0.6505
 IR Inten    --      2.6646                 3.9149                 5.1808

                     13                     14                     15
                      A                      A                      A
 Frequencies --    424.2896               442.9112               458.9668
 Red. masses --      5.2058                 4.0139                 3.5456
 Frc consts  --      0.5522                 0.4639                 0.4401
 IR Inten    --     17.4665                16.0210                 9.5052

                     16                     17                     18
                      A                      A                      A
 Frequencies --    505.8464               512.0225               541.1821
 Red. masses --      5.2802                 6.6410                 5.2803
 Frc consts  --      0.7960                 1.0258                 0.9112
 IR Inten    --     18.2039                 9.3744                 1.8636

                     19                     20                     21
                      A                      A                      A
 Frequencies --    598.0345               618.7077               663.2895
 Red. masses --      4.6988                 1.2701                 3.9002
 Frc consts  --      0.9901                 0.2864                 1.0110
 IR Inten    --     29.1565               102.1056                 7.7672

                     22                     23                     24
                      A                      A                      A
 Frequencies --    682.5692               694.0616               740.8961
 Red. masses --      4.0111                 3.0879                 4.0413
 Frc consts  --      1.1011                 0.8764                 1.3070
 IR Inten    --     35.3874                28.9808                 4.1700

                     25                     26                     27
                      A                      A                      A
 Frequencies --    786.4145               796.6476               814.8140
 Red. masses --      4.8316                 3.1383                 4.8925
 Frc consts  --      1.7605                 1.1735                 1.9138
 IR Inten    --     20.4473                20.2813                27.0193

                     28                     29                     30
                      A                      A                      A
 Frequencies --    881.6711               898.7496               949.3310
 Red. masses --      2.5705                 1.9588                 1.5624
 Frc consts  --      1.1773                 0.9322                 0.8296
 IR Inten    --      3.2830                27.3076                 7.1331

                     31                     32                     33
                      A                      A                      A
 Frequencies --    975.7809               989.5504               997.7184
 Red. masses --      4.3506                 1.5635                 1.9019
 Frc consts  --      2.4406                 0.9021                 1.1155
 IR Inten    --      7.8852                 0.3808                 0.8168

                     34                     35                     36
                      A                      A                      A
 Frequencies --   1043.6683              1113.2259              1159.0974
 Red. masses --      2.4673                 6.3011                 1.9241
 Frc consts  --      1.5834                 4.6008                 1.5231
 IR Inten    --      7.6457               168.4555                83.1629

                     37                     38                     39
                      A                      A                      A
 Frequencies --   1171.6347              1190.2225              1202.6206
 Red. masses --      1.7365                 3.5239                 1.2719
 Frc consts  --      1.4044                 2.9413                 1.0838
 IR Inten    --    151.1963                 4.2671                87.0656

                     40                     41                     42
                      A                      A                      A
 Frequencies --   1220.0099              1240.1310              1258.7649
 Red. masses --      2.6114                 1.5344                 1.9563
 Frc consts  --      2.2901                 1.3904                 1.8263
 IR Inten    --     63.4297                44.9986                18.6119

                     43                     44                     45
                      A                      A                      A
 Frequencies --   1268.1730              1312.5692              1320.5084
 Red. masses --      1.5743                 5.0275                 3.8172
 Frc consts  --      1.4918                 5.1032                 3.9217
 IR Inten    --     22.4457                 3.7444               103.1724

                     46                     47                     48
                      A                      A                      A
 Frequencies --   1339.0356              1360.8631              1393.8787
 Red. masses --      1.5859                 1.6945                 1.9022
 Frc consts  --      1.6753                 1.8489                 2.1775
 IR Inten    --      6.9548                44.8999                47.5289

                     49                     50                     51
                      A                      A                      A
 Frequencies --   1400.0535              1462.7274              1466.7873
 Red. masses --      1.8982                 1.7933                 1.1757
 Frc consts  --      2.1922                 2.2606                 1.4903
 IR Inten    --     57.6476                 8.5182                 0.3105

                     52                     53                     54
                      A                      A                      A
 Frequencies --   1475.2476              1488.1527              1512.3091
 Red. masses --      1.1739                 1.0986                 2.7542
 Frc consts  --      1.5053                 1.4335                 3.7113
 IR Inten    --     29.8329                10.0468                44.3888

                     55                     56                     57
                      A                      A                      A
 Frequencies --   1617.5157              1631.4511              1812.8129
 Red. masses --      6.8357                 5.1075                 9.6280
 Frc consts  --     10.5373                 8.0095                18.6420
 IR Inten    --     39.5487                25.6337               275.1941

                     58                     59                     60
                      A                      A                      A
 Frequencies --   3075.9595              3085.6378              3090.3280
 Red. masses --      1.0606                 1.0689                 1.0604
 Frc consts  --      5.9126                 5.9959                 5.9665
 IR Inten    --      1.9257                 0.8789                 6.1777

                     61                     62                     63
                      A                      A                      A
 Frequencies --   3132.4800              3143.3303              3149.7977
 Red. masses --      1.1040                 1.0940                 1.1058
 Frc consts  --      6.3823                 6.3687                 6.4638
 IR Inten    --      0.2283                 0.5334                 1.5723

                     64                     65                     66
                      A                      A                      A
 Frequencies --   3163.0679              3228.9535              3698.6401
 Red. masses --      1.0905                 1.0913                 1.0643
 Frc consts  --      6.4281                 6.7040                 8.5779
 IR Inten    --     19.3230                 2.9795                90.9244

 - Thermochemistry -
 -------------------
 Temperature   298.150 Kelvin.  Pressure   1.00000 Atm.
 Atom     1 has atomic number  6 and mass  12.00000

 Molecular mass:   227.02523 amu.
 Principal axes and moments of inertia in atomic units:
                           1         2         3
     Eigenvalues --  1679.448004884.976716127.46518
           X            0.99998   0.00397  -0.00551
           Y           -0.00393   0.99996   0.00753
           Z            0.00554  -0.00751   0.99996
 This molecule is an asymmetric top.
 Rotational symmetry number  1.
 Warning -- assumption of classical behavior for rotation
           may cause significant error
 Rotational temperatures (Kelvin)      0.05157     0.01773     0.01414
 Rotational constants (GHZ):           1.07460     0.36945     0.29453
 Zero-point vibrational energy     470974.6 (Joules/Mol)
                                  112.56564 (Kcal/Mol)
 Warning -- explicit consideration of  20 degrees of freedom as
           vibrations may cause significant error
 Vibrational temperatures:     48.70    94.54    99.51   245.56   263.15
          (Kelvin)            294.59   334.56   380.02   403.22   452.77
                              484.14   550.41   610.46   637.25   660.35
                              727.80   736.69   778.64   860.44   890.18
                              954.33   982.06   998.60  1065.98  1131.48
                             1146.20  1172.34  1268.53  1293.10  1365.88
                             1403.93  1423.74  1435.49  1501.61  1601.68
                             1667.68  1685.72  1712.46  1730.30  1755.32
                             1784.27  1811.08  1824.62  1888.49  1899.92
                             1926.57  1957.98  2005.48  2014.36  2104.54
                             2110.38  2122.55  2141.12  2175.88  2327.24
                             2347.29  2608.23  4425.62  4439.54  4446.29
                             4506.94  4522.55  4531.86  4550.95  4645.74
                             5321.52

 Zero-point correction=                           0.179385 (Hartree/Particle)
 Thermal correction to Energy=                    0.191958
 Thermal correction to Enthalpy=                  0.192902
 Thermal correction to Gibbs Free Energy=         0.139522
 Sum of electronic and zero-point Energies=          -1102.041701
 Sum of electronic and thermal Energies=             -1102.029128
 Sum of electronic and thermal Enthalpies=           -1102.028184
 Sum of electronic and thermal Free Energies=        -1102.081563

                     E (Thermal)             CV                S
                      KCal/Mol        Cal/Mol-Kelvin    Cal/Mol-Kelvin
 Total                  120.455             48.633            112.347
 Electronic               0.000              0.000              0.000
 Translational            0.889              2.981             42.162
 Rotational               0.889              2.981             32.286
 Vibrational            118.678             42.672             37.899
 Vibration     1          0.594              1.983              5.590
 Vibration     2          0.597              1.971              4.278
 Vibration     3          0.598              1.969              4.177
 Vibration     4          0.626              1.879              2.428
 Vibration     5          0.630              1.863              2.299
 Vibration     6          0.640              1.833              2.090
 Vibration     7          0.653              1.791              1.859
 Vibration     8          0.671              1.739              1.634
 Vibration     9          0.680              1.710              1.532
 Vibration    10          0.702              1.646              1.338
 Vibration    11          0.717              1.603              1.229
 Vibration    12          0.752              1.507              1.029
 Vibration    13          0.786              1.417              0.878
 Vibration    14          0.803              1.377              0.818
 Vibration    15          0.817              1.341              0.769
 Vibration    16          0.861              1.237              0.644
 Vibration    17          0.867              1.223              0.629
 Vibration    18          0.896              1.159              0.563
 Vibration    19          0.956              1.036              0.453
 Vibration    20          0.979              0.992              0.419

 Optimization completed.
    -- Stationary point found.
 Normal termination of Gaussian 16 at Thu Dec 10 16:09:37 2020.

 ----------------------------------------------------------------------
 # B3LYP/6-311++G(d,p) empiricaldispersion=gd3bj scf=xqc pop=npa geom=c
 heck
 ----------------------------------------------------------------------

 --------------------------------------
 CID_83918117_JID_5564_Energie_neutraal
 --------------------------------------
 Structure from the checkpoint file:  "JID_5564.chk"
 Charge =  0 Multiplicity = 1

 SCF Done:  E(RB3LYP) =  -1102.45039030     A.U. after   16 cycles
 Normal termination of Gaussian 16 at Thu Dec 10 16:12:42 2020.

 ----------------------------------------------------------------------
 # B3LYP/6-311++G(d,p) empiricaldispersion=gd3bj scf=xqc pop=npa geom=c
 heck
 ----------------------------------------------------------------------

 ------------------------------------
 CID_83918117_JID_5564_Energie_kation
 ------------------------------------
 Structure from the checkpoint file:  "JID_5564.chk"
 Charge =  1 Multiplicity = 2

 SCF Done:  E(UB3LYP) =  -1102.10241231     A.U. after   29 cycles
 Normal termination of Gaussian 16 at Thu Dec 10 16:21:26 2020.
 Gaussian 16:  ES64L-G16RevA.03 25-Dec-2016

 ----------------------------------------------------------------------
 # B3LYP/6-311++G(d,p) empiricaldispersion=gd3bj scf=xqc pop=npa geom=c
 heck
 ----------------------------------------------------------------------

 -----------------------------------
 CID_83918117_JID_5564_Energie_anion
 -----------------------------------
 Structure from the checkpoint file:  "JID_5564.chk"
 Charge = -1 Multiplicity = 2

                         Standard orientation:
 ---------------------------------------------------------------------
 Center     Atomic      Atomic             Coordinates (Angstroms)
 Number     Number       Type             X           Y           Z
 ---------------------------------------------------------------------
      1          6           0        0.130906   -1.376992   -0.252387
      2          6           0        1.568614   -1.420116   -0.767865
      3         16           0        2.600272   -0.260305    0.146418
      4          8           0        2.383892   -0.483951    1.584181
      5          8           0        3.954887   -0.234447   -0.422208
      6          6           0        1.747243    1.259363   -0.339455
      7          6           0        0.243992    1.187119   -0.174943
      8          6           0       -0.425880    2.409266   -0.040637
      9          7           0       -1.745499    2.550389    0.074756
     10          6           0       -2.461866    1.425537    0.077094
     11          6           0       -1.908768    0.141581   -0.025894
     12          6           0       -0.506705   -0.002252   -0.168075
     13          6           0       -2.822566   -1.031022    0.046831
     14          8           0       -2.491780   -2.196567    0.151188
     15          8           0       -4.129707   -0.672299   -0.006325
     16          1           0       -0.482826   -2.031180   -0.873003
     17          1           0        0.101302   -1.821699    0.748238
     18          1           0        1.655884   -1.147764   -1.824368
     19          1           0        2.009258   -2.410768   -0.626514
     20          1           0        2.175106    2.053399    0.279856
     21          1           0        2.040755    1.447556   -1.377939
     22          1           0        0.154962    3.331176   -0.027642
     23          1           0       -3.535956    1.538343    0.176679
     24          1           0       -4.632502   -1.503697    0.075998
 ---------------------------------------------------------------------

 SCF Done:  E(UB3LYP) =  -1102.47936061     A.U. after   23 cycles

 The electronic state is 2-A.
 Alpha  occ. eigenvalues --  -88.93336 -19.02478 -19.00939 -19.00486 -18.95075
 Alpha  occ. eigenvalues --  -14.15831 -10.13731 -10.10384 -10.10174 -10.06275
 Alpha  occ. eigenvalues --  -10.05803 -10.05563 -10.05308 -10.04371 -10.02900
 Alpha  occ. eigenvalues --   -7.99896  -5.96168  -5.96041  -5.95980  -0.99955
 Alpha  occ. eigenvalues --   -0.96328  -0.89687  -0.86798  -0.79767  -0.72907
 Alpha  occ. eigenvalues --   -0.67205  -0.66068  -0.61420  -0.55234  -0.52373
 Alpha  occ. eigenvalues --   -0.50571  -0.45997  -0.44323  -0.39645  -0.39097
 Alpha  occ. eigenvalues --   -0.37545  -0.36809  -0.35059  -0.34487  -0.34160
 Alpha  occ. eigenvalues --   -0.33332  -0.31827  -0.31188  -0.30393  -0.28486
 Alpha  occ. eigenvalues --   -0.27717  -0.25686  -0.25054  -0.24194  -0.23362
 Alpha  occ. eigenvalues --   -0.22521  -0.21533  -0.19780  -0.18845  -0.18075
 Alpha  occ. eigenvalues --   -0.14356  -0.13786  -0.12613  -0.11253   0.03439
 Alpha virt. eigenvalues --    0.08271   0.09154   0.09714   0.10435   0.11063
 Alpha virt. eigenvalues --    0.11928   0.12510   0.12717   0.13044   0.14065
 Alpha virt. eigenvalues --    0.14929   0.15734   0.16452   0.16828   0.17374

  Beta  occ. eigenvalues --  -88.93337 -19.02405 -19.00940 -19.00479 -18.94719
  Beta  occ. eigenvalues --  -14.15820 -10.13468 -10.10380 -10.10166 -10.06300
  Beta  occ. eigenvalues --  -10.05931 -10.05459 -10.04977 -10.03891 -10.02696
  Beta  occ. eigenvalues --   -7.99897  -5.96168  -5.96042  -5.95983  -0.99952
  Beta  occ. eigenvalues --   -0.95999  -0.89681  -0.86277  -0.79401  -0.72772
  Beta  occ. eigenvalues --   -0.67134  -0.65630  -0.60947  -0.54976  -0.51826
  Beta  occ. eigenvalues --   -0.50362  -0.45768  -0.44057  -0.39571  -0.38986
  Beta  occ. eigenvalues --   -0.37421  -0.36674  -0.34760  -0.34221  -0.34011
  Beta  occ. eigenvalues --   -0.33091  -0.31716  -0.30523  -0.29783  -0.28331
  Beta  occ. eigenvalues --   -0.27345  -0.25385  -0.24515  -0.23527  -0.23194
  Beta  occ. eigenvalues --   -0.22437  -0.21528  -0.19762  -0.18164  -0.17326
  Beta  occ. eigenvalues --   -0.13662  -0.12864  -0.11138  -0.10842
  Beta virt. eigenvalues --    0.08252   0.09155   0.09636   0.09933   0.10712
  Beta virt. eigenvalues --    0.11362   0.11915   0.12521   0.12881   0.13078
  Beta virt. eigenvalues --    0.14055   0.14968   0.15755   0.16780   0.17146

 Mulliken charges and spin densities:
               1          2
     1  C   -0.838992   0.016601
     2  C   -0.856767  -0.031502
     3  S    0.649752   0.009239
     4  O   -0.272821  -0.001551
     5  O   -0.207461  -0.002660
     6  C   -1.279248   0.022136
     7  C    0.460410  -0.095696
     8  C   -0.791033   0.362073
     9  N   -0.051527  -0.010799
    10  C   -0.497839   0.077292
    11  C    0.183312   0.162731
    12  C    1.176754   0.201060
    13  C    0.044464   0.169014
    14  O   -0.397767   0.117532
    15  O   -0.218829   0.014537
    16  H    0.190528   0.007775
    17  H    0.245669   0.007506
    18  H    0.219743  -0.000526
    19  H    0.233650   0.007367
    20  H    0.221827   0.007446
    21  H    0.231078  -0.003574
    22  H    0.126306  -0.030918
    23  H    0.170838  -0.004768
    24  H    0.257952  -0.000313
 Sum of Mulliken charges =  -1.00000   1.00000

 Dipole moment (field-independent basis, Debye):
    X=              1.7171    Y=             -1.6701    Z=             -2.7630  Tot=              3.6567
 Quadrupole moment (field-independent basis, Debye-Ang):
   XX=           -140.3479   YY=           -117.9908   ZZ=           -103.9711
   XY=              7.0127   XZ=             -4.2677   YZ=              2.6043

 Summary of Natural Population Analysis:

                                       Natural Population
                Natural  -----------------------------------------------
    Atom  No    Charge         Core      Valence    Rydberg      Total
 -----------------------------------------------------------------------
      C    1   -0.21790      0.99960     2.20919    0.00911     3.21790
      C    2   -0.28672      0.99959     2.27714    0.00999     3.28672
      S    3    1.02112      4.99926     1.88291    0.09670     6.97888
      O    4   -0.46750      0.99991     3.46141    0.00618     4.46750
      O    5   -0.47829      0.99991     3.47240    0.00599     4.47829
      C    6   -0.28818      0.99955     2.27736    0.01127     3.28818
      C    7   -0.09019      0.99947     2.08222    0.00850     3.09019
      C    8    0.12281      0.99954     1.86192    0.01572     2.87719
      N    9   -0.24932      0.99971     2.73605    0.01356     3.74932
      C   10    0.06456      0.99957     1.92125    0.01461     2.93544
      C   11   -0.06768      0.99942     2.05888    0.00938     3.06768
      C   12    0.08172      0.99946     1.91063    0.00819     2.91828
      C   13    0.42926      0.99968     1.54718    0.02389     2.57074
      O   14   -0.30346      0.99987     3.29637    0.00722     4.30346
      O   15   -0.35325      0.99988     3.34733    0.00605     4.35325
      H   16    0.12356      0.00000     0.37511    0.00134     0.37644
      H   17    0.12085      0.00000     0.37776    0.00139     0.37915
      H   18    0.10818      0.00000     0.39059    0.00123     0.39182
      H   19    0.11321      0.00000     0.38553    0.00126     0.38679
      H   20    0.11740      0.00000     0.38103    0.00157     0.38260
      H   21    0.11003      0.00000     0.38861    0.00136     0.38997
      H   22    0.07158      0.00000     0.42687    0.00154     0.42842
      H   23    0.09033      0.00000     0.40823    0.00144     0.40967
      H   24    0.22788      0.00000     0.26654    0.00558     0.27212
 =======================================================================
   * Total *    0.00000     18.99443    39.74252    0.26305    59.00000

 Normal termination of Gaussian 16 at Thu Dec 10 16:27:16 2020.
