 Gaussian 16, Revision A.03,

 -----------------------------------------------------------
 # opt freq B3LYP/6-31G(d) empiricaldispersion=gd3bj scf=xqc
 -----------------------------------------------------------

 ------------------------------
 CID_80839563_JID_7389_neutraal
 ------------------------------
 Symbolic Z-matrix:
 Charge =  0 Multiplicity = 1

 SCF Done:  E(RB3LYP) =  -727.693492908     A.U. after   14 cycles
 SCF Done:  E(RB3LYP) =  -727.699374119     A.U. after   12 cycles
 SCF Done:  E(RB3LYP) =  -727.701424969     A.U. after   12 cycles
 SCF Done:  E(RB3LYP) =  -727.702625199     A.U. after   12 cycles
 SCF Done:  E(RB3LYP) =  -727.703029866     A.U. after   12 cycles
 SCF Done:  E(RB3LYP) =  -727.703502362     A.U. after   12 cycles
 SCF Done:  E(RB3LYP) =  -727.703819187     A.U. after   11 cycles
 SCF Done:  E(RB3LYP) =  -727.704077690     A.U. after   12 cycles
 SCF Done:  E(RB3LYP) =  -727.704170645     A.U. after   11 cycles
 SCF Done:  E(RB3LYP) =  -727.704273607     A.U. after   11 cycles
 SCF Done:  E(RB3LYP) =  -727.704823360     A.U. after   10 cycles
 SCF Done:  E(RB3LYP) =  -727.704825124     A.U. after    9 cycles
 SCF Done:  E(RB3LYP) =  -727.704825500     A.U. after    9 cycles
 SCF Done:  E(RB3LYP) =  -727.704825531     A.U. after    7 cycles
 SCF Done:  E(RB3LYP) =  -727.704825550     A.U. after    7 cycles
 SCF Done:  E(RB3LYP) =  -727.704825558     A.U. after    6 cycles
 Optimization completed.
    -- Stationary point found.
 Normal termination of Gaussian 16 at Sun Dec 13 20:33:32 2020.

 --------------------------------------------------------------------
 #N Geom=AllCheck Guess=TCheck SCRF=Check GenChk RB3LYP/6-31G(d) Freq
 --------------------------------------------------------------------

 Structure from the checkpoint file:  "JID_7389.chk"
 ------------------------------
 CID_80839563_JID_7389_neutraal
 ------------------------------
 Charge =  0 Multiplicity = 1

 SCF Done:  E(RB3LYP) =  -727.704825558     A.U. after    1 cycles

  Exact polarizability: 198.784   3.321 161.490 -13.256   9.552 126.154
 Approx polarizability: 280.312   5.237 242.194 -27.800  25.352 181.248

                      1                      2                      3
                      A                      A                      A
 Frequencies --     18.9701                27.3443                40.2744
 Red. masses --      3.2909                 3.6767                 3.5365
 Frc consts  --      0.0007                 0.0016                 0.0034
 IR Inten    --      0.2308                 1.1453                 1.0762

                      4                      5                      6
                      A                      A                      A
 Frequencies --     64.4433                89.0674                99.2330
 Red. masses --      2.5648                 3.2765                 3.3085
 Frc consts  --      0.0063                 0.0153                 0.0192
 IR Inten    --      0.1159                 1.5386                 0.7254

                      7                      8                      9
                      A                      A                      A
 Frequencies --    130.4034               149.1457               185.7165
 Red. masses --      2.9778                 3.2975                 1.3951
 Frc consts  --      0.0298                 0.0432                 0.0284
 IR Inten    --      1.4348                 1.4060                 0.1592

                     10                     11                     12
                      A                      A                      A
 Frequencies --    195.4473               202.4493               227.9197
 Red. masses --      1.9390                 1.5273                 2.6866
 Frc consts  --      0.0436                 0.0369                 0.0822
 IR Inten    --      1.2325                 2.8020                 5.0617

                     13                     14                     15
                      A                      A                      A
 Frequencies --    239.1346               250.5663               272.2187
 Red. masses --      2.5892                 1.1480                 2.5651
 Frc consts  --      0.0872                 0.0425                 0.1120
 IR Inten    --      0.5830                 0.2282                 2.0800

                     16                     17                     18
                      A                      A                      A
 Frequencies --    284.8073               319.2390               355.4867
 Red. masses --      2.9338                 2.5994                 1.9824
 Frc consts  --      0.1402                 0.1561                 0.1476
 IR Inten    --      0.5948                 1.6694                14.3684

                     19                     20                     21
                      A                      A                      A
 Frequencies --    393.2652               407.9406               418.3703
 Red. masses --      2.2481                 1.9801                 2.0811
 Frc consts  --      0.2049                 0.1941                 0.2146
 IR Inten    --     14.2195                24.5874                44.3621

                     22                     23                     24
                      A                      A                      A
 Frequencies --    437.1048               449.2921               469.7028
 Red. masses --      1.3839                 2.4931                 1.9594
 Frc consts  --      0.1558                 0.2965                 0.2547
 IR Inten    --     92.9120                 9.0812                25.9358

                     25                     26                     27
                      A                      A                      A
 Frequencies --    502.3086               512.4850               561.0167
 Red. masses --      3.4246                 3.0349                 2.5230
 Frc consts  --      0.5091                 0.4696                 0.4679
 IR Inten    --      5.4450                17.8456                98.2575

                     28                     29                     30
                      A                      A                      A
 Frequencies --    571.7199               590.0499               643.6230
 Red. masses --      4.5291                 1.8830                 2.7670
 Frc consts  --      0.8722                 0.3863                 0.6753
 IR Inten    --      4.7159               153.8908                 7.4718

                     31                     32                     33
                      A                      A                      A
 Frequencies --    705.8613               744.0310               783.8040
 Red. masses --      8.8631                 4.6528                 1.1254
 Frc consts  --      2.6018                 1.5176                 0.4073
 IR Inten    --     14.0038                 2.9713                 0.4369

                     34                     35                     36
                      A                      A                      A
 Frequencies --    811.1086               816.6068               838.7792
 Red. masses --      1.7670                 9.3939                 1.4940
 Frc consts  --      0.6849                 3.6908                 0.6193
 IR Inten    --      4.6023                32.6734                12.8782

                     37                     38                     39
                      A                      A                      A
 Frequencies --    866.7609               887.3904               905.7869
 Red. masses --      2.2824                 2.7221                 1.8645
 Frc consts  --      1.0103                 1.2629                 0.9013
 IR Inten    --      0.1909                 5.6890                 6.0296

                     40                     41                     42
                      A                      A                      A
 Frequencies --    919.6936               939.9657               950.1216
 Red. masses --      3.3801                 1.1873                 2.2438
 Frc consts  --      1.6845                 0.6181                 1.1934
 IR Inten    --      7.6707                 0.4273                 2.7841

                     43                     44                     45
                      A                      A                      A
 Frequencies --    956.1507               973.3779               988.9714
 Red. masses --      2.0743                 1.4543                 1.4434
 Frc consts  --      1.1173                 0.8118                 0.8317
 IR Inten    --      2.2909                 0.1756                 1.2051

                     46                     47                     48
                      A                      A                      A
 Frequencies --   1001.5862              1023.5409              1059.3774
 Red. masses --      1.8402                 2.2027                 1.5421
 Frc consts  --      1.0877                 1.3596                 1.0197
 IR Inten    --     16.8641                12.8716                10.0158

                     49                     50                     51
                      A                      A                      A
 Frequencies --   1070.2476              1081.5496              1090.8410
 Red. masses --      2.0830                 1.3900                 1.5133
 Frc consts  --      1.4057                 0.9580                 1.0610
 IR Inten    --      8.1020                 1.3278                11.6253

                     52                     53                     54
                      A                      A                      A
 Frequencies --   1102.9193              1126.8783              1142.1100
 Red. masses --      2.2747                 1.7527                 2.3852
 Frc consts  --      1.6303                 1.3113                 1.8331
 IR Inten    --     24.3194                 4.7096                 3.2406

                     55                     56                     57
                      A                      A                      A
 Frequencies --   1148.2604              1171.5719              1190.8730
 Red. masses --      1.2349                 1.9470                 1.9165
 Frc consts  --      0.9593                 1.5745                 1.6014
 IR Inten    --      4.1452                39.6121                 3.7107

                     58                     59                     60
                      A                      A                      A
 Frequencies --   1210.1476              1213.6309              1240.1509
 Red. masses --      1.4819                 2.0768                 1.8163
 Frc consts  --      1.2786                 1.8023                 1.6459
 IR Inten    --      2.8724                47.7194                 3.8338

                     61                     62                     63
                      A                      A                      A
 Frequencies --   1245.8524              1273.4343              1311.4996
 Red. masses --      2.7847                 1.7814                 2.5176
 Frc consts  --      2.5466                 1.7020                 2.5514
 IR Inten    --     36.0631                 4.0968                 1.3998

                     64                     65                     66
                      A                      A                      A
 Frequencies --   1320.4985              1344.4443              1362.4518
 Red. masses --      1.4099                 1.3251                 2.7400
 Frc consts  --      1.4485                 1.4112                 2.9967
 IR Inten    --     22.6011                 4.8249                31.8480

                     67                     68                     69
                      A                      A                      A
 Frequencies --   1372.0246              1383.5456              1390.2742
 Red. masses --      1.3924                 1.7089                 1.4930
 Frc consts  --      1.5444                 1.9273                 1.7002
 IR Inten    --     20.5592                 7.1412                 2.9465

                     70                     71                     72
                      A                      A                      A
 Frequencies --   1410.6385              1429.1694              1432.7284
 Red. masses --      1.8589                 1.2679                 1.2118
 Frc consts  --      2.1794                 1.5259                 1.4655
 IR Inten    --     49.0972                15.4895                 4.6505

                     73                     74                     75
                      A                      A                      A
 Frequencies --   1442.6215              1451.2210              1457.3908
 Red. masses --      1.6744                 1.2483                 1.7685
 Frc consts  --      2.0531                 1.5490                 2.2131
 IR Inten    --      8.9133                 9.9866                39.9338

                     76                     77                     78
                      A                      A                      A
 Frequencies --   1493.7513              1496.0376              1512.0564
 Red. masses --      2.1091                 1.0917                 1.1065
 Frc consts  --      2.7727                 1.4396                 1.4905
 IR Inten    --     92.8684                 3.1326                12.8877

                     79                     80                     81
                      A                      A                      A
 Frequencies --   1516.6955              1518.5717              1522.0327
 Red. masses --      1.1965                 1.0561                 1.0498
 Frc consts  --      1.6217                 1.4349                 1.4329
 IR Inten    --     48.1296                 2.7797                 0.8435

                     82                     83                     84
                      A                      A                      A
 Frequencies --   1531.7181              1533.8359              1538.6549
 Red. masses --      1.1159                 1.1261                 1.3631
 Frc consts  --      1.5426                 1.5609                 1.9014
 IR Inten    --     20.0043                 2.3995                 2.1028

                     85                     86                     87
                      A                      A                      A
 Frequencies --   1541.2406              1550.6139              1621.6773
 Red. masses --      1.0712                 2.1786                 4.3606
 Frc consts  --      1.4992                 3.0862                 6.7566
 IR Inten    --      3.9846               133.5051                96.4980

                     88                     89                     90
                      A                      A                      A
 Frequencies --   1641.6211              1671.2504              3001.6115
 Red. masses --      4.5231                 1.2801                 1.0689
 Frc consts  --      7.1818                 2.1065                 5.6741
 IR Inten    --    587.5918               254.8935                39.5149

                     91                     92                     93
                      A                      A                      A
 Frequencies --   3042.2620              3049.6246              3054.3717
 Red. masses --      1.0391                 1.0376                 1.0558
 Frc consts  --      5.6664                 5.6857                 5.8032
 IR Inten    --     30.5977                22.9842                42.2810

                     94                     95                     96
                      A                      A                      A
 Frequencies --   3058.5137              3064.0953              3101.0132
 Red. masses --      1.0618                 1.0918                 1.0969
 Frc consts  --      5.8521                 6.0394                 6.2149
 IR Inten    --     24.5227                21.1425                20.0402

                     97                     98                     99
                      A                      A                      A
 Frequencies --   3110.5433              3118.9259              3125.2760
 Red. masses --      1.1007                 1.1017                 1.0887
 Frc consts  --      6.2749                 6.3144                 6.2651
 IR Inten    --     39.4665                34.3535                28.9670

                    100                    101                    102
                      A                      A                      A
 Frequencies --   3126.6652              3140.3014              3143.2415
 Red. masses --      1.1024                 1.0512                 1.1001
 Frc consts  --      6.3498                 6.1077                 6.4038
 IR Inten    --     28.5557                24.4443                18.2080

                    103                    104                    105
                      A                      A                      A
 Frequencies --   3144.5705              3145.2568              3163.5297
 Red. masses --      1.0992                 1.0586                 1.0892
 Frc consts  --      6.4038                 6.1700                 6.4228
 IR Inten    --     26.6260                13.8554                15.7132

                    106                    107                    108
                      A                      A                      A
 Frequencies --   3168.3979              3214.2759              3229.1188
 Red. masses --      1.0902                 1.1190                 1.1154
 Frc consts  --      6.4480                 6.8113                 6.8528
 IR Inten    --     47.3190                 0.9644                27.7704

                    109                    110                    111
                      A                      A                      A
 Frequencies --   3579.5478              3623.6201              3702.7894
 Red. masses --      1.0489                 1.0748                 1.0974
 Frc consts  --      7.9183                 8.3146                 8.8649
 IR Inten    --     30.5120                 9.4972                24.3107

 - Thermochemistry -
 -------------------
 Temperature   298.150 Kelvin.  Pressure   1.00000 Atm.
 Atom     1 has atomic number  6 and mass  12.00000

 Molecular mass:   234.18445 amu.
 Principal axes and moments of inertia in atomic units:
                           1         2         3
     Eigenvalues --  2549.164156896.409827712.91556
           X            0.99978   0.02079   0.00237
           Y           -0.02072   0.99941  -0.02729
           Z           -0.00293   0.02724   0.99962
 This molecule is an asymmetric top.
 Rotational symmetry number  1.
 Warning -- assumption of classical behavior for rotation
           may cause significant error
 Rotational temperatures (Kelvin)      0.03398     0.01256     0.01123
 Rotational constants (GHZ):           0.70797     0.26169     0.23399
 Zero-point vibrational energy     906147.0 (Joules/Mol)
                                  216.57433 (Kcal/Mol)
 Warning -- explicit consideration of  29 degrees of freedom as
           vibrations may cause significant error
 Vibrational temperatures:     27.29    39.34    57.95    92.72   128.15
          (Kelvin)            142.77   187.62   214.59   267.20   281.21
                              291.28   327.93   344.06   360.51   391.66
                              409.77   459.31   511.47   565.82   586.94
                              601.94   628.90   646.43   675.80   722.71
                              737.35   807.18   822.58   848.95   926.03
                             1015.58  1070.49  1127.72  1167.00  1174.92
                             1206.82  1247.08  1276.76  1303.23  1323.23
                             1352.40  1367.01  1375.69  1400.47  1422.91
                             1441.06  1472.65  1524.21  1539.85  1556.11
                             1569.48  1586.85  1621.33  1643.24  1652.09
                             1685.63  1713.40  1741.13  1746.14  1784.30
                             1792.50  1832.19  1886.96  1899.90  1934.36
                             1960.26  1974.04  1990.61  2000.29  2029.59
                             2056.26  2061.38  2075.61  2087.98  2096.86
                             2149.18  2152.46  2175.51  2182.19  2184.89
                             2189.87  2203.80  2206.85  2213.78  2217.50
                             2230.99  2333.23  2361.93  2404.56  4318.65
                             4377.14  4387.73  4394.56  4400.52  4408.55
                             4461.67  4475.38  4487.44  4496.58  4498.57
                             4518.19  4522.42  4524.34  4525.32  4551.61
                             4558.62  4624.63  4645.98  5150.17  5213.58
                             5327.49

 Zero-point correction=                           0.345133 (Hartree/Particle)
 Thermal correction to Energy=                    0.363361
 Thermal correction to Enthalpy=                  0.364305
 Thermal correction to Gibbs Free Energy=         0.297655
 Sum of electronic and zero-point Energies=           -727.359692
 Sum of electronic and thermal Energies=              -727.341465
 Sum of electronic and thermal Enthalpies=            -727.340521
 Sum of electronic and thermal Free Energies=         -727.407171

                     E (Thermal)             CV                S
                      KCal/Mol        Cal/Mol-Kelvin    Cal/Mol-Kelvin
 Total                  228.012             69.088            140.277
 Electronic               0.000              0.000              0.000
 Translational            0.889              2.981             42.254
 Rotational               0.889              2.981             33.272
 Vibrational            226.235             63.126             64.751
 Vibration     1          0.593              1.986              6.739
 Vibration     2          0.593              1.984              6.013
 Vibration     3          0.594              1.981              5.246
 Vibration     4          0.597              1.971              4.316
 Vibration     5          0.602              1.957              3.680
 Vibration     6          0.604              1.950              3.469
 Vibration     7          0.612              1.923              2.940
 Vibration     8          0.618              1.904              2.683
 Vibration     9          0.632              1.859              2.270
 Vibration    10          0.636              1.846              2.176
 Vibration    11          0.639              1.836              2.111
 Vibration    12          0.651              1.798              1.895
 Vibration    13          0.657              1.781              1.809
 Vibration    14          0.663              1.762              1.727
 Vibration    15          0.675              1.725              1.582
 Vibration    16          0.683              1.702              1.505
 Vibration    17          0.705              1.637              1.314
 Vibration    18          0.731              1.564              1.142
 Vibration    19          0.760              1.485              0.988
 Vibration    20          0.773              1.453              0.934
 Vibration    21          0.781              1.430              0.898
 Vibration    22          0.797              1.389              0.836
 Vibration    23          0.808              1.362              0.798
 Vibration    24          0.827              1.317              0.738
 Vibration    25          0.858              1.245              0.652
 Vibration    26          0.868              1.222              0.628
 Vibration    27          0.917              1.116              0.522
 Vibration    28          0.928              1.092              0.501
 Vibration    29          0.947              1.053              0.467

 Optimization completed.
    -- Stationary point found.
 Normal termination of Gaussian 16 at Sun Dec 13 20:48:30 2020.

 ----------------------------------------------------------------------
 # B3LYP/6-311++G(d,p) empiricaldispersion=gd3bj scf=xqc pop=npa geom=c
 heck
 ----------------------------------------------------------------------

 --------------------------------------
 CID_80839563_JID_7389_Energie_neutraal
 --------------------------------------
 Structure from the checkpoint file:  "JID_7389.chk"
 Charge =  0 Multiplicity = 1

 SCF Done:  E(RB3LYP) =  -727.909410598     A.U. after   14 cycles
 Normal termination of Gaussian 16 at Sun Dec 13 20:56:18 2020.

 ----------------------------------------------------------------------
 # B3LYP/6-311++G(d,p) empiricaldispersion=gd3bj scf=xqc pop=npa geom=c
 heck
 ----------------------------------------------------------------------

 ------------------------------------
 CID_80839563_JID_7389_Energie_kation
 ------------------------------------
 Structure from the checkpoint file:  "JID_7389.chk"
 Charge =  1 Multiplicity = 2

 SCF Done:  E(UB3LYP) =  -727.629786840     A.U. after   21 cycles
 Normal termination of Gaussian 16 at Sun Dec 13 21:12:24 2020.
 Gaussian 16:  ES64L-G16RevA.03 25-Dec-2016

 ----------------------------------------------------------------------
 # B3LYP/6-311++G(d,p) empiricaldispersion=gd3bj scf=xqc pop=npa geom=c
 heck
 ----------------------------------------------------------------------

 -----------------------------------
 CID_80839563_JID_7389_Energie_anion
 -----------------------------------
 Structure from the checkpoint file:  "JID_7389.chk"
 Charge = -1 Multiplicity = 2

                         Standard orientation:
 ---------------------------------------------------------------------
 Center     Atomic      Atomic             Coordinates (Angstroms)
 Number     Number       Type             X           Y           Z
 ---------------------------------------------------------------------
      1          6           0        2.798766    1.803241    1.606841
      2          6           0        1.783601    1.597463    0.466381
      3          6           0        1.999595    2.577029   -0.705011
      4          6           0        1.685170    0.147957    0.008586
      5          6           0        2.771721   -0.563396   -0.533382
      6          7           0        2.682247   -1.844770   -0.956897
      7          6           0        1.488274   -2.409512   -0.833618
      8          7           0        0.378441   -1.869510   -0.342176
      9          6           0        0.475645   -0.589240    0.080678
     10          7           0       -0.686833   -0.034564    0.555170
     11          6           0       -1.898353   -0.818663    0.804275
     12          6           0       -1.790309   -1.634394    2.097216
     13          6           0       -3.102736    0.131622    0.813114
     14          6           0       -3.322812    0.835087   -0.508464
     15          6           0       -4.083140    0.134678   -1.606758
     16          6           0       -4.697448    1.317641   -0.895214
     17          7           0        4.044183   -0.034912   -0.643321
     18          1           0        3.817517    1.539028    1.311804
     19          1           0        2.538783    1.174963    2.465143
     20          1           0        2.798011    2.849538    1.934076
     21          1           0        0.813950    1.886672    0.885444
     22          1           0        2.958190    2.432247   -1.215911
     23          1           0        1.212294    2.453835   -1.455443
     24          1           0        1.978207    3.612819   -0.347234
     25          1           0        1.407092   -3.440570   -1.176240
     26          1           0       -0.593972    0.792961    1.125491
     27          1           0       -1.993784   -1.506353   -0.038830
     28          1           0       -1.675512   -0.975665    2.967633
     29          1           0       -2.688858   -2.243652    2.249950
     30          1           0       -0.925773   -2.301569    2.046346
     31          1           0       -3.997506   -0.449072    1.072274
     32          1           0       -2.978479    0.870405    1.621598
     33          1           0       -2.486106    1.449863   -0.832381
     34          1           0       -3.749995    0.262248   -2.632596
     35          1           0       -4.486436   -0.852181   -1.392094
     36          1           0       -5.515445    1.125946   -0.204882
     37          1           0       -4.786109    2.256310   -1.435190
     38          1           0        4.641054   -0.590006   -1.243628
     39          1           0        4.138761    0.961466   -0.762622
 ---------------------------------------------------------------------

 SCF Done:  E(UB3LYP) =  -727.899072164     A.U. after   32 cycles

 The electronic state is 2-A.
 Alpha  occ. eigenvalues --  -14.23138 -14.22790 -14.20100 -14.19921 -10.15417
 Alpha  occ. eigenvalues --  -10.15276 -10.13454 -10.11313 -10.08976 -10.08605
 Alpha  occ. eigenvalues --  -10.08336 -10.08308 -10.08062 -10.08044 -10.06700
 Alpha  occ. eigenvalues --  -10.06374 -10.06054  -0.89657  -0.85599  -0.81797
 Alpha  occ. eigenvalues --   -0.77357  -0.75499  -0.72071  -0.68451  -0.64454
 Alpha  occ. eigenvalues --   -0.60941  -0.59016  -0.56317  -0.54538  -0.51646
 Alpha  occ. eigenvalues --   -0.50688  -0.49168  -0.48202  -0.46151  -0.44188
 Alpha  occ. eigenvalues --   -0.40824  -0.39416  -0.38625  -0.37690  -0.36311
 Alpha  occ. eigenvalues --   -0.35488  -0.34772  -0.34001  -0.32982  -0.32355
 Alpha  occ. eigenvalues --   -0.31648  -0.31095  -0.30360  -0.29160  -0.28246
 Alpha  occ. eigenvalues --   -0.27886  -0.26900  -0.26611  -0.25728  -0.25088
 Alpha  occ. eigenvalues --   -0.24713  -0.23789  -0.21545  -0.20506  -0.19633
 Alpha  occ. eigenvalues --   -0.19371  -0.16004  -0.14638  -0.12220   0.04092
 Alpha virt. eigenvalues --    0.06014   0.06734   0.06905   0.07769   0.08009
 Alpha virt. eigenvalues --    0.08323   0.08854   0.09181   0.09288   0.09428
 Alpha virt. eigenvalues --    0.10104   0.10773   0.11045   0.11145   0.12076

  Beta  occ. eigenvalues --  -14.23120 -14.22755 -14.20096 -14.19917 -10.15413
  Beta  occ. eigenvalues --  -10.15266 -10.13452 -10.11311 -10.08956 -10.08597
  Beta  occ. eigenvalues --  -10.08326 -10.08300 -10.08064 -10.08024 -10.06683
  Beta  occ. eigenvalues --  -10.06326 -10.06024  -0.89643  -0.85573  -0.81766
  Beta  occ. eigenvalues --   -0.77340  -0.75478  -0.72038  -0.68423  -0.64422
  Beta  occ. eigenvalues --   -0.60908  -0.58937  -0.56288  -0.54505  -0.51613
  Beta  occ. eigenvalues --   -0.50648  -0.49095  -0.48160  -0.46118  -0.44151
  Beta  occ. eigenvalues --   -0.40793  -0.39391  -0.38595  -0.37655  -0.36276
  Beta  occ. eigenvalues --   -0.35458  -0.34745  -0.33951  -0.32962  -0.32320
  Beta  occ. eigenvalues --   -0.31627  -0.31047  -0.30333  -0.29123  -0.28229
  Beta  occ. eigenvalues --   -0.27869  -0.26858  -0.26578  -0.25702  -0.25048
  Beta  occ. eigenvalues --   -0.24679  -0.23721  -0.21522  -0.20491  -0.19616
  Beta  occ. eigenvalues --   -0.19353  -0.15991  -0.14612  -0.12203
  Beta virt. eigenvalues --    0.06166   0.06765   0.07151   0.07543   0.07850
  Beta virt. eigenvalues --    0.08100   0.08641   0.08931   0.09440   0.09619
  Beta virt. eigenvalues --    0.09710   0.10490   0.11051   0.11260   0.11582

 Mulliken charges and spin densities:
               1          2
     1  C    0.801815  -1.421201
     2  C   -3.012638   2.679761
     3  C    1.570111  -2.203560
     4  C    2.839453  -2.003759
     5  C   -1.179444   0.757250
     6  N   -0.096817  -0.058226
     7  C    0.131220  -0.117255
     8  N   -0.186685   0.019797
     9  C   -0.101486  -0.397094
    10  N    0.439506  -0.055389
    11  C   -0.364001   0.237637
    12  C    0.097320  -0.621102
    13  C    0.406033  -1.230369
    14  C   -0.654048   1.160180
    15  C   -0.237137  -0.264400
    16  C    0.228220  -0.614560
    17  N   -0.403417   0.100243
    18  H   -0.012601   0.150584
    19  H   -0.076275   0.219867
    20  H   -0.369555   0.524952
    21  H   -1.254125   1.387973
    22  H   -0.394905   0.503971
    23  H   -0.100975   0.251914
    24  H   -0.405421   0.570527
    25  H    0.183550   0.005026
    26  H    0.961518  -0.648680
    27  H    0.248501  -0.047937
    28  H   -0.142087   0.298091
    29  H    0.001034   0.128388
    30  H    0.131439   0.020096
    31  H    0.042626   0.104929
    32  H   -0.343959   0.510958
    33  H    0.049820   0.194018
    34  H    0.123997   0.019008
    35  H    0.026876   0.100974
    36  H    0.046315   0.075610
    37  H   -0.188573   0.332243
    38  H    0.055557   0.228448
    39  H    0.139238   0.101087
 Sum of Mulliken charges =  -1.00000   1.00000

 Dipole moment (field-independent basis, Debye):
    X=             -2.3091    Y=             -5.9776    Z=             -1.4337  Tot=              6.5665
 Quadrupole moment (field-independent basis, Debye-Ang):
   XX=           -174.2140   YY=           -162.8611   ZZ=           -145.1888
   XY=             -0.9573   XZ=              1.6978   YZ=             -3.4993

 Summary of Natural Population Analysis:

                                       Natural Population
                Natural  -----------------------------------------------
    Atom  No    Charge         Core      Valence    Rydberg      Total
 -----------------------------------------------------------------------
      C    1   -0.28140      0.99964     2.27582    0.00594     3.28140
      C    2   -0.12064      0.99960     2.10951    0.01153     3.12064
      C    3   -0.27694      0.99964     2.27122    0.00607     3.27694
      C    4   -0.09003      0.99942     2.07991    0.01070     3.09003
      C    5    0.21265      0.99950     1.77229    0.01555     2.78735
      N    6   -0.28812      0.99968     2.77857    0.00987     3.78812
      C    7    0.15123      0.99967     1.83036    0.01874     2.84877
      N    8   -0.29039      0.99968     2.78231    0.00840     3.79039
      C    9    0.22466      0.99950     1.76117    0.01467     2.77534
      N   10   -0.31024      0.99965     2.80018    0.01041     3.81024
      C   11   -0.01201      0.99959     2.00043    0.01199     3.01201
      C   12   -0.28971      0.99964     2.28471    0.00536     3.28971
      C   13   -0.19016      0.99959     2.17978    0.01078     3.19016
      C   14   -0.11577      0.99959     2.10442    0.01177     3.11577
      C   15   -0.19882      0.99962     2.19282    0.00638     3.19882
      C   16   -0.19607      0.99962     2.18999    0.00646     3.19607
      N   17   -0.39334      0.99970     2.88448    0.00916     3.89334
      H   18    0.09859      0.00000     0.40003    0.00138     0.40141
      H   19    0.10103      0.00000     0.39788    0.00109     0.39897
      H   20    0.10118      0.00000     0.39763    0.00119     0.39882
      H   21    0.09694      0.00000     0.40002    0.00305     0.40306
      H   22    0.08899      0.00000     0.40942    0.00160     0.41101
      H   23    0.10333      0.00000     0.39530    0.00137     0.39667
      H   24    0.10365      0.00000     0.39462    0.00173     0.39635
      H   25    0.07883      0.00000     0.42017    0.00100     0.42117
      H   26    0.19182      0.00000     0.30465    0.00353     0.30818
      H   27    0.10690      0.00000     0.39054    0.00255     0.39310
      H   28    0.09799      0.00000     0.40096    0.00105     0.40201
      H   29    0.09617      0.00000     0.40315    0.00068     0.40383
      H   30    0.10746      0.00000     0.39160    0.00094     0.39254
      H   31    0.09810      0.00000     0.40072    0.00118     0.40190
      H   32    0.10043      0.00000     0.39801    0.00157     0.39957
      H   33    0.10998      0.00000     0.38842    0.00160     0.39002
      H   34    0.10188      0.00000     0.39722    0.00090     0.39812
      H   35    0.09771      0.00000     0.40130    0.00099     0.40229
      H   36    0.09828      0.00000     0.40073    0.00098     0.40172
      H   37    0.10238      0.00000     0.39657    0.00104     0.39762
      H   38    0.19154      0.00000     0.30602    0.00244     0.30846
      H   39    0.19194      0.00000     0.30601    0.00204     0.30806
 =======================================================================
   * Total *    0.00000     16.99334    46.79895    0.20771    64.00000

 Normal termination of Gaussian 16 at Sun Dec 13 21:35:14 2020.
