 Gaussian 16, Revision A.03,

 -----------------------------------------------------------
 # opt freq B3LYP/6-31G(d) empiricaldispersion=gd3bj scf=xqc
 -----------------------------------------------------------

 -------------------------------
 CID_134599794_JID_4707_neutraal
 -------------------------------
 Symbolic Z-matrix:
 Charge =  0 Multiplicity = 1

 SCF Done:  E(RB3LYP) =  -1120.95039491     A.U. after   16 cycles
 SCF Done:  E(RB3LYP) =  -1120.97118526     A.U. after   13 cycles
 SCF Done:  E(RB3LYP) =  -1120.97271168     A.U. after   13 cycles
 SCF Done:  E(RB3LYP) =  -1120.97159839     A.U. after   13 cycles
 SCF Done:  E(RB3LYP) =  -1120.97212120     A.U. after   13 cycles
 SCF Done:  E(RB3LYP) =  -1120.97309583     A.U. after   10 cycles
 SCF Done:  E(RB3LYP) =  -1120.97358970     A.U. after   12 cycles
 SCF Done:  E(RB3LYP) =  -1120.97278797     A.U. after   13 cycles
 SCF Done:  E(RB3LYP) =  -1120.97394113     A.U. after   12 cycles
 SCF Done:  E(RB3LYP) =  -1120.97409648     A.U. after   12 cycles
 SCF Done:  E(RB3LYP) =  -1120.97456386     A.U. after   11 cycles
 SCF Done:  E(RB3LYP) =  -1120.97456278     A.U. after   11 cycles
 SCF Done:  E(RB3LYP) =  -1120.97456626     A.U. after   10 cycles
 SCF Done:  E(RB3LYP) =  -1120.97456628     A.U. after    8 cycles
 Optimization completed.
    -- Stationary point found.
 Normal termination of Gaussian 16 at Thu Dec 10 10:26:58 2020.

 --------------------------------------------------------------------
 #N Geom=AllCheck Guess=TCheck SCRF=Check GenChk RB3LYP/6-31G(d) Freq
 --------------------------------------------------------------------

 Structure from the checkpoint file:  "JID_4707.chk"
 -------------------------------
 CID_134599794_JID_4707_neutraal
 -------------------------------
 Charge =  0 Multiplicity = 1

 SCF Done:  E(RB3LYP) =  -1120.97456628     A.U. after    1 cycles

  Exact polarizability: 107.850   4.634  92.753  -9.604  -1.762  91.544
 Approx polarizability: 147.226  12.337 141.467 -18.835  -2.666 152.400

                      1                      2                      3
                      A                      A                      A
 Frequencies --     15.5924                27.4213                44.8983
 Red. masses --      7.0234                 6.6502                 5.2635
 Frc consts  --      0.0010                 0.0029                 0.0063
 IR Inten    --      1.4716                 1.1351                 0.7713

                      4                      5                      6
                      A                      A                      A
 Frequencies --     65.6655               103.3595               142.8713
 Red. masses --      7.6260                 4.9007                 6.7495
 Frc consts  --      0.0194                 0.0308                 0.0812
 IR Inten    --      0.9545                 0.6906                 2.4127

                      7                      8                      9
                      A                      A                      A
 Frequencies --    191.6783               234.5995               245.8447
 Red. masses --      4.5948                 1.4626                 2.2642
 Frc consts  --      0.0995                 0.0474                 0.0806
 IR Inten    --      2.0959                 0.7336                 1.1050

                     10                     11                     12
                      A                      A                      A
 Frequencies --    275.2333               294.7307               319.8846
 Red. masses --      5.0263                 4.7200                 4.1376
 Frc consts  --      0.2243                 0.2416                 0.2494
 IR Inten    --      1.5515                 5.5311                 2.3946

                     13                     14                     15
                      A                      A                      A
 Frequencies --    330.3060               351.6620               380.0874
 Red. masses --      4.6209                 6.1694                 4.6817
 Frc consts  --      0.2970                 0.4495                 0.3985
 IR Inten    --      4.3279                10.6184                 4.6645

                     16                     17                     18
                      A                      A                      A
 Frequencies --    455.1248               477.4838               508.8063
 Red. masses --      9.2780                 9.3882                 7.7890
 Frc consts  --      1.1323                 1.2611                 1.1881
 IR Inten    --     17.8567                12.3490                16.8478

                     19                     20                     21
                      A                      A                      A
 Frequencies --    548.4961               594.0783               602.2022
 Red. masses --      7.6077                 7.8277                 1.1990
 Frc consts  --      1.3485                 1.6277                 0.2562
 IR Inten    --     10.5928                29.0051                41.5972

                     22                     23                     24
                      A                      A                      A
 Frequencies --    643.3296               669.5898               709.9191
 Red. masses --     10.0720                 1.2601                 6.8054
 Frc consts  --      2.4560                 0.3329                 2.0208
 IR Inten    --     11.6358                31.5669                84.3581

                     25                     26                     27
                      A                      A                      A
 Frequencies --    730.8490               759.5525               775.3402
 Red. masses --      8.5402                 6.4468                 7.5388
 Frc consts  --      2.6877                 2.1913                 2.6702
 IR Inten    --     42.7852                71.1236               112.7521

                     28                     29                     30
                      A                      A                      A
 Frequencies --    865.2566               905.5099               931.6091
 Red. masses --      4.3644                 2.4257                 2.3552
 Frc consts  --      1.9251                 1.1719                 1.2043
 IR Inten    --     28.6532                42.5695                31.7495

                     31                     32                     33
                      A                      A                      A
 Frequencies --    968.5409              1023.5949              1056.3547
 Red. masses --      3.9139                 4.1995                 2.7433
 Frc consts  --      2.1632                 2.5924                 1.8036
 IR Inten    --     27.1256               136.4847                55.4448

                     34                     35                     36
                      A                      A                      A
 Frequencies --   1076.2016              1101.4742              1149.7155
 Red. masses --      5.3067                 2.9010                 2.2136
 Frc consts  --      3.6213                 2.0737                 1.7240
 IR Inten    --    223.4231                17.5240                 5.5885

                     37                     38                     39
                      A                      A                      A
 Frequencies --   1163.2024              1186.8163              1286.3671
 Red. masses --      2.0783                12.8389                 1.3704
 Frc consts  --      1.6568                10.6548                 1.3361
 IR Inten    --     44.0802               226.8523                59.4028

                     40                     41                     42
                      A                      A                      A
 Frequencies --   1303.3224              1322.7028              1361.4934
 Red. masses --      1.2411                 2.7941                 1.2339
 Frc consts  --      1.2421                 2.8801                 1.3476
 IR Inten    --      1.0534               250.1979                 8.5411

                     43                     44                     45
                      A                      A                      A
 Frequencies --   1391.6829              1400.7526              1408.9257
 Red. masses --      1.8254                 2.8701                 1.3650
 Frc consts  --      2.0830                 3.3179                 1.5964
 IR Inten    --     87.6578               136.6874                12.5894

                     46                     47                     48
                      A                      A                      A
 Frequencies --   1418.9966              1444.4254              1499.5777
 Red. masses --      1.4795                 1.3246                 1.1008
 Frc consts  --      1.7552                 1.6283                 1.4584
 IR Inten    --     35.8485                10.9214                16.4879

                     49                     50                     51
                      A                      A                      A
 Frequencies --   1515.2921              1526.6295              1828.1315
 Red. masses --      1.0449                 1.0500                11.6042
 Frc consts  --      1.4136                 1.4418                22.8498
 IR Inten    --      5.5279                 4.0702               192.4620

                     52                     53                     54
                      A                      A                      A
 Frequencies --   2252.3926              3071.6554              3073.1814
 Red. masses --      5.9209                 1.0613                 1.0583
 Frc consts  --     17.6981                 5.8997                 5.8890
 IR Inten    --      6.7378                 4.8400                 7.2519

                     55                     56                     57
                      A                      A                      A
 Frequencies --   3095.4579              3113.7313              3149.6972
 Red. masses --      1.0579                 1.0866                 1.1074
 Frc consts  --      5.9724                 6.2071                 6.4730
 IR Inten    --     11.8117                 9.5598                 1.9579

                     58                     59                     60
                      A                      A                      A
 Frequencies --   3150.4721              3156.9419              3494.3188
 Red. masses --      1.1034                 1.1040                 1.1624
 Frc consts  --      6.4526                 6.4829                 8.3626
 IR Inten    --      7.4832                 8.7728                53.2119

 - Thermochemistry -
 -------------------
 Temperature   298.150 Kelvin.  Pressure   1.00000 Atm.
 Atom     1 has atomic number  6 and mass  12.00000

 Molecular mass:   220.00416 amu.
 Principal axes and moments of inertia in atomic units:
                           1         2         3
     Eigenvalues --  1694.745814442.717084869.39709
           X            0.99983  -0.01788  -0.00450
           Y            0.01758   0.99809  -0.05930
           Z            0.00555   0.05922   0.99823
 This molecule is an asymmetric top.
 Rotational symmetry number  1.
 Warning -- assumption of classical behavior for rotation
           may cause significant error
 Rotational temperatures (Kelvin)      0.05111     0.01950     0.01779
 Rotational constants (GHZ):           1.06490     0.40622     0.37063
 Zero-point vibrational energy     407884.9 (Joules/Mol)
                                   97.48683 (Kcal/Mol)
 Warning -- explicit consideration of  21 degrees of freedom as
           vibrations may cause significant error
 Vibrational temperatures:     22.43    39.45    64.60    94.48   148.71
          (Kelvin)            205.56   275.78   337.54   353.72   396.00
                              424.05   460.24   475.24   505.96   546.86
                              654.82   686.99   732.06   789.16   854.75
                              866.43   925.61   963.39  1021.42  1051.53
                             1092.83  1115.54  1244.91  1302.83  1340.38
                             1393.51  1472.72  1519.86  1548.41  1584.78
                             1654.18  1673.59  1707.56  1850.80  1875.19
                             1903.07  1958.89  2002.32  2015.37  2027.13
                             2041.62  2078.21  2157.56  2180.17  2196.48
                             2630.27  3240.69  4419.43  4421.62  4453.67
                             4479.96  4531.71  4532.83  4542.14  5027.55

 Zero-point correction=                           0.155355 (Hartree/Particle)
 Thermal correction to Energy=                    0.169284
 Thermal correction to Enthalpy=                  0.170228
 Thermal correction to Gibbs Free Energy=         0.111898
 Sum of electronic and zero-point Energies=          -1120.819211
 Sum of electronic and thermal Energies=             -1120.805283
 Sum of electronic and thermal Enthalpies=           -1120.804339
 Sum of electronic and thermal Free Energies=        -1120.862668

                     E (Thermal)             CV                S
                      KCal/Mol        Cal/Mol-Kelvin    Cal/Mol-Kelvin
 Total                  106.227             49.961            122.765
 Electronic               0.000              0.000              0.000
 Translational            0.889              2.981             42.068
 Rotational               0.889              2.981             31.972
 Vibrational            104.450             43.999             48.725
 Vibration     1          0.593              1.986              7.129
 Vibration     2          0.593              1.984              6.008
 Vibration     3          0.595              1.979              5.030
 Vibration     4          0.597              1.971              4.279
 Vibration     5          0.605              1.947              3.390
 Vibration     6          0.616              1.910              2.765
 Vibration     7          0.634              1.851              2.212
 Vibration     8          0.654              1.788              1.843
 Vibration     9          0.660              1.770              1.760
 Vibration    10          0.677              1.719              1.563
 Vibration    11          0.689              1.684              1.447
 Vibration    12          0.706              1.636              1.311
 Vibration    13          0.713              1.615              1.259
 Vibration    14          0.728              1.572              1.159
 Vibration    15          0.750              1.513              1.039
 Vibration    16          0.813              1.350              0.780
 Vibration    17          0.834              1.300              0.717
 Vibration    18          0.864              1.230              0.636
 Vibration    19          0.904              1.143              0.547
 Vibration    20          0.952              1.044              0.460
 Vibration    21          0.961              1.027              0.446

 Optimization completed.
    -- Stationary point found.
 Normal termination of Gaussian 16 at Thu Dec 10 10:32:29 2020.

 ----------------------------------------------------------------------
 # B3LYP/6-311++G(d,p) empiricaldispersion=gd3bj scf=xqc pop=npa geom=c
 heck
 ----------------------------------------------------------------------

 ---------------------------------------
 CID_134599794_JID_4707_Energie_neutraal
 ---------------------------------------
 Structure from the checkpoint file:  "JID_4707.chk"
 Charge =  0 Multiplicity = 1

 SCF Done:  E(RB3LYP) =  -1121.21502008     A.U. after   16 cycles
 Normal termination of Gaussian 16 at Thu Dec 10 10:34:41 2020.

 ----------------------------------------------------------------------
 # B3LYP/6-311++G(d,p) empiricaldispersion=gd3bj scf=xqc pop=npa geom=c
 heck
 ----------------------------------------------------------------------

 -------------------------------------
 CID_134599794_JID_4707_Energie_kation
 -------------------------------------
 Structure from the checkpoint file:  "JID_4707.chk"
 Charge =  1 Multiplicity = 2

 SCF Done:  E(UB3LYP) =  -1120.84153372     A.U. after   33 cycles
 SCF Done:  E(UB3LYP) =  -1120.84153372     a.u. after    1 cycles
 Normal termination of Gaussian 16 at Thu Dec 10 10:40:58 2020.
 Gaussian 16:  ES64L-G16RevA.03 25-Dec-2016

 ----------------------------------------------------------------------
 # B3LYP/6-311++G(d,p) empiricaldispersion=gd3bj scf=xqc pop=npa geom=c
 heck
 ----------------------------------------------------------------------

 ------------------------------------
 CID_134599794_JID_4707_Energie_anion
 ------------------------------------
 Structure from the checkpoint file:  "JID_4707.chk"
 Charge = -1 Multiplicity = 2

                         Standard orientation:
 ---------------------------------------------------------------------
 Center     Atomic      Atomic             Coordinates (Angstroms)
 Number     Number       Type             X           Y           Z
 ---------------------------------------------------------------------
      1          6           0       -0.438872    2.718264   -0.656891
      2          6           0       -0.569877    1.217857   -0.535376
      3          6           0       -0.262299    0.669221    0.885669
      4          8           0       -1.065671   -0.501792    1.066993
      5         16           0       -2.149056   -0.686227   -0.170536
      6          8           0       -3.481618   -0.794272    0.374936
      7          8           0       -1.622594   -1.654922   -1.111085
      8          8           0       -1.947569    0.833911   -0.753776
      9          6           0        1.226056    0.390939    0.998342
     10          8           0        2.013928    1.273908    1.253575
     11          8           0        1.533107   -0.874473    0.692337
     12          6           0        2.953525   -1.161466    0.586066
     13          6           0        3.482289   -0.729595   -0.701717
     14          6           0        3.915971   -0.380930   -1.771614
     15          1           0       -1.130202    3.217981    0.027957
     16          1           0       -0.656134    3.039626   -1.678608
     17          1           0        0.585266    3.008399   -0.402747
     18          1           0        0.051564    0.695600   -1.272348
     19          1           0       -0.541693    1.401084    1.648131
     20          1           0        3.478615   -0.671692    1.410616
     21          1           0        3.017288   -2.245380    0.700880
     22          1           0        4.302757   -0.070605   -2.716018
 ---------------------------------------------------------------------

 SCF Done:  E(UB3LYP) =  -1121.20774649     A.U. after   33 cycles
 SCF Done:  E(UB3LYP) =  -1121.20774649     a.u. after    1 cycles

 The electronic state is 2-A.
 Alpha  occ. eigenvalues --  -89.01113 -19.08849 -19.08239 -19.06991 -19.04735
 Alpha  occ. eigenvalues --  -19.04306 -19.00375 -10.18673 -10.16284 -10.16082
 Alpha  occ. eigenvalues --  -10.15794 -10.08556 -10.08088 -10.07294  -8.06969
 Alpha  occ. eigenvalues --   -6.03319  -6.03196  -6.03067  -1.09180  -1.01187
 Alpha  occ. eigenvalues --   -0.97654  -0.95650  -0.94169  -0.92176  -0.72473
 Alpha  occ. eigenvalues --   -0.69334  -0.64393  -0.61492  -0.56475  -0.54898
 Alpha  occ. eigenvalues --   -0.50186  -0.46409  -0.44708  -0.43797  -0.42657
 Alpha  occ. eigenvalues --   -0.40541  -0.40110  -0.38727  -0.36669  -0.36501
 Alpha  occ. eigenvalues --   -0.35058  -0.32801  -0.32482  -0.31687  -0.29784
 Alpha  occ. eigenvalues --   -0.29140  -0.27690  -0.27544  -0.26986  -0.26293
 Alpha  occ. eigenvalues --   -0.25541  -0.22158  -0.21681  -0.20823  -0.19351
 Alpha  occ. eigenvalues --   -0.18298  -0.17595   0.04611
 Alpha virt. eigenvalues --    0.06709   0.07184   0.07900   0.09118   0.09298
 Alpha virt. eigenvalues --    0.10003   0.10608   0.11368   0.11802   0.12440
 Alpha virt. eigenvalues --    0.12813   0.13150   0.13920   0.14852   0.15038

  Beta  occ. eigenvalues --  -89.01085 -19.08768 -19.08158 -19.06929 -19.04683
  Beta  occ. eigenvalues --  -19.04259 -19.00176 -10.18407 -10.16219 -10.16073
  Beta  occ. eigenvalues --  -10.15776 -10.08539 -10.08082 -10.07242  -8.06932
  Beta  occ. eigenvalues --   -6.03282  -6.03172  -6.03045  -1.09006  -1.00935
  Beta  occ. eigenvalues --   -0.97470  -0.95456  -0.94015  -0.91875  -0.72297
  Beta  occ. eigenvalues --   -0.69229  -0.64241  -0.61405  -0.56339  -0.54768
  Beta  occ. eigenvalues --   -0.49919  -0.46254  -0.44549  -0.43663  -0.42551
  Beta  occ. eigenvalues --   -0.40438  -0.39925  -0.38589  -0.36499  -0.36279
  Beta  occ. eigenvalues --   -0.34913  -0.32675  -0.32375  -0.31236  -0.29613
  Beta  occ. eigenvalues --   -0.28995  -0.27551  -0.27433  -0.26827  -0.26196
  Beta  occ. eigenvalues --   -0.25441  -0.21760  -0.21411  -0.20641  -0.19211
  Beta  occ. eigenvalues --   -0.18202  -0.17433
  Beta virt. eigenvalues --    0.07105   0.07729   0.08256   0.08524   0.09408
  Beta virt. eigenvalues --    0.09986   0.10131   0.10994   0.11815   0.11915
  Beta virt. eigenvalues --    0.12824   0.12892   0.13333   0.13999   0.14938

 Mulliken charges and spin densities:
               1          2
     1  C    0.632223  -1.289587
     2  C   -1.213523   1.037643
     3  C    0.309192  -0.674135
     4  O   -0.091707   0.004016
     5  S    0.356939   0.206297
     6  O   -0.096389  -0.013188
     7  O   -0.172524  -0.007610
     8  O   -0.078050  -0.007132
     9  C   -0.319443   0.305523
    10  O   -0.305403   0.084749
    11  O    0.051473   0.037702
    12  C    1.201179  -1.549998
    13  C    5.636044  -3.846932
    14  C   -5.659785   3.848073
    15  H    0.113101   0.033799
    16  H   -0.349139   0.515870
    17  H    0.009926   0.187600
    18  H    0.288744   0.034384
    19  H    0.191870   0.054054
    20  H    0.088353   0.114199
    21  H   -0.094901   0.283142
    22  H   -1.498181   1.641531
 Sum of Mulliken charges =  -1.00000   1.00000

 Dipole moment (field-independent basis, Debye):
    X=             -4.0703    Y=              0.3902    Z=              4.3683  Tot=              5.9834
 Quadrupole moment (field-independent basis, Debye-Ang):
   XX=           -160.1991   YY=           -117.8336   ZZ=           -121.0189
   XY=             -8.3258   XZ=             15.0280   YZ=              1.4883

 Summary of Natural Population Analysis:

                                       Natural Population
                Natural  -----------------------------------------------
    Atom  No    Charge         Core      Valence    Rydberg      Total
 -----------------------------------------------------------------------
      C    1   -0.29681      0.99963     2.28972    0.00746     3.29681
      C    2    0.05702      0.99956     1.92930    0.01412     2.94298
      C    3    0.02102      0.99950     1.96476    0.01473     2.97898
      O    4   -0.35116      0.99989     3.34284    0.00843     4.35116
      S    5    1.22100      4.99944     1.67356    0.10599     6.77900
      O    6   -0.42901      0.99989     3.42379    0.00533     4.42901
      O    7   -0.42772      0.99989     3.42237    0.00546     4.42772
      O    8   -0.35687      0.99989     3.34810    0.00887     4.35687
      C    9    0.42843      0.99966     1.54673    0.02518     2.57157
      O   10   -0.29064      0.99987     3.28492    0.00585     4.29064
      O   11   -0.26559      0.99986     3.25643    0.00930     4.26559
      C   12   -0.05260      0.99949     2.04076    0.01235     3.05260
      C   13   -0.02361      0.99936     2.01674    0.00751     3.02361
      C   14   -0.09247      0.99926     2.08949    0.00371     3.09247
      H   15    0.10148      0.00000     0.39745    0.00107     0.39852
      H   16    0.10815      0.00000     0.39073    0.00112     0.39185
      H   17    0.11906      0.00000     0.37993    0.00102     0.38094
      H   18    0.09907      0.00000     0.39905    0.00188     0.40093
      H   19    0.10204      0.00000     0.39669    0.00128     0.39796
      H   20    0.10993      0.00000     0.38849    0.00158     0.39007
      H   21    0.10599      0.00000     0.39242    0.00159     0.39401
      H   22    0.11329      0.00000     0.38359    0.00312     0.38671
 =======================================================================
   * Total *    0.00000     17.99519    38.75785    0.24696    57.00000

 Normal termination of Gaussian 16 at Thu Dec 10 10:46:53 2020.
