 Gaussian 16, Revision A.03,

 -----------------------------------------------------------
 # opt freq B3LYP/6-31G(d) empiricaldispersion=gd3bj scf=xqc
 -----------------------------------------------------------

 -------------------------------
 CID_106469043_JID_6239_neutraal
 -------------------------------
 Symbolic Z-matrix:
 Charge =  0 Multiplicity = 1

 SCF Done:  E(RB3LYP) =  -676.173026635     A.U. after   14 cycles
 SCF Done:  E(RB3LYP) =  -676.175167755     A.U. after   12 cycles
 SCF Done:  E(RB3LYP) =  -676.175774301     A.U. after   12 cycles
 SCF Done:  E(RB3LYP) =  -676.176395337     A.U. after   12 cycles
 SCF Done:  E(RB3LYP) =  -676.176379961     A.U. after   11 cycles
 SCF Done:  E(RB3LYP) =  -676.176530823     A.U. after   10 cycles
 SCF Done:  E(RB3LYP) =  -676.176550687     A.U. after    9 cycles
 SCF Done:  E(RB3LYP) =  -676.176559946     A.U. after    9 cycles
 SCF Done:  E(RB3LYP) =  -676.176566331     A.U. after   10 cycles
 SCF Done:  E(RB3LYP) =  -676.176571960     A.U. after    9 cycles
 SCF Done:  E(RB3LYP) =  -676.176574212     A.U. after    9 cycles
 SCF Done:  E(RB3LYP) =  -676.176574538     A.U. after    8 cycles
 Optimization completed.
    -- Stationary point found.
 Normal termination of Gaussian 16 at Thu Dec 10 21:35:21 2020.

 --------------------------------------------------------------------
 #N Geom=AllCheck Guess=TCheck SCRF=Check GenChk RB3LYP/6-31G(d) Freq
 --------------------------------------------------------------------

 Structure from the checkpoint file:  "JID_6239.chk"
 -------------------------------
 CID_106469043_JID_6239_neutraal
 -------------------------------
 Charge =  0 Multiplicity = 1

 SCF Done:  E(RB3LYP) =  -676.176574538     A.U. after    1 cycles

  Exact polarizability: 185.732  -8.398 140.861  12.201   9.036 123.802
 Approx polarizability: 254.557 -13.852 226.116  21.605  28.666 186.293

                      1                      2                      3
                      A                      A                      A
 Frequencies --     25.2034                38.6865                44.5591
 Red. masses --      3.0359                 3.4796                 3.2074
 Frc consts  --      0.0011                 0.0031                 0.0038
 IR Inten    --      0.0151                 0.0751                 0.1220

                      4                      5                      6
                      A                      A                      A
 Frequencies --    100.1078               112.5624               138.6460
 Red. masses --      3.5522                 3.6469                 4.0438
 Frc consts  --      0.0210                 0.0272                 0.0458
 IR Inten    --      0.4326                 0.3925                 0.3088

                      7                      8                      9
                      A                      A                      A
 Frequencies --    191.6034               206.9779               227.0876
 Red. masses --      3.4216                 2.4005                 1.6440
 Frc consts  --      0.0740                 0.0606                 0.0500
 IR Inten    --      8.1802                 0.5665                 0.6881

                     10                     11                     12
                      A                      A                      A
 Frequencies --    250.5909               288.7014               298.1890
 Red. masses --      2.5748                 1.7528                 1.3005
 Frc consts  --      0.0953                 0.0861                 0.0681
 IR Inten    --      0.1640                13.3559                51.8348

                     13                     14                     15
                      A                      A                      A
 Frequencies --    334.6140               360.4454               385.3729
 Red. masses --      2.0069                 2.8813                 2.3026
 Frc consts  --      0.1324                 0.2206                 0.2015
 IR Inten    --     12.6216                 7.8965                 2.5458

                     16                     17                     18
                      A                      A                      A
 Frequencies --    406.3925               413.9046               426.5988
 Red. masses --      2.4690                 4.3744                 2.8625
 Frc consts  --      0.2402                 0.4415                 0.3069
 IR Inten    --      3.0759                 0.6479                 2.5903

                     19                     20                     21
                      A                      A                      A
 Frequencies --    443.2956               466.2778               506.4964
 Red. masses --      2.6231                 3.9958                 2.4415
 Frc consts  --      0.3037                 0.5118                 0.3690
 IR Inten    --      1.4565                 1.0596                 0.7993

                     22                     23                     24
                      A                      A                      A
 Frequencies --    570.7335               618.1900               660.4162
 Red. masses --      2.7609                 2.8738                 6.4842
 Frc consts  --      0.5299                 0.6471                 1.6663
 IR Inten    --     10.1604                10.9312                 0.3807

                     25                     26                     27
                      A                      A                      A
 Frequencies --    688.3069               716.9627               753.5134
 Red. masses --      3.6552                 2.5778                 3.4349
 Frc consts  --      1.0203                 0.7807                 1.1491
 IR Inten    --      2.6251                 4.8995                 1.0760

                     28                     29                     30
                      A                      A                      A
 Frequencies --    791.6224               800.2614               826.3999
 Red. masses --      2.9786                 1.1609                 2.2928
 Frc consts  --      1.0998                 0.4380                 0.9226
 IR Inten    --      3.7075                 0.8851                22.9142

                     31                     32                     33
                      A                      A                      A
 Frequencies --    852.6142               858.5678               866.9326
 Red. masses --      1.6442                 1.4122                 2.7138
 Frc consts  --      0.7042                 0.6133                 1.2017
 IR Inten    --     16.4338                 5.7488                 8.3063

                     34                     35                     36
                      A                      A                      A
 Frequencies --    882.4318               920.9134               944.3510
 Red. masses --      2.6950                 1.7985                 1.6711
 Frc consts  --      1.2364                 0.8987                 0.8780
 IR Inten    --      3.1904                80.3974                27.9807

                     37                     38                     39
                      A                      A                      A
 Frequencies --    963.7413               967.3369               976.4255
 Red. masses --      1.3625                 1.4156                 1.7653
 Frc consts  --      0.7456                 0.7804                 0.9916
 IR Inten    --      3.4220                 3.9241                10.9794

                     40                     41                     42
                      A                      A                      A
 Frequencies --    982.0084               990.0722              1034.4283
 Red. masses --      2.2698                 2.3005                 1.7793
 Frc consts  --      1.2896                 1.3286                 1.1218
 IR Inten    --      0.9698                18.3323                 9.3472

                     43                     44                     45
                      A                      A                      A
 Frequencies --   1045.8700              1052.3380              1082.2747
 Red. masses --      2.8364                 2.1665                 1.5112
 Frc consts  --      1.8280                 1.4136                 1.0429
 IR Inten    --      2.3405                14.5798                 1.0649

                     46                     47                     48
                      A                      A                      A
 Frequencies --   1091.9519              1094.1052              1123.0605
 Red. masses --      1.9658                 1.8863                 1.8804
 Frc consts  --      1.3810                 1.3304                 1.3973
 IR Inten    --      6.2869                12.9542                 2.3620

                     49                     50                     51
                      A                      A                      A
 Frequencies --   1137.9696              1159.0552              1204.4258
 Red. masses --      3.1441                 1.3670                 2.6415
 Frc consts  --      2.3989                 1.0820                 2.2577
 IR Inten    --     41.6184                 7.5401                54.9994

                     52                     53                     54
                      A                      A                      A
 Frequencies --   1216.2996              1225.3198              1227.3174
 Red. masses --      1.2927                 1.2029                 1.8686
 Frc consts  --      1.1268                 1.0641                 1.6584
 IR Inten    --      3.9661                 0.7723                 8.1123

                     55                     56                     57
                      A                      A                      A
 Frequencies --   1241.3014              1248.1251              1266.1762
 Red. masses --      2.2926                 1.8049                 1.3703
 Frc consts  --      2.0813                 1.6566                 1.2944
 IR Inten    --      7.5527                 8.4238                 2.0314

                     58                     59                     60
                      A                      A                      A
 Frequencies --   1282.6198              1287.3679              1323.0016
 Red. masses --      1.2451                 1.3190                 1.4192
 Frc consts  --      1.2068                 1.2879                 1.4635
 IR Inten    --      3.0557                 0.4124                 2.3162

                     61                     62                     63
                      A                      A                      A
 Frequencies --   1338.8411              1354.7662              1368.9763
 Red. masses --      1.6075                 1.5159                 1.5600
 Frc consts  --      1.6977                 1.6392                 1.7225
 IR Inten    --      5.1631                 1.8764                 1.9489

                     64                     65                     66
                      A                      A                      A
 Frequencies --   1369.9061              1373.3798              1383.1358
 Red. masses --      1.4166                 1.5484                 1.5854
 Frc consts  --      1.5663                 1.7207                 1.7869
 IR Inten    --      1.3902                 4.4248                 1.2805

                     67                     68                     69
                      A                      A                      A
 Frequencies --   1399.1400              1411.1828              1419.5573
 Red. masses --      1.2906                 1.3193                 1.3178
 Frc consts  --      1.4886                 1.5480                 1.5647
 IR Inten    --      0.8658                15.6857                11.6275

                     70                     71                     72
                      A                      A                      A
 Frequencies --   1434.6016              1435.2109              1456.0722
 Red. masses --      1.2209                 1.3580                 1.3694
 Frc consts  --      1.4805                 1.6480                 1.7106
 IR Inten    --      1.1831                11.5147                 0.9924

                     73                     74                     75
                      A                      A                      A
 Frequencies --   1471.1498              1512.6099              1515.2999
 Red. masses --      2.3812                 1.0959                 1.1047
 Frc consts  --      3.0365                 1.4773                 1.4945
 IR Inten    --      3.7232                 0.6667                 5.2242

                     76                     77                     78
                      A                      A                      A
 Frequencies --   1517.9364              1522.8528              1525.7062
 Red. masses --      1.0652                 1.0992                 1.0412
 Frc consts  --      1.4460                 1.5019                 1.4280
 IR Inten    --      0.7549                 8.0000                 7.2630

                     79                     80                     81
                      A                      A                      A
 Frequencies --   1531.4000              1538.3880              1568.2575
 Red. masses --      1.1036                 1.0821                 2.4372
 Frc consts  --      1.5248                 1.5088                 3.5317
 IR Inten    --      4.2050                 1.4677                17.9500

                     82                     83                     84
                      A                      A                      A
 Frequencies --   1631.5788              1677.4207              1702.8640
 Red. masses --      5.8690                 5.7784                 1.0886
 Frc consts  --      9.2051                 9.5795                 1.8599
 IR Inten    --      0.2590                 0.8512                16.4542

                     85                     86                     87
                      A                      A                      A
 Frequencies --   2961.9928              2968.0047              3010.6993
 Red. masses --      1.0725                 1.0723                 1.0841
 Frc consts  --      5.5440                 5.5653                 5.7897
 IR Inten    --     16.7376               133.2700                32.2845

                     88                     89                     90
                      A                      A                      A
 Frequencies --   3029.8417              3039.3759              3042.0187
 Red. masses --      1.0732                 1.0760                 1.0720
 Frc consts  --      5.8046                 5.8562                 5.8449
 IR Inten    --     20.6074                96.6551                39.7590

                     91                     92                     93
                      A                      A                      A
 Frequencies --   3044.4942              3047.2331              3078.9554
 Red. masses --      1.0597                 1.0348                 1.1038
 Frc consts  --      5.7872                 5.6612                 6.1652
 IR Inten    --     29.8454                33.7640                 9.3991

                     94                     95                     96
                      A                      A                      A
 Frequencies --   3092.9473              3096.2350              3107.2668
 Red. masses --      1.0942                 1.0927                 1.0914
 Frc consts  --      6.1670                 6.1719                 6.2085
 IR Inten    --     16.3842                43.0742                27.5523

                     97                     98                     99
                      A                      A                      A
 Frequencies --   3117.4949              3121.3657              3121.9072
 Red. masses --      1.1028                 1.1034                 1.0946
 Frc consts  --      6.3147                 6.3340                 6.2859
 IR Inten    --     58.1239                34.4446                25.1713

                    100                    101                    102
                      A                      A                      A
 Frequencies --   3162.7353              3173.6148              3182.3853
 Red. masses --      1.0866                 1.0893                 1.0937
 Frc consts  --      6.4038                 6.4638                 6.5264
 IR Inten    --     17.1339                21.4112                20.7506

                    103                    104                    105
                      A                      A                      A
 Frequencies --   3232.0942              3460.0083              3542.5144
 Red. masses --      1.0916                 1.0499                 1.0911
 Frc consts  --      6.7186                 7.4051                 8.0673
 IR Inten    --      4.5037                 6.7866                 1.1777

 - Thermochemistry -
 -------------------
 Temperature   298.150 Kelvin.  Pressure   1.00000 Atm.
 Atom     1 has atomic number  6 and mass  12.00000

 Molecular mass:   219.16231 amu.
 Principal axes and moments of inertia in atomic units:
                           1         2         3
     Eigenvalues --  2052.582645372.314915688.19458
           X            0.99989  -0.01108   0.01033
           Y            0.01140   0.99945  -0.03114
           Z           -0.00998   0.03125   0.99946
 This molecule is an asymmetric top.
 Rotational symmetry number  1.
 Warning -- assumption of classical behavior for rotation
           may cause significant error
 Rotational temperatures (Kelvin)      0.04220     0.01612     0.01523
 Rotational constants (GHZ):           0.87925     0.33593     0.31728
 Zero-point vibrational energy     871686.1 (Joules/Mol)
                                  208.33799 (Kcal/Mol)
 Warning -- explicit consideration of  23 degrees of freedom as
           vibrations may cause significant error
 Vibrational temperatures:     36.26    55.66    64.11   144.03   161.95
          (Kelvin)            199.48   275.67   297.80   326.73   360.54
                              415.38   429.03   481.43   518.60   554.47
                              584.71   595.52   613.78   637.80   670.87
                              728.74   821.16   889.44   950.19   990.32
                             1031.55  1084.14  1138.97  1151.40  1189.01
                             1226.72  1235.29  1247.32  1269.62  1324.99
                             1358.71  1386.61  1391.78  1404.86  1412.89
                             1424.49  1488.31  1504.77  1514.08  1557.15
                             1571.08  1574.17  1615.83  1637.28  1667.62
                             1732.90  1749.98  1762.96  1765.84  1785.96
                             1795.77  1821.75  1845.40  1852.24  1903.50
                             1926.29  1949.21  1969.65  1970.99  1975.99
                             1990.02  2013.05  2030.38  2042.43  2064.07
                             2064.95  2094.96  2116.66  2176.31  2180.18
                             2183.97  2191.05  2195.15  2203.34  2213.40
                             2256.37  2347.48  2413.43  2450.04  4261.65
                             4270.30  4331.72  4359.27  4372.98  4376.79
                             4380.35  4384.29  4429.93  4450.06  4454.79
                             4470.66  4485.38  4490.95  4491.73  4550.47
                             4566.12  4578.74  4650.26  4978.18  5096.89

 Zero-point correction=                           0.332008 (Hartree/Particle)
 Thermal correction to Energy=                    0.347262
 Thermal correction to Enthalpy=                  0.348207
 Thermal correction to Gibbs Free Energy=         0.288749
 Sum of electronic and zero-point Energies=           -675.844567
 Sum of electronic and thermal Energies=              -675.829312
 Sum of electronic and thermal Enthalpies=            -675.828368
 Sum of electronic and thermal Free Energies=         -675.887825

                     E (Thermal)             CV                S
                      KCal/Mol        Cal/Mol-Kelvin    Cal/Mol-Kelvin
 Total                  217.910             60.058            125.139
 Electronic               0.000              0.000              0.000
 Translational            0.889              2.981             42.057
 Rotational               0.889              2.981             32.506
 Vibrational            216.133             54.097             50.576
 Vibration     1          0.593              1.985              6.175
 Vibration     2          0.594              1.981              5.325
 Vibration     3          0.595              1.980              5.045
 Vibration     4          0.604              1.949              3.452
 Vibration     5          0.607              1.939              3.224
 Vibration     6          0.614              1.915              2.822
 Vibration     7          0.634              1.851              2.212
 Vibration     8          0.641              1.830              2.070
 Vibration     9          0.651              1.800              1.902
 Vibration    10          0.663              1.762              1.726
 Vibration    11          0.685              1.695              1.482
 Vibration    12          0.691              1.677              1.427
 Vibration    13          0.716              1.606              1.238
 Vibration    14          0.735              1.554              1.120
 Vibration    15          0.754              1.501              1.018
 Vibration    16          0.771              1.456              0.939
 Vibration    17          0.777              1.440              0.913
 Vibration    18          0.788              1.412              0.870
 Vibration    19          0.803              1.376              0.816
 Vibration    20          0.824              1.325              0.748
 Vibration    21          0.862              1.236              0.642
 Vibration    22          0.927              1.095              0.503
 Vibration    23          0.978              0.993              0.419

                           ! Non-Optimized Parameters !
 Normal termination of Gaussian 16 at Thu Dec 10 21:49:00 2020.

 ----------------------------------------------------------------------
 # B3LYP/6-311++G(d,p) empiricaldispersion=gd3bj scf=xqc pop=npa geom=c
 heck
 ----------------------------------------------------------------------

 ---------------------------------------
 CID_106469043_JID_6239_Energie_neutraal
 ---------------------------------------
 Structure from the checkpoint file:  "JID_6239.chk"
 Charge =  0 Multiplicity = 1

 SCF Done:  E(RB3LYP) =  -676.364761683     A.U. after   14 cycles
 Normal termination of Gaussian 16 at Thu Dec 10 21:55:42 2020.

 ----------------------------------------------------------------------
 # B3LYP/6-311++G(d,p) empiricaldispersion=gd3bj scf=xqc pop=npa geom=c
 heck
 ----------------------------------------------------------------------

 -------------------------------------
 CID_106469043_JID_6239_Energie_kation
 -------------------------------------
 Structure from the checkpoint file:  "JID_6239.chk"
 Charge =  1 Multiplicity = 2

 SCF Done:  E(UB3LYP) =  -676.071319862     A.U. after   26 cycles
 Normal termination of Gaussian 16 at Thu Dec 10 22:13:16 2020.
 Gaussian 16:  ES64L-G16RevA.03 25-Dec-2016

 ----------------------------------------------------------------------
 # B3LYP/6-311++G(d,p) empiricaldispersion=gd3bj scf=xqc pop=npa geom=c
 heck
 ----------------------------------------------------------------------

 ------------------------------------
 CID_106469043_JID_6239_Energie_anion
 ------------------------------------
 Structure from the checkpoint file:  "JID_6239.chk"
 Charge = -1 Multiplicity = 2

                         Standard orientation:
 ---------------------------------------------------------------------
 Center     Atomic      Atomic             Coordinates (Angstroms)
 Number     Number       Type             X           Y           Z
 ---------------------------------------------------------------------
      1          6           0        4.222686   -1.059991    1.273249
      2          6           0        4.170631   -0.255100   -0.035899
      3          6           0        2.763087    0.165247   -0.389282
      4          6           0        2.247554    1.394545    0.029979
      5          6           0        0.927351    1.749274   -0.249899
      6          6           0        0.070687    0.885127   -0.942956
      7          6           0        0.598126   -0.335112   -1.387791
      8          6           0        1.915746   -0.687118   -1.110057
      9          6           0       -1.364429    1.293216   -1.207274
     10          6           0       -2.512109    0.569925   -0.449939
     11          6           0       -2.865521   -0.820522   -0.998736
     12          8           0       -1.944611   -1.835783   -0.630120
     13          6           0       -1.882606   -1.998844    0.780381
     14          6           0       -1.446020   -0.712295    1.483134
     15          6           0       -2.350438    0.471103    1.084452
     16          7           0       -1.957099    1.766510    1.652019
     17          1           0        3.833750   -0.466985    2.108553
     18          1           0        5.249040   -1.359701    1.513903
     19          1           0        3.610518   -1.965502    1.196542
     20          1           0        4.809020    0.632050    0.058098
     21          1           0        4.591089   -0.859925   -0.849050
     22          1           0        2.886986    2.086306    0.574106
     23          1           0        0.558639    2.723534    0.065237
     24          1           0       -0.039073   -1.030316   -1.921620
     25          1           0        2.297825   -1.643613   -1.460665
     26          1           0       -1.458954    2.359140   -0.975913
     27          1           0       -1.576877    1.192736   -2.280540
     28          1           0       -3.395015    1.198765   -0.629685
     29          1           0       -2.887091   -0.813759   -2.093310
     30          1           0       -3.873753   -1.098795   -0.642630
     31          1           0       -1.174958   -2.813067    0.960815
     32          1           0       -2.872139   -2.316627    1.155815
     33          1           0       -0.406460   -0.492914    1.223116
     34          1           0       -1.491278   -0.856935    2.571537
     35          1           0       -3.355036    0.255995    1.477820
     36          1           0       -2.056300    1.726008    2.666051
     37          1           0       -0.961828    1.907570    1.482474
 ---------------------------------------------------------------------

 SCF Done:  E(UB3LYP) =  -676.351657323     A.U. after   33 cycles
 SCF Done:  E(UB3LYP) =  -676.351657323     a.u. after    1 cycles

 The electronic state is 2-A.
 Alpha  occ. eigenvalues --  -19.02819 -14.19565 -10.11958 -10.11925 -10.10187
 Alpha  occ. eigenvalues --  -10.07960 -10.07898 -10.07873 -10.07645 -10.07476
 Alpha  occ. eigenvalues --  -10.07461 -10.07314 -10.07291 -10.06887 -10.06493
 Alpha  occ. eigenvalues --  -10.06395  -0.94401  -0.79492  -0.76328  -0.70820
 Alpha  occ. eigenvalues --   -0.68281  -0.66919  -0.64717  -0.63899  -0.58850
 Alpha  occ. eigenvalues --   -0.54108  -0.53463  -0.51595  -0.51173  -0.47711
 Alpha  occ. eigenvalues --   -0.45130  -0.41029  -0.39762  -0.39402  -0.38177
 Alpha  occ. eigenvalues --   -0.37431  -0.36347  -0.35490  -0.33846  -0.33191
 Alpha  occ. eigenvalues --   -0.32728  -0.32330  -0.31910  -0.31082  -0.29959
 Alpha  occ. eigenvalues --   -0.29287  -0.28082  -0.26980  -0.26416  -0.25765
 Alpha  occ. eigenvalues --   -0.24949  -0.24156  -0.23800  -0.22844  -0.22579
 Alpha  occ. eigenvalues --   -0.20979  -0.16633  -0.15732  -0.14660  -0.13768
 Alpha  occ. eigenvalues --    0.04162
 Alpha virt. eigenvalues --    0.05815   0.06615   0.07220   0.07985   0.08184
 Alpha virt. eigenvalues --    0.08296   0.08444   0.08738   0.09603   0.09957
 Alpha virt. eigenvalues --    0.10199   0.10835   0.11113   0.12048   0.12351

  Beta  occ. eigenvalues --  -19.02814 -14.19547 -10.11941 -10.11912 -10.10173
  Beta  occ. eigenvalues --  -10.07933 -10.07863 -10.07860 -10.07633 -10.07469
  Beta  occ. eigenvalues --  -10.07459 -10.07291 -10.07284 -10.06879 -10.06458
  Beta  occ. eigenvalues --  -10.06379  -0.94388  -0.79457  -0.76280  -0.70768
  Beta  occ. eigenvalues --   -0.68240  -0.66887  -0.64679  -0.63848  -0.58805
  Beta  occ. eigenvalues --   -0.54051  -0.53415  -0.51548  -0.51144  -0.47656
  Beta  occ. eigenvalues --   -0.45086  -0.40987  -0.39718  -0.39371  -0.38145
  Beta  occ. eigenvalues --   -0.37398  -0.36306  -0.35444  -0.33818  -0.33145
  Beta  occ. eigenvalues --   -0.32699  -0.32287  -0.31886  -0.31038  -0.29921
  Beta  occ. eigenvalues --   -0.29236  -0.28040  -0.26945  -0.26352  -0.25725
  Beta  occ. eigenvalues --   -0.24918  -0.24116  -0.23770  -0.22808  -0.22539
  Beta  occ. eigenvalues --   -0.20943  -0.16583  -0.15664  -0.14630  -0.13609
  Beta virt. eigenvalues --    0.06177   0.06780   0.07242   0.07568   0.08110
  Beta virt. eigenvalues --    0.08413   0.08743   0.08802   0.09133   0.09939
  Beta virt. eigenvalues --    0.10176   0.10591   0.11124   0.11381   0.12303

 Mulliken charges and spin densities:
               1          2
     1  C    0.899212  -1.493698
     2  C   -0.299284  -0.188655
     3  C    0.471819   0.500638
     4  C   -0.952005   0.310020
     5  C   -0.431242  -0.054031
     6  C    1.621170  -0.498782
     7  C   -0.259577  -0.019003
     8  C   -0.838224   0.200205
     9  C    0.447276  -1.441125
    10  C   -0.070124   0.717089
    11  C    0.082078  -0.747047
    12  O   -0.085904   0.023412
    13  C    0.430092  -0.860810
    14  C   -1.289083   1.034875
    15  C    1.017959  -1.442457
    16  N   -0.466573   0.122073
    17  H   -0.134656   0.275746
    18  H   -0.411932   0.545823
    19  H   -0.065627   0.203720
    20  H   -0.158217   0.304908
    21  H   -0.126301   0.267447
    22  H   -0.253868   0.419549
    23  H   -0.093981   0.243980
    24  H    0.070600   0.125718
    25  H   -0.049068   0.215515
    26  H    0.150103   0.035909
    27  H    0.005903   0.147770
    28  H   -0.192923   0.401151
    29  H   -0.068134   0.248737
    30  H   -0.139126   0.262316
    31  H    0.039091   0.150543
    32  H   -0.045961   0.170640
    33  H    0.578324  -0.397828
    34  H   -0.462552   0.638886
    35  H   -0.127129   0.346227
    36  H   -0.046086   0.287227
    37  H    0.253951  -0.056688
 Sum of Mulliken charges =  -1.00000   1.00000

 Dipole moment (field-independent basis, Debye):
    X=             -1.4927    Y=              0.2131    Z=             -2.7775  Tot=              3.1604
 Quadrupole moment (field-independent basis, Debye-Ang):
   XX=           -190.8893   YY=           -137.8322   ZZ=           -140.9737
   XY=              6.5045   XZ=             -1.7598   YZ=              1.5047

 Summary of Natural Population Analysis:

                                       Natural Population
                Natural  -----------------------------------------------
    Atom  No    Charge         Core      Valence    Rydberg      Total
 -----------------------------------------------------------------------
      C    1   -0.27959      0.99966     2.27528    0.00465     3.27959
      C    2   -0.19796      0.99961     2.18892    0.00943     3.19796
      C    3   -0.01269      0.99950     2.00318    0.01000     3.01269
      C    4   -0.09849      0.99950     2.08924    0.00974     3.09849
      C    5   -0.10834      0.99951     2.09995    0.00888     3.10834
      C    6   -0.01716      0.99950     2.00714    0.01052     3.01716
      C    7   -0.09348      0.99951     2.08496    0.00901     3.09348
      C    8   -0.09964      0.99951     2.09087    0.00927     3.09964
      C    9   -0.20060      0.99958     2.19017    0.01085     3.20060
      C   10   -0.11834      0.99956     2.10639    0.01239     3.11834
      C   11   -0.00885      0.99954     1.99530    0.01400     3.00885
      O   12   -0.30203      0.99989     3.29279    0.00935     4.30203
      C   13   -0.00738      0.99958     1.99506    0.01275     3.00738
      C   14   -0.21520      0.99960     2.20613    0.00947     3.21520
      C   15   -0.01180      0.99956     1.99801    0.01424     3.01180
      N   16   -0.42171      0.99977     2.91178    0.01017     3.92171
      H   17    0.09785      0.00000     0.40101    0.00114     0.40215
      H   18    0.09833      0.00000     0.40002    0.00165     0.40167
      H   19    0.09720      0.00000     0.40167    0.00113     0.40280
      H   20    0.09911      0.00000     0.39955    0.00135     0.40089
      H   21    0.09832      0.00000     0.40048    0.00120     0.40168
      H   22    0.09925      0.00000     0.39975    0.00101     0.40075
      H   23    0.09792      0.00000     0.40069    0.00139     0.40208
      H   24    0.10778      0.00000     0.39060    0.00162     0.39222
      H   25    0.09844      0.00000     0.40060    0.00097     0.40156
      H   26    0.10631      0.00000     0.39235    0.00134     0.39369
      H   27    0.10350      0.00000     0.39531    0.00119     0.39650
      H   28    0.10543      0.00000     0.39296    0.00161     0.39457
      H   29    0.09056      0.00000     0.40824    0.00121     0.40944
      H   30    0.07958      0.00000     0.41902    0.00140     0.42042
      H   31    0.09156      0.00000     0.40725    0.00119     0.40844
      H   32    0.07546      0.00000     0.42308    0.00146     0.42454
      H   33    0.10485      0.00000     0.39258    0.00257     0.39515
      H   34    0.10054      0.00000     0.39780    0.00166     0.39946
      H   35    0.09192      0.00000     0.40569    0.00238     0.40808
      H   36    0.17495      0.00000     0.32333    0.00172     0.32505
      H   37    0.17440      0.00000     0.32319    0.00241     0.32560
 =======================================================================
   * Total *    0.00000     15.99338    43.81032    0.19630    60.00000

 Normal termination of Gaussian 16 at Thu Dec 10 22:35:28 2020.
