 Gaussian 16, Revision A.03,

 -----------------------------------------------------------
 # opt freq B3LYP/6-31G(d) empiricaldispersion=gd3bj scf=xqc
 -----------------------------------------------------------

 -------------------------------
 CID_105479825_JID_6954_neutraal
 -------------------------------
 Symbolic Z-matrix:
 Charge =  0 Multiplicity = 1

 SCF Done:  E(RB3LYP) =  -689.529785343     A.U. after   14 cycles
 SCF Done:  E(RB3LYP) =  -689.539281064     A.U. after   12 cycles
 SCF Done:  E(RB3LYP) =  -689.541143156     A.U. after   11 cycles
 SCF Done:  E(RB3LYP) =  -689.543180911     A.U. after   12 cycles
 SCF Done:  E(RB3LYP) =  -689.543928142     A.U. after   14 cycles
 SCF Done:  E(RB3LYP) =  -689.546382928     A.U. after   12 cycles
 SCF Done:  E(RB3LYP) =  -689.547260653     A.U. after   11 cycles
 SCF Done:  E(RB3LYP) =  -689.547672201     A.U. after   11 cycles
 SCF Done:  E(RB3LYP) =  -689.547811348     A.U. after   11 cycles
 SCF Done:  E(RB3LYP) =  -689.547891034     A.U. after   10 cycles
 SCF Done:  E(RB3LYP) =  -689.548025458     A.U. after    7 cycles
 SCF Done:  E(RB3LYP) =  -689.548025826     A.U. after    7 cycles
 SCF Done:  E(RB3LYP) =  -689.548026189     A.U. after    7 cycles
 SCF Done:  E(RB3LYP) =  -689.548026343     A.U. after    7 cycles
 SCF Done:  E(RB3LYP) =  -689.548026379     A.U. after    7 cycles
 Optimization completed.
    -- Stationary point found.
 Normal termination of Gaussian 16 at Fri Dec 11 01:23:51 2020.

 --------------------------------------------------------------------
 #N Geom=AllCheck Guess=TCheck SCRF=Check GenChk RB3LYP/6-31G(d) Freq
 --------------------------------------------------------------------

 Structure from the checkpoint file:  "JID_6954.chk"
 -------------------------------
 CID_105479825_JID_6954_neutraal
 -------------------------------
 Charge =  0 Multiplicity = 1

 SCF Done:  E(RB3LYP) =  -689.548026379     A.U. after    1 cycles

  Exact polarizability: 193.960   2.509 141.055  -1.688   4.769 119.611
 Approx polarizability: 244.186  -0.311 214.921  -1.982  14.138 177.698

                      1                      2                      3
                      A                      A                      A
 Frequencies --     29.0458                57.7131                64.2935
 Red. masses --      3.3725                 3.0722                 3.1516
 Frc consts  --      0.0017                 0.0060                 0.0077
 IR Inten    --      0.1007                 1.5158                 0.1182

                      4                      5                      6
                      A                      A                      A
 Frequencies --     81.5632               115.4070               136.6926
 Red. masses --      3.2355                 3.4596                 1.9946
 Frc consts  --      0.0127                 0.0271                 0.0220
 IR Inten    --      1.2790                 1.8207                 3.6380

                      7                      8                      9
                      A                      A                      A
 Frequencies --    160.2013               166.6810               175.9171
 Red. masses --      2.1054                 1.2914                 1.9881
 Frc consts  --      0.0318                 0.0211                 0.0362
 IR Inten    --      0.0336                 0.0415                 2.7446

                     10                     11                     12
                      A                      A                      A
 Frequencies --    197.4228               216.0127               235.8369
 Red. masses --      1.6525                 1.4864                 1.0957
 Frc consts  --      0.0379                 0.0409                 0.0359
 IR Inten    --      0.4017                 0.7372                 2.3316

                     13                     14                     15
                      A                      A                      A
 Frequencies --    240.4949               255.4490               270.8330
 Red. masses --      2.5002                 1.6759                 2.5242
 Frc consts  --      0.0852                 0.0644                 0.1091
 IR Inten    --      2.6752                 0.7318                 1.5877

                     16                     17                     18
                      A                      A                      A
 Frequencies --    277.7022               297.0005               317.4814
 Red. masses --      3.0262                 1.3130                 1.9413
 Frc consts  --      0.1375                 0.0682                 0.1153
 IR Inten    --      3.4214                71.0561                23.5483

                     19                     20                     21
                      A                      A                      A
 Frequencies --    342.3037               346.7167               382.2165
 Red. masses --      3.0570                 3.1155                 2.3897
 Frc consts  --      0.2110                 0.2207                 0.2057
 IR Inten    --      0.9972                 2.2994                 8.2838

                     22                     23                     24
                      A                      A                      A
 Frequencies --    422.2500               450.6146               493.5338
 Red. masses --      2.6732                 3.2296                 3.3517
 Frc consts  --      0.2808                 0.3864                 0.4810
 IR Inten    --      0.9726                 3.1262                 6.0652

                     25                     26                     27
                      A                      A                      A
 Frequencies --    513.9150               586.9575               648.7360
 Red. masses --      3.5959                 3.7360                 2.7483
 Frc consts  --      0.5596                 0.7584                 0.6815
 IR Inten    --      1.6613                 3.3087                 1.4070

                     28                     29                     30
                      A                      A                      A
 Frequencies --    657.5013               695.3008               713.1984
 Red. masses --      7.5121                 3.2814                 3.4304
 Frc consts  --      1.9134                 0.9347                 1.0280
 IR Inten    --      0.4715                25.2603                 3.6004

                     31                     32                     33
                      A                      A                      A
 Frequencies --    732.5194               809.0326               879.3852
 Red. masses --      4.8182                 3.7809                 1.5333
 Frc consts  --      1.5233                 1.4581                 0.6986
 IR Inten    --      2.8885                 3.3609                 0.0941

                     34                     35                     36
                      A                      A                      A
 Frequencies --    884.2955               904.7758               928.4127
 Red. masses --      1.5007                 1.5465                 4.2003
 Frc consts  --      0.6914                 0.7459                 2.1331
 IR Inten    --     34.5587                35.8590                 7.1734

                     37                     38                     39
                      A                      A                      A
 Frequencies --    956.7747              1005.4065              1007.8360
 Red. masses --      1.3034                 2.1541                 2.3247
 Frc consts  --      0.7030                 1.2829                 1.3912
 IR Inten    --     31.7958                10.5212                19.2556

                     40                     41                     42
                      A                      A                      A
 Frequencies --   1026.0121              1037.7390              1047.6603
 Red. masses --      1.9401                 2.2347                 2.1586
 Frc consts  --      1.2033                 1.4179                 1.3959
 IR Inten    --     23.8337                 1.5559                 7.6091

                     43                     44                     45
                      A                      A                      A
 Frequencies --   1057.0633              1064.8536              1078.0971
 Red. masses --      1.8745                 2.2847                 1.4679
 Frc consts  --      1.2340                 1.5264                 1.0053
 IR Inten    --      2.8273                 4.0491                 2.3871

                     46                     47                     48
                      A                      A                      A
 Frequencies --   1084.8298              1087.6998              1130.1397
 Red. masses --      1.5555                 1.8033                 1.4323
 Frc consts  --      1.0786                 1.2570                 1.0779
 IR Inten    --      2.9774                 8.0000                 4.7544

                     49                     50                     51
                      A                      A                      A
 Frequencies --   1138.3616              1149.2851              1167.5138
 Red. masses --      1.9089                 1.0629                 2.1066
 Frc consts  --      1.4574                 0.8272                 1.6918
 IR Inten    --      0.8793                 0.6533                12.1572

                     52                     53                     54
                      A                      A                      A
 Frequencies --   1181.0350              1195.3754              1218.4641
 Red. masses --      1.6199                 2.0211                 1.6188
 Frc consts  --      1.3313                 1.7015                 1.4161
 IR Inten    --      3.9753                11.9567                 6.1798

                     55                     56                     57
                      A                      A                      A
 Frequencies --   1226.8332              1239.2834              1257.1741
 Red. masses --      2.1472                 2.3341                 2.9581
 Frc consts  --      1.9042                 2.1121                 2.7545
 IR Inten    --      1.5943                 1.7381                21.2655

                     58                     59                     60
                      A                      A                      A
 Frequencies --   1277.9437              1281.7075              1313.3970
 Red. masses --      1.8735                 2.0214                 1.5236
 Frc consts  --      1.8027                 1.9565                 1.5485
 IR Inten    --     15.3952                14.8995                 0.2556

                     61                     62                     63
                      A                      A                      A
 Frequencies --   1316.9203              1357.9992              1359.6805
 Red. masses --      1.3885                 1.2452                 1.6554
 Frc consts  --      1.4188                 1.3529                 1.8031
 IR Inten    --      3.7289                 0.4456                37.5304

                     64                     65                     66
                      A                      A                      A
 Frequencies --   1398.0938              1409.0630              1430.0975
 Red. masses --      1.5404                 4.6074                 1.3476
 Frc consts  --      1.7740                 5.3898                 1.6238
 IR Inten    --      6.9369               122.9502                 2.7404

                     67                     68                     69
                      A                      A                      A
 Frequencies --   1436.3149              1438.3545              1446.4494
 Red. masses --      1.3019                 1.7491                 1.3856
 Frc consts  --      1.5825                 2.1320                 1.7081
 IR Inten    --      2.2341                 2.4610                11.4825

                     70                     71                     72
                      A                      A                      A
 Frequencies --   1460.3529              1477.0054              1499.6143
 Red. masses --      1.2377                 1.1752                 1.7317
 Frc consts  --      1.5552                 1.5105                 2.2945
 IR Inten    --      4.9661                 5.2958                38.9120

                     73                     74                     75
                      A                      A                      A
 Frequencies --   1509.8385              1516.7101              1516.9402
 Red. masses --      1.4087                 1.2425                 1.2406
 Frc consts  --      1.8920                 1.6840                 1.6820
 IR Inten    --      6.1597                25.5700                 2.9685

                     76                     77                     78
                      A                      A                      A
 Frequencies --   1520.4409              1527.1384              1527.6322
 Red. masses --      1.1219                 1.0522                 1.4616
 Frc consts  --      1.5281                 1.4457                 2.0096
 IR Inten    --      3.5753                 2.5937                 3.2075

                     79                     80                     81
                      A                      A                      A
 Frequencies --   1531.2241              1537.5025              1542.0677
 Red. masses --      1.1446                 1.1166                 1.1148
 Frc consts  --      1.5812                 1.5552                 1.5619
 IR Inten    --      3.7734                 2.9209                 2.0250

                     82                     83                     84
                      A                      A                      A
 Frequencies --   1543.4400              1550.9178              1554.2322
 Red. masses --      1.0693                 1.1166                 1.4988
 Frc consts  --      1.5008                 1.5825                 2.1332
 IR Inten    --      0.6921                 5.1455                 6.5986

                     85                     86                     87
                      A                      A                      A
 Frequencies --   1611.4250              1686.7279              2937.5892
 Red. masses --      5.1096                 1.0904                 1.0608
 Frc consts  --      7.8173                 1.8278                 5.3936
 IR Inten    --     32.3805                31.9167               111.9764

                     88                     89                     90
                      A                      A                      A
 Frequencies --   2948.5303              2997.4549              3005.9256
 Red. masses --      1.0722                 1.0651                 1.0698
 Frc consts  --      5.4923                 5.6385                 5.6952
 IR Inten    --     70.9539                68.5485                72.4136

                     91                     92                     93
                      A                      A                      A
 Frequencies --   3038.6969              3048.5885              3052.5068
 Red. masses --      1.0446                 1.0376                 1.0806
 Frc consts  --      5.6832                 5.6816                 5.9323
 IR Inten    --     17.8970                19.9462                22.3997

                     94                     95                     96
                      A                      A                      A
 Frequencies --   3052.7751              3065.8872              3079.2799
 Red. masses --      1.0399                 1.0877                 1.0712
 Frc consts  --      5.7102                 6.0235                 5.9847
 IR Inten    --     35.6285                64.2890                40.5216

                     97                     98                     99
                      A                      A                      A
 Frequencies --   3086.0300              3089.6902              3100.2411
 Red. masses --      1.0976                 1.0970                 1.1008
 Frc consts  --      6.1588                 6.1698                 6.2339
 IR Inten    --     28.8148                32.4309                21.3422

                    100                    101                    102
                      A                      A                      A
 Frequencies --   3104.7890              3116.7539              3122.2168
 Red. masses --      1.0923                 1.1010                 1.1044
 Frc consts  --      6.2039                 6.3015                 6.3429
 IR Inten    --      7.6965                43.9510                21.5935

                    103                    104                    105
                      A                      A                      A
 Frequencies --   3129.9603              3139.9586              3142.3532
 Red. masses --      1.1016                 1.1003                 1.1038
 Frc consts  --      6.3582                 6.3916                 6.4220
 IR Inten    --     32.6407                10.5318                10.3900

                    106                    107                    108
                      A                      A                      A
 Frequencies --   3171.8176              3463.7979              3548.4804
 Red. masses --      1.0873                 1.0498                 1.0919
 Frc consts  --      6.4449                 7.4209                 8.1007
 IR Inten    --      6.8578                 3.8208                 0.0868

 - Thermochemistry -
 -------------------
 Temperature   298.150 Kelvin.  Pressure   1.00000 Atm.
 Atom     1 has atomic number  6 and mass  12.00000

 Molecular mass:   222.18445 amu.
 Principal axes and moments of inertia in atomic units:
                           1         2         3
     Eigenvalues --  1834.251305995.815566779.22524
           X            0.99998   0.00536  -0.00153
           Y           -0.00536   0.99998   0.00326
           Z            0.00154  -0.00325   0.99999
 This molecule is an asymmetric top.
 Rotational symmetry number  1.
 Warning -- assumption of classical behavior for rotation
           may cause significant error
 Rotational temperatures (Kelvin)      0.04722     0.01445     0.01278
 Rotational constants (GHZ):           0.98391     0.30100     0.26622
 Zero-point vibrational energy     891621.1 (Joules/Mol)
                                  213.10256 (Kcal/Mol)
 Warning -- explicit consideration of  26 degrees of freedom as
           vibrations may cause significant error
 Vibrational temperatures:     41.79    83.04    92.50   117.35   166.04
          (Kelvin)            196.67   230.49   239.82   253.11   284.05
                              310.79   339.32   346.02   367.53   389.67
                              399.55   427.32   456.78   492.50   498.85
                              549.92   607.52   648.33   710.09   739.41
                              844.50   933.39   946.00  1000.38  1026.13
                             1053.93  1164.02  1265.24  1272.30  1301.77
                             1335.78  1376.59  1446.56  1450.05  1476.20
                             1493.08  1507.35  1520.88  1532.09  1551.14
                             1560.83  1564.96  1626.02  1637.85  1653.56
                             1679.79  1699.25  1719.88  1753.10  1765.14
                             1783.05  1808.79  1838.68  1844.09  1889.69
                             1894.75  1953.86  1956.28  2011.55  2027.33
                             2057.59  2066.54  2069.47  2081.12  2101.12
                             2125.08  2157.61  2172.32  2182.21  2182.54
                             2187.58  2197.21  2197.92  2203.09  2212.12
                             2218.69  2220.67  2231.42  2236.19  2318.48
                             2426.83  4226.54  4242.28  4312.67  4324.86
                             4372.01  4386.24  4391.88  4392.26  4411.13
                             4430.40  4440.11  4445.38  4460.56  4467.10
                             4484.31  4492.17  4503.31  4517.70  4521.15
                             4563.54  4983.63  5105.47

 Zero-point correction=                           0.339601 (Hartree/Particle)
 Thermal correction to Energy=                    0.357042
 Thermal correction to Enthalpy=                  0.357986
 Thermal correction to Gibbs Free Energy=         0.294728
 Sum of electronic and zero-point Energies=           -689.208426
 Sum of electronic and thermal Energies=              -689.190984
 Sum of electronic and thermal Enthalpies=            -689.190040
 Sum of electronic and thermal Free Energies=         -689.253298

                     E (Thermal)             CV                S
                      KCal/Mol        Cal/Mol-Kelvin    Cal/Mol-Kelvin
 Total                  224.047             65.381            133.138
 Electronic               0.000              0.000              0.000
 Translational            0.889              2.981             42.098
 Rotational               0.889              2.981             32.678
 Vibrational            222.270             59.419             58.362
 Vibration     1          0.593              1.984              5.894
 Vibration     2          0.596              1.974              4.534
 Vibration     3          0.597              1.971              4.321
 Vibration     4          0.600              1.962              3.853
 Vibration     5          0.608              1.937              3.176
 Vibration     6          0.614              1.917              2.850
 Vibration     7          0.622              1.891              2.547
 Vibration     8          0.624              1.883              2.473
 Vibration     9          0.628              1.872              2.371
 Vibration    10          0.637              1.843              2.157
 Vibration    11          0.645              1.817              1.992
 Vibration    12          0.655              1.786              1.834
 Vibration    13          0.658              1.778              1.799
 Vibration    14          0.666              1.754              1.693
 Vibration    15          0.675              1.727              1.591
 Vibration    16          0.679              1.715              1.548
 Vibration    17          0.691              1.679              1.434
 Vibration    18          0.704              1.640              1.323
 Vibration    19          0.721              1.591              1.201
 Vibration    20          0.725              1.582              1.181
 Vibration    21          0.752              1.508              1.030
 Vibration    22          0.785              1.422              0.884
 Vibration    23          0.809              1.360              0.794
 Vibration    24          0.849              1.264              0.674
 Vibration    25          0.869              1.219              0.624
 Vibration    26          0.944              1.060              0.473

 Optimization completed.
    -- Stationary point found.
 Normal termination of Gaussian 16 at Fri Dec 11 01:36:37 2020.

 ----------------------------------------------------------------------
 # B3LYP/6-311++G(d,p) empiricaldispersion=gd3bj scf=xqc pop=npa geom=c
 heck
 ----------------------------------------------------------------------

 ---------------------------------------
 CID_105479825_JID_6954_Energie_neutraal
 ---------------------------------------
 Structure from the checkpoint file:  "JID_6954.chk"
 Charge =  0 Multiplicity = 1

 SCF Done:  E(RB3LYP) =  -689.738020995     A.U. after   15 cycles
 Normal termination of Gaussian 16 at Fri Dec 11 01:42:34 2020.

 ----------------------------------------------------------------------
 # B3LYP/6-311++G(d,p) empiricaldispersion=gd3bj scf=xqc pop=npa geom=c
 heck
 ----------------------------------------------------------------------

 -------------------------------------
 CID_105479825_JID_6954_Energie_kation
 -------------------------------------
 Structure from the checkpoint file:  "JID_6954.chk"
 Charge =  1 Multiplicity = 2

 SCF Done:  E(UB3LYP) =  -689.455290791     A.U. after   31 cycles
 Normal termination of Gaussian 16 at Fri Dec 11 01:58:43 2020.
 Gaussian 16:  ES64L-G16RevA.03 25-Dec-2016

 ----------------------------------------------------------------------
 # B3LYP/6-311++G(d,p) empiricaldispersion=gd3bj scf=xqc pop=npa geom=c
 heck
 ----------------------------------------------------------------------

 ------------------------------------
 CID_105479825_JID_6954_Energie_anion
 ------------------------------------
 Structure from the checkpoint file:  "JID_6954.chk"
 Charge = -1 Multiplicity = 2

                         Standard orientation:
 ---------------------------------------------------------------------
 Center     Atomic      Atomic             Coordinates (Angstroms)
 Number     Number       Type             X           Y           Z
 ---------------------------------------------------------------------
      1          6           0       -0.488706   -1.553737   -0.825136
      2          6           0        0.085655   -0.245965   -0.370700
      3          6           0        1.423261    0.126734   -0.284705
      4          6           0        1.403628    1.459079    0.216186
      5          7           0        0.155202    1.879894    0.412346
      6          7           0       -0.643061    0.837616    0.045909
      7          6           0       -2.066455    1.029561    0.208126
      8          6           0       -3.010522    0.578507   -0.936598
      9          7           0       -3.478427   -0.546588   -0.101860
     10          6           0       -2.846919    0.028865    1.102992
     11          6           0       -4.893885   -0.838469   -0.067653
     12          6           0        2.540584    2.386496    0.525066
     13          6           0        2.594958   -0.763398   -0.619980
     14          6           0        3.659918   -0.070839   -1.483282
     15          6           0        3.224956   -1.359378    0.652970
     16          7           0        2.229431   -2.131451    1.402828
     17          1           0       -1.551179   -1.647039   -0.587308
     18          1           0        0.055940   -2.374253   -0.347694
     19          1           0       -0.377505   -1.673561   -1.910961
     20          1           0       -2.166902    2.072598    0.499678
     21          1           0       -3.788294    1.331268   -1.141677
     22          1           0       -2.540949    0.282620   -1.881267
     23          1           0       -2.249100   -0.679403    1.687817
     24          1           0       -3.554709    0.543603    1.772246
     25          1           0       -5.510391    0.036617    0.217931
     26          1           0       -5.223732   -1.181614   -1.054253
     27          1           0       -5.087475   -1.642184    0.650955
     28          1           0        3.289376    1.910789    1.168763
     29          1           0        3.056218    2.716626   -0.384461
     30          1           0        2.155977    3.272428    1.037536
     31          1           0        2.204910   -1.614347   -1.191466
     32          1           0        4.173249    0.724768   -0.933955
     33          1           0        4.419230   -0.791795   -1.808033
     34          1           0        3.208627    0.375992   -2.375147
     35          1           0        4.034206   -2.041024    0.362019
     36          1           0        3.689205   -0.542469    1.236135
     37          1           0        2.657156   -2.529129    2.237295
     38          1           0        1.505303   -1.491531    1.727570
 ---------------------------------------------------------------------

 SCF Done:  E(UB3LYP) =  -689.724205054     A.U. after   33 cycles
 SCF Done:  E(UB3LYP) =  -689.724205053     a.u. after    1 cycles

 The electronic state is 2-A.
 Alpha  occ. eigenvalues --  -14.28567 -14.22321 -14.21564 -14.19741 -10.12737
 Alpha  occ. eigenvalues --  -10.11186 -10.10831 -10.10708 -10.09778 -10.09631
 Alpha  occ. eigenvalues --  -10.09329 -10.08661 -10.07692 -10.07222 -10.06992
 Alpha  occ. eigenvalues --  -10.06530  -0.94633  -0.85808  -0.79183  -0.74977
 Alpha  occ. eigenvalues --   -0.71773  -0.68318  -0.66088  -0.62088  -0.60354
 Alpha  occ. eigenvalues --   -0.59666  -0.57436  -0.55780  -0.51473  -0.47819
 Alpha  occ. eigenvalues --   -0.46328  -0.44231  -0.40884  -0.40090  -0.40017
 Alpha  occ. eigenvalues --   -0.37799  -0.37486  -0.36255  -0.35204  -0.34464
 Alpha  occ. eigenvalues --   -0.33285  -0.32756  -0.32140  -0.31215  -0.31016
 Alpha  occ. eigenvalues --   -0.30740  -0.30576  -0.29299  -0.28746  -0.27832
 Alpha  occ. eigenvalues --   -0.26708  -0.26061  -0.25872  -0.24790  -0.24356
 Alpha  occ. eigenvalues --   -0.24039  -0.19262  -0.15402  -0.14318  -0.13381
 Alpha  occ. eigenvalues --   -0.13182   0.04106
 Alpha virt. eigenvalues --    0.05467   0.06580   0.07177   0.07720   0.07769
 Alpha virt. eigenvalues --    0.08120   0.09481   0.09755   0.10156   0.10411
 Alpha virt. eigenvalues --    0.10579   0.10740   0.11086   0.11376   0.12098

  Beta  occ. eigenvalues --  -14.28566 -14.22316 -14.21557 -14.19714 -10.12734
  Beta  occ. eigenvalues --  -10.11186 -10.10810 -10.10687 -10.09758 -10.09630
  Beta  occ. eigenvalues --  -10.09285 -10.08658 -10.07680 -10.07208 -10.06981
  Beta  occ. eigenvalues --  -10.06529  -0.94629  -0.85793  -0.79143  -0.74968
  Beta  occ. eigenvalues --   -0.71760  -0.68297  -0.66064  -0.62060  -0.60337
  Beta  occ. eigenvalues --   -0.59618  -0.57390  -0.55731  -0.51423  -0.47777
  Beta  occ. eigenvalues --   -0.46305  -0.44197  -0.40836  -0.40059  -0.39985
  Beta  occ. eigenvalues --   -0.37781  -0.37454  -0.36220  -0.35178  -0.34439
  Beta  occ. eigenvalues --   -0.33267  -0.32740  -0.32113  -0.31190  -0.30992
  Beta  occ. eigenvalues --   -0.30720  -0.30558  -0.29273  -0.28721  -0.27803
  Beta  occ. eigenvalues --   -0.26680  -0.26031  -0.25844  -0.24772  -0.24333
  Beta  occ. eigenvalues --   -0.24013  -0.19242  -0.15373  -0.14311  -0.13356
  Beta  occ. eigenvalues --   -0.13148
  Beta virt. eigenvalues --    0.05968   0.06575   0.07094   0.07414   0.08199
  Beta virt. eigenvalues --    0.08237   0.08716   0.09533   0.09898   0.10514
  Beta virt. eigenvalues --    0.10675   0.10865   0.11253   0.11310   0.11586

 Mulliken charges and spin densities:
               1          2
     1  C    0.517706  -1.227387
     2  C   -0.236050   0.178064
     3  C    1.709757  -1.033705
     4  C    0.366980  -0.476616
     5  N   -0.013157   0.089564
     6  N    0.365070  -0.094364
     7  C   -1.884562   1.578151
     8  C    0.518475  -0.962179
     9  N   -0.105010   0.151276
    10  C    0.531818  -0.974212
    11  C    1.202822  -1.522739
    12  C    0.457486  -1.101598
    13  C   -3.305398   3.207342
    14  C    0.088193  -0.766630
    15  C    0.605650  -1.246214
    16  N   -0.470441   0.064790
    17  H    0.445986  -0.233430
    18  H    0.097798   0.095357
    19  H   -0.042336   0.209226
    20  H   -0.053368   0.315915
    21  H   -0.410012   0.545588
    22  H   -0.040754   0.238923
    23  H   -0.098416   0.302806
    24  H   -0.322285   0.448577
    25  H   -0.297505   0.416964
    26  H   -0.333478   0.480932
    27  H   -0.320769   0.466971
    28  H   -0.023979   0.175253
    29  H    0.056940   0.103753
    30  H    0.123486   0.025898
    31  H    0.157548   0.026798
    32  H    0.086539   0.051580
    33  H   -0.163127   0.310139
    34  H    0.032007   0.115718
    35  H   -0.241769   0.395946
    36  H   -0.148381   0.289449
    37  H   -0.057636   0.308268
    38  H    0.204174   0.045825
 Sum of Mulliken charges =  -1.00000   1.00000

 Dipole moment (field-independent basis, Debye):
    X=              4.5684    Y=              1.8341    Z=             -1.4032  Tot=              5.1189
 Quadrupole moment (field-independent basis, Debye-Ang):
   XX=           -207.6688   YY=           -144.3468   ZZ=           -136.2261
   XY=              5.1826   XZ=             -3.4285   YZ=              2.8205

 Summary of Natural Population Analysis:

                                       Natural Population
                Natural  -----------------------------------------------
    Atom  No    Charge         Core      Valence    Rydberg      Total
 -----------------------------------------------------------------------
      C    1   -0.31883      0.99962     2.31385    0.00535     3.31883
      C    2    0.10024      0.99947     1.88967    0.01062     2.89976
      C    3   -0.07522      0.99941     2.06504    0.01077     3.07522
      C    4    0.07690      0.99954     1.91025    0.01331     2.92310
      N    5   -0.16388      0.99970     2.65379    0.01038     3.66388
      N    6   -0.11480      0.99960     2.60211    0.01309     3.61480
      C    7   -0.01202      0.99956     1.99859    0.01387     3.01202
      C    8   -0.08014      0.99963     2.07012    0.01039     3.08014
      N    9   -0.28835      0.99974     2.77500    0.01362     3.78835
      C   10   -0.07915      0.99963     2.06951    0.01001     3.07915
      C   11   -0.17457      0.99964     2.16608    0.00884     3.17457
      C   12   -0.29744      0.99963     2.29330    0.00451     3.29744
      C   13   -0.12302      0.99957     2.11174    0.01171     3.12302
      C   14   -0.27956      0.99965     2.27533    0.00458     3.27956
      C   15   -0.08070      0.99961     2.06934    0.01175     3.08070
      N   16   -0.42388      0.99977     2.91388    0.01022     3.92388
      H   17    0.12078      0.00000     0.37695    0.00227     0.37922
      H   18    0.11647      0.00000     0.38194    0.00159     0.38353
      H   19    0.10414      0.00000     0.39461    0.00125     0.39586
      H   20    0.11264      0.00000     0.38560    0.00176     0.38736
      H   21    0.09200      0.00000     0.40664    0.00136     0.40800
      H   22    0.09691      0.00000     0.40169    0.00140     0.40309
      H   23    0.09714      0.00000     0.40136    0.00150     0.40286
      H   24    0.09132      0.00000     0.40733    0.00135     0.40868
      H   25    0.08212      0.00000     0.41520    0.00268     0.41788
      H   26    0.09737      0.00000     0.40104    0.00158     0.40263
      H   27    0.09740      0.00000     0.40110    0.00149     0.40260
      H   28    0.10214      0.00000     0.39641    0.00145     0.39786
      H   29    0.10135      0.00000     0.39739    0.00126     0.39865
      H   30    0.10792      0.00000     0.39102    0.00106     0.39208
      H   31    0.10228      0.00000     0.39552    0.00220     0.39772
      H   32    0.09701      0.00000     0.40177    0.00121     0.40299
      H   33    0.09751      0.00000     0.40151    0.00099     0.40249
      H   34    0.10070      0.00000     0.39836    0.00093     0.39930
      H   35    0.08884      0.00000     0.40991    0.00125     0.41116
      H   36    0.07652      0.00000     0.42152    0.00196     0.42348
      H   37    0.17552      0.00000     0.32263    0.00185     0.32448
      H   38    0.17634      0.00000     0.32151    0.00215     0.32366
 =======================================================================
   * Total *   -0.00000     15.99379    44.80862    0.19759    61.00000

 Normal termination of Gaussian 16 at Fri Dec 11 02:15:33 2020.
