 Gaussian 16, Revision A.03,

 -----------------------------------------------------------
 # opt freq B3LYP/6-31G(d) empiricaldispersion=gd3bj scf=xqc
 -----------------------------------------------------------

 ------------------------------
 CID_84626354_JID_7313_neutraal
 ------------------------------
 Symbolic Z-matrix:
 Charge =  0 Multiplicity = 1

 SCF Done:  E(RB3LYP) =  -694.430092881     A.U. after   14 cycles
 SCF Done:  E(RB3LYP) =  -694.436214567     A.U. after   12 cycles
 SCF Done:  E(RB3LYP) =  -694.436609759     A.U. after   12 cycles
 SCF Done:  E(RB3LYP) =  -694.437139510     A.U. after   11 cycles
 SCF Done:  E(RB3LYP) =  -694.437375195     A.U. after   10 cycles
 SCF Done:  E(RB3LYP) =  -694.437598685     A.U. after   11 cycles
 SCF Done:  E(RB3LYP) =  -694.437679726     A.U. after   11 cycles
 SCF Done:  E(RB3LYP) =  -694.437720802     A.U. after   10 cycles
 SCF Done:  E(RB3LYP) =  -694.437760716     A.U. after   11 cycles
 SCF Done:  E(RB3LYP) =  -694.437901018     A.U. after   11 cycles
 SCF Done:  E(RB3LYP) =  -694.439561863     A.U. after   10 cycles
 SCF Done:  E(RB3LYP) =  -694.439564409     A.U. after    9 cycles
 SCF Done:  E(RB3LYP) =  -694.439565069     A.U. after    8 cycles
 SCF Done:  E(RB3LYP) =  -694.439565335     A.U. after    7 cycles
 SCF Done:  E(RB3LYP) =  -694.439565390     A.U. after    7 cycles
 Optimization completed.
    -- Stationary point found.
 Normal termination of Gaussian 16 at Fri Dec 11 12:19:45 2020.

 --------------------------------------------------------------------
 #N Geom=AllCheck Guess=TCheck SCRF=Check GenChk RB3LYP/6-31G(d) Freq
 --------------------------------------------------------------------

 Structure from the checkpoint file:  "JID_7313.chk"
 ------------------------------
 CID_84626354_JID_7313_neutraal
 ------------------------------
 Charge =  0 Multiplicity = 1

 SCF Done:  E(RB3LYP) =  -694.439565390     A.U. after    1 cycles

  Exact polarizability: 259.436  -0.299 162.916  -0.469   0.693 108.416
 Approx polarizability: 343.973  -1.636 276.611   1.218   0.015 157.377

                      1                      2                      3
                      A                      A                      A
 Frequencies --     33.8989                53.6266                84.1759
 Red. masses --      2.9739                 3.1367                 3.5364
 Frc consts  --      0.0020                 0.0053                 0.0148
 IR Inten    --      0.1727                 0.2598                 0.1996

                      4                      5                      6
                      A                      A                      A
 Frequencies --     96.3632               126.4319               154.9099
 Red. masses --      2.9991                 3.4983                 2.5396
 Frc consts  --      0.0164                 0.0329                 0.0359
 IR Inten    --      1.3117                 0.4409                 1.3769

                      7                      8                      9
                      A                      A                      A
 Frequencies --    200.0180               211.8533               230.2490
 Red. masses --      1.5238                 2.1317                 2.3567
 Frc consts  --      0.0359                 0.0564                 0.0736
 IR Inten    --      2.0133                 1.0294                 0.1947

                     10                     11                     12
                      A                      A                      A
 Frequencies --    234.5974               237.8704               247.3135
 Red. masses --      1.4149                 1.2960                 1.6266
 Frc consts  --      0.0459                 0.0432                 0.0586
 IR Inten    --      0.1707                 0.4053                 1.1415

                     13                     14                     15
                      A                      A                      A
 Frequencies --    263.3351               264.6279               299.7525
 Red. masses --      2.3838                 1.3174                 1.6896
 Frc consts  --      0.0974                 0.0544                 0.0894
 IR Inten    --      1.5232                 0.2597                15.3066

                     16                     17                     18
                      A                      A                      A
 Frequencies --    311.6592               323.3292               336.7446
 Red. masses --      1.0467                 2.1621                 2.3086
 Frc consts  --      0.0599                 0.1332                 0.1542
 IR Inten    --      1.0913                 7.5047                10.1428

                     19                     20                     21
                      A                      A                      A
 Frequencies --    342.8537               360.8999               406.7046
 Red. masses --      2.2716                 2.6631                 2.8921
 Frc consts  --      0.1573                 0.2044                 0.2818
 IR Inten    --     12.5187                14.4362                 0.4725

                     22                     23                     24
                      A                      A                      A
 Frequencies --    432.6784               447.2101               449.4612
 Red. masses --      2.9335                 3.0568                 3.4600
 Frc consts  --      0.3236                 0.3602                 0.4118
 IR Inten    --      2.5978                 0.8981                 6.8880

                     25                     26                     27
                      A                      A                      A
 Frequencies --    479.8183               545.9497               569.0756
 Red. masses --      3.5045                 2.9182                 3.9247
 Frc consts  --      0.4754                 0.5125                 0.7489
 IR Inten    --      0.9651                 0.7950                11.6066

                     28                     29                     30
                      A                      A                      A
 Frequencies --    590.0202               653.7257               655.8280
 Red. masses --      3.0669                 3.1577                 4.4348
 Frc consts  --      0.6290                 0.7951                 1.1239
 IR Inten    --      3.2883                 5.8949                 2.1504

                     31                     32                     33
                      A                      A                      A
 Frequencies --    689.5954               690.1720               765.7841
 Red. masses --      3.5370                 3.5168                 2.7557
 Frc consts  --      0.9910                 0.9870                 0.9521
 IR Inten    --      3.2363                 1.2016                 6.7453

                     34                     35                     36
                      A                      A                      A
 Frequencies --    786.2299               798.2308               815.9250
 Red. masses --      5.2751                 1.7807                 1.6720
 Frc consts  --      1.9212                 0.6685                 0.6558
 IR Inten    --      1.5863                10.8278                15.9307

                     37                     38                     39
                      A                      A                      A
 Frequencies --    818.9819               878.1240               895.6272
 Red. masses --      3.5327                 2.5425                 1.4704
 Frc consts  --      1.3961                 1.1551                 0.6949
 IR Inten    --     12.4434                18.8476                 9.4630

                     40                     41                     42
                      A                      A                      A
 Frequencies --    904.4177               930.4360               934.1843
 Red. masses --      2.8388                 1.2807                 1.6723
 Frc consts  --      1.3681                 0.6533                 0.8599
 IR Inten    --      9.6220                 2.7854                71.9618

                     43                     44                     45
                      A                      A                      A
 Frequencies --    941.4701               945.0914               970.8238
 Red. masses --      1.1829                 1.4219                 2.5798
 Frc consts  --      0.6177                 0.7483                 1.4326
 IR Inten    --      0.8220                14.9438                 5.3328

                     46                     47                     48
                      A                      A                      A
 Frequencies --    972.9180               974.3766              1041.4738
 Red. masses --      1.4893                 1.7206                 1.3191
 Frc consts  --      0.8306                 0.9624                 0.8430
 IR Inten    --      0.0251                 3.2408                 7.1694

                     49                     50                     51
                      A                      A                      A
 Frequencies --   1077.9182              1107.5611              1127.5285
 Red. masses --      1.5712                 1.4725                 1.9727
 Frc consts  --      1.0756                 1.0642                 1.4777
 IR Inten    --     16.8063                 4.5304                28.2741

                     52                     53                     54
                      A                      A                      A
 Frequencies --   1136.2829              1137.5772              1166.8661
 Red. masses --      2.2864                 2.7360                 1.2806
 Frc consts  --      1.7393                 2.0861                 1.0273
 IR Inten    --      1.1481                 8.7400                 7.4524

                     55                     56                     57
                      A                      A                      A
 Frequencies --   1176.5554              1188.3529              1203.8203
 Red. masses --      1.5985                 1.3964                 1.6149
 Frc consts  --      1.3037                 1.1619                 1.3789
 IR Inten    --      0.2762                17.1584                 4.9403

                     58                     59                     60
                      A                      A                      A
 Frequencies --   1218.7490              1245.5871              1254.6225
 Red. masses --      2.2770                 1.9346                 2.7798
 Frc consts  --      1.9927                 1.7684                 2.5780
 IR Inten    --     14.4588                 8.4990                41.1047

                     61                     62                     63
                      A                      A                      A
 Frequencies --   1277.3865              1328.9075              1353.8078
 Red. masses --      2.1547                 2.1836                 2.1246
 Frc consts  --      2.0715                 2.2720                 2.2942
 IR Inten    --      5.8229                11.6832                54.1506

                     64                     65                     66
                      A                      A                      A
 Frequencies --   1357.9397              1363.1469              1389.5736
 Red. masses --      2.3789                 1.3234                 2.9146
 Frc consts  --      2.5846                 1.4488                 3.3159
 IR Inten    --      7.3398                 3.4855                38.6765

                     67                     68                     69
                      A                      A                      A
 Frequencies --   1414.9800              1423.1638              1424.8834
 Red. masses --      2.6213                 1.4193                 1.2337
 Frc consts  --      3.0922                 1.6937                 1.4758
 IR Inten    --     35.6916                 7.3593                 3.0274

                     70                     71                     72
                      A                      A                      A
 Frequencies --   1432.9836              1443.8546              1445.8097
 Red. masses --      3.3346                 1.2332                 1.2293
 Frc consts  --      4.0344                 1.5148                 1.5141
 IR Inten    --     46.0022                 8.9364                 3.0423

                     73                     74                     75
                      A                      A                      A
 Frequencies --   1479.0990              1502.4284              1511.8097
 Red. masses --      1.3178                 3.1825                 1.0505
 Frc consts  --      1.6986                 4.2325                 1.4146
 IR Inten    --      7.0820                20.6754                 0.9142

                     76                     77                     78
                      A                      A                      A
 Frequencies --   1516.5469              1517.5057              1521.3196
 Red. masses --      1.1009                 1.0442                 1.0495
 Frc consts  --      1.4918                 1.4167                 1.4311
 IR Inten    --      0.7211                 0.0406                 1.7560

                     79                     80                     81
                      A                      A                      A
 Frequencies --   1524.6294              1530.6674              1532.5447
 Red. masses --      2.0524                 1.0668                 1.0610
 Frc consts  --      2.8108                 1.4727                 1.4683
 IR Inten    --     21.7974                 4.7299                 4.6615

                     82                     83                     84
                      A                      A                      A
 Frequencies --   1538.2433              1539.8668              1543.7027
 Red. masses --      1.0945                 1.0966                 1.2063
 Frc consts  --      1.5259                 1.5320                 1.6937
 IR Inten    --      3.8422                 3.6021                17.1932

                     85                     86                     87
                      A                      A                      A
 Frequencies --   1552.3877              1592.9158              1630.8479
 Red. masses --      1.0820                 4.9723                 6.1187
 Frc consts  --      1.5364                 7.4336                 9.5882
 IR Inten    --      9.2120                 2.5306                 2.0366

                     88                     89                     90
                      A                      A                      A
 Frequencies --   1677.2349              1684.7082              3030.1660
 Red. masses --      5.9385                 1.1201                 1.0842
 Frc consts  --      9.8427                 1.8731                 5.8655
 IR Inten    --      1.1389                33.9375                17.2273

                     91                     92                     93
                      A                      A                      A
 Frequencies --   3036.2567              3041.1661              3045.7701
 Red. masses --      1.0437                 1.0350                 1.0355
 Frc consts  --      5.6689                 5.6397                 5.6595
 IR Inten    --     66.9323                27.4290                45.5802

                     94                     95                     96
                      A                      A                      A
 Frequencies --   3047.6144              3053.8588              3103.7570
 Red. masses --      1.0371                 1.0411                 1.0967
 Frc consts  --      5.6754                 5.7204                 6.2246
 IR Inten    --     15.3116                45.2002                25.9501

                     97                     98                     99
                      A                      A                      A
 Frequencies --   3104.2550              3110.7858              3116.3164
 Red. masses --      1.1022                 1.1015                 1.1013
 Frc consts  --      6.2581                 6.2805                 6.3012
 IR Inten    --      0.4090               102.4550                18.6555

                    100                    101                    102
                      A                      A                      A
 Frequencies --   3119.2124              3121.1305              3124.4313
 Red. masses --      1.1025                 1.1020                 1.0977
 Frc consts  --      6.3202                 6.3251                 6.3138
 IR Inten    --     25.3769                34.8858                34.0141

                    103                    104                    105
                      A                      A                      A
 Frequencies --   3128.7404              3159.1817              3173.9303
 Red. masses --      1.1008                 1.1013                 1.0897
 Frc consts  --      6.3488                 6.4761                 6.4680
 IR Inten    --     37.9569                16.8023                22.1370

                    106                    107                    108
                      A                      A                      A
 Frequencies --   3177.9018              3183.6165              3203.9398
 Red. masses --      1.1005                 1.0862                 1.0937
 Frc consts  --      6.5483                 6.4865                 6.6149
 IR Inten    --      6.7486                12.3297                20.8982

                    109                    110                    111
                      A                      A                      A
 Frequencies --   3271.5669              3446.9500              3536.4533
 Red. masses --      1.0948                 1.0492                 1.0926
 Frc consts  --      6.9041                 7.3450                 8.0508
 IR Inten    --      6.5150                 4.4595                 2.3874

 - Thermochemistry -
 -------------------
 Temperature   298.150 Kelvin.  Pressure   1.00000 Atm.
 Atom     1 has atomic number  6 and mass  12.00000

 Molecular mass:   230.17830 amu.
 Principal axes and moments of inertia in atomic units:
                           1         2         3
     Eigenvalues --  1455.549378215.321898881.94993
           X            1.00000   0.00137  -0.00213
           Y           -0.00136   0.99998   0.00583
           Z            0.00213  -0.00583   0.99998
 This molecule is an asymmetric top.
 Rotational symmetry number  1.
 Warning -- assumption of classical behavior for rotation
           may cause significant error
 Rotational temperatures (Kelvin)      0.05951     0.01054     0.00975
 Rotational constants (GHZ):           1.23990     0.21968     0.20319
 Zero-point vibrational energy     908146.0 (Joules/Mol)
                                  217.05211 (Kcal/Mol)
 Warning -- explicit consideration of  28 degrees of freedom as
           vibrations may cause significant error
 Vibrational temperatures:     48.77    77.16   121.11   138.65   181.91
          (Kelvin)            222.88   287.78   304.81   331.28   337.53
                              342.24   355.83   378.88   380.74   431.28
                              448.41   465.20   484.50   493.29   519.25
                              585.16   622.53   643.44   646.67   690.35
                              785.50   818.77   848.91   940.57   943.59
                              992.17   993.00  1101.79  1131.21  1148.48
                             1173.93  1178.33  1263.42  1288.61  1301.26
                             1338.69  1344.08  1354.57  1359.78  1396.80
                             1399.81  1401.91  1498.45  1550.88  1593.53
                             1622.26  1634.86  1636.72  1678.86  1692.80
                             1709.77  1732.03  1753.51  1792.12  1805.12
                             1837.87  1912.00  1947.83  1953.77  1961.26
                             1999.29  2035.84  2047.62  2050.09  2061.74
                             2077.38  2080.20  2128.09  2161.66  2175.16
                             2181.97  2183.35  2188.84  2193.60  2202.29
                             2204.99  2213.19  2215.52  2221.04  2233.54
                             2291.85  2346.43  2413.17  2423.92  4359.73
                             4368.50  4375.56  4382.18  4384.84  4393.82
                             4465.61  4466.33  4475.73  4483.68  4487.85
                             4490.61  4495.36  4501.56  4545.36  4566.58
                             4572.29  4580.51  4609.75  4707.06  4959.39
                             5088.17

 Zero-point correction=                           0.345895 (Hartree/Particle)
 Thermal correction to Energy=                    0.363305
 Thermal correction to Enthalpy=                  0.364249
 Thermal correction to Gibbs Free Energy=         0.301971
 Sum of electronic and zero-point Energies=           -694.093671
 Sum of electronic and thermal Energies=              -694.076261
 Sum of electronic and thermal Enthalpies=            -694.075317
 Sum of electronic and thermal Free Energies=         -694.137594

                     E (Thermal)             CV                S
                      KCal/Mol        Cal/Mol-Kelvin    Cal/Mol-Kelvin
 Total                  227.977             68.668            131.074
 Electronic               0.000              0.000              0.000
 Translational            0.889              2.981             42.203
 Rotational               0.889              2.981             33.029
 Vibrational            226.200             62.706             55.842
 Vibration     1          0.594              1.983              5.587
 Vibration     2          0.596              1.976              4.679
 Vibration     3          0.601              1.960              3.791
 Vibration     4          0.603              1.952              3.527
 Vibration     5          0.611              1.927              3.000
 Vibration     6          0.620              1.897              2.611
 Vibration     7          0.638              1.840              2.133
 Vibration     8          0.643              1.823              2.028
 Vibration     9          0.652              1.795              1.877
 Vibration    10          0.654              1.788              1.843
 Vibration    11          0.656              1.783              1.819
 Vibration    12          0.661              1.767              1.750
 Vibration    13          0.670              1.740              1.640
 Vibration    14          0.671              1.738              1.631
 Vibration    15          0.692              1.674              1.418
 Vibration    16          0.700              1.651              1.354
 Vibration    17          0.708              1.629              1.293
 Vibration    18          0.717              1.602              1.228
 Vibration    19          0.722              1.590              1.199
 Vibration    20          0.735              1.553              1.118
 Vibration    21          0.771              1.456              0.938
 Vibration    22          0.794              1.399              0.850
 Vibration    23          0.806              1.367              0.804
 Vibration    24          0.808              1.362              0.797
 Vibration    25          0.836              1.295              0.711
 Vibration    26          0.901              1.149              0.553
 Vibration    27          0.925              1.098              0.506
 Vibration    28          0.947              1.053              0.467

                           ! Non-Optimized Parameters !
 Normal termination of Gaussian 16 at Fri Dec 11 12:35:51 2020.

 ----------------------------------------------------------------------
 # B3LYP/6-311++G(d,p) empiricaldispersion=gd3bj scf=xqc pop=npa geom=c
 heck
 ----------------------------------------------------------------------

 --------------------------------------
 CID_84626354_JID_7313_Energie_neutraal
 --------------------------------------
 Structure from the checkpoint file:  "JID_7313.chk"
 Charge =  0 Multiplicity = 1

 SCF Done:  E(RB3LYP) =  -694.626423158     A.U. after   14 cycles
 Normal termination of Gaussian 16 at Fri Dec 11 12:45:58 2020.

 ----------------------------------------------------------------------
 # B3LYP/6-311++G(d,p) empiricaldispersion=gd3bj scf=xqc pop=npa geom=c
 heck
 ----------------------------------------------------------------------

 ------------------------------------
 CID_84626354_JID_7313_Energie_kation
 ------------------------------------
 Structure from the checkpoint file:  "JID_7313.chk"
 Charge =  1 Multiplicity = 2

 SCF Done:  E(UB3LYP) =  -694.365583444     A.U. after   22 cycles
 Normal termination of Gaussian 16 at Fri Dec 11 13:04:06 2020.
 Gaussian 16:  ES64L-G16RevA.03 25-Dec-2016

 ----------------------------------------------------------------------
 # B3LYP/6-311++G(d,p) empiricaldispersion=gd3bj scf=xqc pop=npa geom=c
 heck
 ----------------------------------------------------------------------

 -----------------------------------
 CID_84626354_JID_7313_Energie_anion
 -----------------------------------
 Structure from the checkpoint file:  "JID_7313.chk"
 Charge = -1 Multiplicity = 2

                         Standard orientation:
 ---------------------------------------------------------------------
 Center     Atomic      Atomic             Coordinates (Angstroms)
 Number     Number       Type             X           Y           Z
 ---------------------------------------------------------------------
      1          6           0        4.901394   -0.273352   -1.246511
      2          6           0        4.134452   -0.716676    0.010737
      3          6           0        4.877381   -0.288069    1.287378
      4          6           0        2.697961   -0.218956   -0.000126
      5          6           0        1.639128   -1.121447   -0.012396
      6          6           0        0.314630   -0.654666   -0.019760
      7          6           0        0.074883    0.744615   -0.019091
      8          6           0        1.126224    1.667421   -0.003706
      9          6           0        2.422775    1.169477    0.004666
     10          7           0       -1.293058    0.949343   -0.038363
     11          6           0       -1.931087   -0.294693   -0.037003
     12          6           0       -0.971488   -1.283543   -0.031777
     13          6           0       -3.437055   -0.457510    0.000661
     14          6           0       -3.806835   -1.947370   -0.135617
     15          6           0       -4.008241    0.070691    1.332204
     16          7           0       -4.029399    0.348063   -1.095150
     17          6           0       -1.894607    2.271699   -0.035793
     18          1           0        4.986154    0.818754   -1.292191
     19          1           0        4.389287   -0.605684   -2.155721
     20          1           0        5.917039   -0.687079   -1.250843
     21          1           0        4.095734   -1.814402    0.004078
     22          1           0        4.961764    0.803383    1.347114
     23          1           0        4.347835   -0.630416    2.182766
     24          1           0        5.892579   -0.702481    1.306387
     25          1           0        1.839992   -2.190659   -0.014289
     26          1           0        0.943918    2.737726    0.009716
     27          1           0        3.251273    1.872332    0.019030
     28          1           0       -1.160830   -2.346722   -0.033335
     29          1           0       -3.411354   -2.545398    0.691809
     30          1           0       -4.897923   -2.051330   -0.135048
     31          1           0       -3.421917   -2.361544   -1.073414
     32          1           0       -3.791849    1.132044    1.470206
     33          1           0       -5.097646   -0.059336    1.353956
     34          1           0       -3.580949   -0.483623    2.172804
     35          1           0       -3.679465   -0.002208   -1.986969
     36          1           0       -5.038751    0.198150   -1.102824
     37          1           0       -1.900043    2.706758    0.972122
     38          1           0       -1.314417    2.928011   -0.692062
     39          1           0       -2.910319    2.196144   -0.421894
 ---------------------------------------------------------------------

 SCF Done:  E(UB3LYP) =  -694.613893459     A.U. after   33 cycles
 SCF Done:  E(UB3LYP) =  -694.613893458     a.u. after    1 cycles

 The electronic state is 2-A.
 Alpha  occ. eigenvalues --  -14.26166 -14.19752 -10.12648 -10.11086 -10.10513
 Alpha  occ. eigenvalues --  -10.10374 -10.09104 -10.08065 -10.07832 -10.07465
 Alpha  occ. eigenvalues --  -10.07453 -10.07380 -10.07357 -10.07344 -10.06654
 Alpha  occ. eigenvalues --  -10.06360 -10.06096  -0.88983  -0.80122  -0.75860
 Alpha  occ. eigenvalues --   -0.71504  -0.70040  -0.66695  -0.64635  -0.61882
 Alpha  occ. eigenvalues --   -0.59908  -0.59772  -0.58839  -0.53813  -0.51889
 Alpha  occ. eigenvalues --   -0.48888  -0.46561  -0.45306  -0.42099  -0.40344
 Alpha  occ. eigenvalues --   -0.39061  -0.37904  -0.36677  -0.36032  -0.35265
 Alpha  occ. eigenvalues --   -0.34112  -0.33767  -0.33161  -0.32815  -0.31856
 Alpha  occ. eigenvalues --   -0.31296  -0.30603  -0.30257  -0.29499  -0.29327
 Alpha  occ. eigenvalues --   -0.28991  -0.27675  -0.26115  -0.25815  -0.25411
 Alpha  occ. eigenvalues --   -0.25175  -0.23854  -0.23567  -0.22309  -0.18315
 Alpha  occ. eigenvalues --   -0.15377  -0.12337  -0.11141   0.04069
 Alpha virt. eigenvalues --    0.05287   0.06566   0.06845   0.07603   0.07767
 Alpha virt. eigenvalues --    0.07911   0.08321   0.09032   0.09215   0.09944
 Alpha virt. eigenvalues --    0.10278   0.10345   0.10509   0.10821   0.11539

  Beta  occ. eigenvalues --  -14.26164 -14.19701 -10.12645 -10.11081 -10.10491
  Beta  occ. eigenvalues --  -10.10374 -10.09100 -10.08056 -10.07833 -10.07459
  Beta  occ. eigenvalues --  -10.07444 -10.07379 -10.07343 -10.07327 -10.06622
  Beta  occ. eigenvalues --  -10.06322 -10.06091  -0.88975  -0.80056  -0.75849
  Beta  occ. eigenvalues --   -0.71491  -0.70018  -0.66636  -0.64618  -0.61859
  Beta  occ. eigenvalues --   -0.59877  -0.59713  -0.58806  -0.53774  -0.51863
  Beta  occ. eigenvalues --   -0.48851  -0.46540  -0.45266  -0.42070  -0.40302
  Beta  occ. eigenvalues --   -0.39041  -0.37857  -0.36653  -0.36004  -0.35241
  Beta  occ. eigenvalues --   -0.34084  -0.33738  -0.33145  -0.32790  -0.31832
  Beta  occ. eigenvalues --   -0.31270  -0.30568  -0.30239  -0.29474  -0.29301
  Beta  occ. eigenvalues --   -0.28954  -0.27633  -0.26098  -0.25773  -0.25384
  Beta  occ. eigenvalues --   -0.25148  -0.23838  -0.23552  -0.22286  -0.18294
  Beta  occ. eigenvalues --   -0.15329  -0.12323  -0.11118
  Beta virt. eigenvalues --    0.05670   0.06474   0.06913   0.07048   0.07855
  Beta virt. eigenvalues --    0.08036   0.08214   0.08841   0.09511   0.09638
  Beta virt. eigenvalues --    0.10065   0.10417   0.10493   0.10697   0.11077

 Mulliken charges and spin densities:
               1          2
     1  C    0.054223  -0.722782
     2  C   -1.500971   1.610586
     3  C    0.106641  -0.776397
     4  C    1.661847  -1.079663
     5  C   -0.311146  -0.284489
     6  C    0.294209  -0.046555
     7  C    1.303832  -1.044037
     8  C   -0.200539  -0.118048
     9  C   -0.652817   0.028833
    10  N    0.164753   0.086649
    11  C   -0.176570   0.274590
    12  C    0.230441  -0.329588
    13  C   -0.774533   0.414967
    14  C   -0.089477  -0.415644
    15  C    0.779646  -1.350713
    16  N   -0.395950   0.133812
    17  C    0.089799  -0.500987
    18  H   -0.009887   0.155440
    19  H    0.078397   0.055539
    20  H   -0.134710   0.269344
    21  H    0.034971   0.128716
    22  H   -0.010908   0.156253
    23  H    0.089802   0.044153
    24  H   -0.192199   0.327699
    25  H    0.000616   0.146270
    26  H   -0.228640   0.362930
    27  H    0.081069   0.057680
    28  H    0.009014   0.153363
    29  H   -0.001420   0.138159
    30  H   -0.708646   0.878945
    31  H   -0.097961   0.244983
    32  H   -0.014481   0.149551
    33  H   -0.348771   0.509795
    34  H    0.017509   0.138671
    35  H   -0.067030   0.310279
    36  H   -0.190391   0.435364
    37  H    0.018528   0.165847
    38  H   -0.027379   0.165384
    39  H    0.119128   0.125101
 Sum of Mulliken charges =  -1.00000   1.00000

 Dipole moment (field-independent basis, Debye):
    X=              5.5012    Y=              0.9080    Z=              1.2077  Tot=              5.7049
 Quadrupole moment (field-independent basis, Debye-Ang):
   XX=           -238.4371   YY=           -137.9388   ZZ=           -139.7451
   XY=             -4.8736   XZ=             -6.3796   YZ=              0.1622

 Summary of Natural Population Analysis:

                                       Natural Population
                Natural  -----------------------------------------------
    Atom  No    Charge         Core      Valence    Rydberg      Total
 -----------------------------------------------------------------------
      C    1   -0.27972      0.99965     2.27537    0.00470     3.27972
      C    2   -0.11826      0.99958     2.10726    0.01142     3.11826
      C    3   -0.27964      0.99965     2.27528    0.00470     3.27964
      C    4   -0.02573      0.99950     2.01581    0.01042     3.02573
      C    5   -0.09292      0.99948     2.08572    0.00772     3.09292
      C    6   -0.04059      0.99951     2.03217    0.00891     3.04059
      C    7    0.08319      0.99947     1.90663    0.01071     2.91681
      C    8   -0.11477      0.99953     2.10678    0.00846     3.11477
      C    9   -0.10776      0.99953     2.09951    0.00872     3.10776
      N   10   -0.20789      0.99958     2.69907    0.00924     3.70789
      C   11    0.10323      0.99947     1.88196    0.01534     2.89677
      C   12   -0.14127      0.99946     2.13455    0.00726     3.14127
      C   13    0.03443      0.99955     1.95220    0.01383     2.96557
      C   14   -0.28915      0.99963     2.28218    0.00734     3.28915
      C   15   -0.28167      0.99962     2.27488    0.00717     3.28167
      N   16   -0.42651      0.99976     2.91511    0.01164     3.92651
      C   17   -0.18340      0.99963     2.17669    0.00707     3.18340
      H   18    0.09612      0.00000     0.40275    0.00113     0.40388
      H   19    0.10100      0.00000     0.39808    0.00092     0.39900
      H   20    0.09600      0.00000     0.40294    0.00106     0.40400
      H   21    0.09399      0.00000     0.40416    0.00185     0.40601
      H   22    0.09619      0.00000     0.40267    0.00114     0.40381
      H   23    0.10072      0.00000     0.39836    0.00092     0.39928
      H   24    0.09621      0.00000     0.40269    0.00111     0.40379
      H   25    0.09696      0.00000     0.40141    0.00163     0.40304
      H   26    0.10241      0.00000     0.39652    0.00107     0.39759
      H   27    0.09703      0.00000     0.40153    0.00143     0.40297
      H   28    0.10793      0.00000     0.39121    0.00087     0.39207
      H   29    0.10080      0.00000     0.39812    0.00108     0.39920
      H   30    0.10413      0.00000     0.39406    0.00181     0.39587
      H   31    0.10223      0.00000     0.39641    0.00135     0.39777
      H   32    0.10211      0.00000     0.39665    0.00123     0.39789
      H   33    0.10174      0.00000     0.39702    0.00124     0.39826
      H   34    0.10257      0.00000     0.39647    0.00096     0.39743
      H   35    0.17863      0.00000     0.31885    0.00252     0.32137
      H   36    0.18034      0.00000     0.31502    0.00464     0.31966
      H   37    0.09080      0.00000     0.40770    0.00150     0.40920
      H   38    0.09650      0.00000     0.40198    0.00152     0.40350
      H   39    0.12404      0.00000     0.37426    0.00169     0.37596
 =======================================================================
   * Total *   -0.00000     16.99260    45.82007    0.18733    63.00000

 Normal termination of Gaussian 16 at Fri Dec 11 13:31:28 2020.
