 Gaussian 16, Revision A.03,

 -----------------------------------------------------------
 # opt freq B3LYP/6-31G(d) empiricaldispersion=gd3bj scf=xqc
 -----------------------------------------------------------

 -------------------------------
 CID_112712322_JID_3509_neutraal
 -------------------------------
 Symbolic Z-matrix:
 Charge =  0 Multiplicity = 1

 SCF Done:  E(RB3LYP) =  -571.636318972     A.U. after   14 cycles
 SCF Done:  E(RB3LYP) =  -571.640730189     A.U. after   12 cycles
 SCF Done:  E(RB3LYP) =  -571.641248955     A.U. after   12 cycles
 SCF Done:  E(RB3LYP) =  -571.641431045     A.U. after   11 cycles
 SCF Done:  E(RB3LYP) =  -571.641545232     A.U. after   11 cycles
 SCF Done:  E(RB3LYP) =  -571.641646120     A.U. after   11 cycles
 SCF Done:  E(RB3LYP) =  -571.641699273     A.U. after   11 cycles
 SCF Done:  E(RB3LYP) =  -571.641782574     A.U. after   11 cycles
 SCF Done:  E(RB3LYP) =  -571.641806627     A.U. after   10 cycles
 SCF Done:  E(RB3LYP) =  -571.641837329     A.U. after   11 cycles
 SCF Done:  E(RB3LYP) =  -571.641852636     A.U. after    9 cycles
 SCF Done:  E(RB3LYP) =  -571.641852825     A.U. after    8 cycles
 SCF Done:  E(RB3LYP) =  -571.641852874     A.U. after    7 cycles
 SCF Done:  E(RB3LYP) =  -571.641852829     A.U. after    7 cycles
 SCF Done:  E(RB3LYP) =  -571.641852792     A.U. after    7 cycles
 SCF Done:  E(RB3LYP) =  -571.641852750     A.U. after    7 cycles
 Optimization completed.
    -- Stationary point found.

 1\1\GINC-NODE311\FOpt\RB3LYP\6-31G(d)\C9H16N4\VSC10255\09-Dec-2020\0\\
 # opt freq B3LYP/6-31G(d) empiricaldispersion=gd3bj scf=xqc\\CID_11271
 2322_JID_3509_neutraal\\0,1\C,1.030918692,-0.0888556878,0.055866177\C,
 0.5480941738,-0.5472567326,-1.284498323\N,0.6406351602,-1.8267332723,-
 1.6546060529\N,0.1231821522,-1.8772864171,-2.9044772808\C,-0.296754500
 8,-0.6585550127,-3.3318838767\C,-0.0369013044,0.2430365355,-2.31266962
 29\C,-0.3394407499,1.7124859698,-2.2615599317\C,-1.397957123,2.0639966
 672,-1.2158006327\N,-1.2986605155,2.9624319319,-0.3074913909\N,-2.5733

 Normal termination of Gaussian 16 at Wed Dec  9 23:32:59 2020.

 --------------------------------------------------------------------
 #N Geom=AllCheck Guess=TCheck SCRF=Check GenChk RB3LYP/6-31G(d) Freq
 --------------------------------------------------------------------

 Structure from the checkpoint file:  "JID_3509.chk"
 -------------------------------
 CID_112712322_JID_3509_neutraal
 -------------------------------
 Charge =  0 Multiplicity = 1

 SCF Done:  E(RB3LYP) =  -571.641852750     A.U. after    1 cycles

  Exact polarizability: 154.425 -14.667 106.555   2.180   2.755  92.541
 Approx polarizability: 206.163 -26.437 167.479   5.860  12.682 137.766

                      1                      2                      3
                      A                      A                      A
 Frequencies --     28.1217                31.3646                50.3036
 Red. masses --      3.3590                 3.7928                 4.1935
 Frc consts  --      0.0016                 0.0022                 0.0063
 IR Inten    --      0.0529                 0.4294                 2.4271

                      4                      5                      6
                      A                      A                      A
 Frequencies --     85.7049               106.4232               113.0185
 Red. masses --      3.5449                 1.1891                 2.7520
 Frc consts  --      0.0153                 0.0079                 0.0207
 IR Inten    --      0.3716                 0.9178                 1.6158

                      7                      8                      9
                      A                      A                      A
 Frequencies --    174.7090               216.4553               223.5317
 Red. masses --      2.7336                 2.6195                 1.0413
 Frc consts  --      0.0492                 0.0723                 0.0307
 IR Inten    --      1.4864                 0.0656                 0.0004

                     10                     11                     12
                      A                      A                      A
 Frequencies --    256.6437               261.4679               297.1506
 Red. masses --      3.3557                 1.1375                 3.0345
 Frc consts  --      0.1302                 0.0458                 0.1579
 IR Inten    --      2.8683                 0.5782                 1.1868

                     13                     14                     15
                      A                      A                      A
 Frequencies --    324.0659               392.1672               420.8813
 Red. masses --      3.2270                 2.7322                 2.2788
 Frc consts  --      0.1997                 0.2476                 0.2378
 IR Inten    --      6.5654                 4.1663                 1.5677

                     16                     17                     18
                      A                      A                      A
 Frequencies --    433.8776               456.7045               506.0182
 Red. masses --      3.0964                 1.1754                 2.7393
 Frc consts  --      0.3434                 0.1444                 0.4133
 IR Inten    --      1.7152                39.0034                35.2513

                     19                     20                     21
                      A                      A                      A
 Frequencies --    522.6763               591.7344               629.5459
 Red. masses --      3.0830                 2.4601                 2.6988
 Frc consts  --      0.4962                 0.5075                 0.6302
 IR Inten    --      1.5400                25.5938                 8.6225

                     22                     23                     24
                      A                      A                      A
 Frequencies --    654.3260               664.0743               687.7733
 Red. masses --      4.4683                 1.6595                 4.4553
 Frc consts  --      1.1272                 0.4312                 1.2417
 IR Inten    --      3.5955               234.0346                13.4314

                     25                     26                     27
                      A                      A                      A
 Frequencies --    734.7411               786.5310               814.0288
 Red. masses --      3.2419                 1.4794                 2.8992
 Frc consts  --      1.0312                 0.5392                 1.1319
 IR Inten    --     10.9921                17.8947                 8.5415

                     28                     29                     30
                      A                      A                      A
 Frequencies --    852.4900               886.7195               897.3690
 Red. masses --      1.2355                 3.4470                 2.5362
 Frc consts  --      0.5290                 1.5969                 1.2033
 IR Inten    --     19.2321                 3.1994                 4.6974

                     31                     32                     33
                      A                      A                      A
 Frequencies --    947.3824               957.2720               963.1594
 Red. masses --      1.1617                 1.9478                 1.5229
 Frc consts  --      0.6143                 1.0517                 0.8324
 IR Inten    --      1.3019                 6.8098                 0.0027

                     34                     35                     36
                      A                      A                      A
 Frequencies --   1023.5543              1032.9284              1079.7193
 Red. masses --      3.0590                 2.0498                 1.4828
 Frc consts  --      1.8882                 1.2886                 1.0185
 IR Inten    --     15.7270                12.6471                 1.7721

                     37                     38                     39
                      A                      A                      A
 Frequencies --   1109.8308              1141.7951              1159.7916
 Red. masses --      1.7982                 1.7215                 2.0805
 Frc consts  --      1.3050                 1.3223                 1.6488
 IR Inten    --      7.3103                72.7631                 5.1708

                     40                     41                     42
                      A                      A                      A
 Frequencies --   1169.6538              1185.4189              1194.4967
 Red. masses --      1.3440                 1.3869                 2.1658
 Frc consts  --      1.0834                 1.1482                 1.8207
 IR Inten    --      4.4558                61.7152                18.8924

                     43                     44                     45
                      A                      A                      A
 Frequencies --   1221.3067              1247.7445              1300.8443
 Red. masses --      2.1120                 1.5230                 3.5986
 Frc consts  --      1.8561                 1.3970                 3.5878
 IR Inten    --      6.4965                14.9530                51.4954

                     46                     47                     48
                      A                      A                      A
 Frequencies --   1336.6937              1364.0380              1407.8876
 Red. masses --      1.4859                 1.3792                 1.8998
 Frc consts  --      1.5643                 1.5119                 2.2187
 IR Inten    --     18.1445                 3.7461                 9.1286

                     49                     50                     51
                      A                      A                      A
 Frequencies --   1417.7229              1425.3525              1440.7471
 Red. masses --      3.4044                 1.2745                 1.4130
 Frc consts  --      4.0315                 1.5255                 1.7280
 IR Inten    --      7.9235                 9.5557                17.1733

                     52                     53                     54
                      A                      A                      A
 Frequencies --   1443.7770              1445.7376              1479.4877
 Red. masses --      1.9600                 1.3376                 2.5574
 Frc consts  --      2.4072                 1.6472                 3.2982
 IR Inten    --     61.6574                 7.3214                44.7866

                     55                     56                     57
                      A                      A                      A
 Frequencies --   1497.2927              1510.3997              1511.5072
 Red. masses --      1.2138                 1.0428                 1.1196
 Frc consts  --      1.6033                 1.4017                 1.5071
 IR Inten    --     19.1708                 0.6641                 5.7955

                     58                     59                     60
                      A                      A                      A
 Frequencies --   1520.1808              1521.3068              1525.4267
 Red. masses --      1.4255                 1.0538                 1.1256
 Frc consts  --      1.9409                 1.4369                 1.5432
 IR Inten    --      5.9463                 0.9288                 2.9211

                     61                     62                     63
                      A                      A                      A
 Frequencies --   1528.7184              1543.6105              1614.6917
 Red. masses --      2.1679                 1.0837                 5.2318
 Frc consts  --      2.9850                 1.5213                 8.0367
 IR Inten    --     21.3766                 0.8147                23.8445

                     64                     65                     66
                      A                      A                      A
 Frequencies --   1653.3128              1739.3644              3045.1423
 Red. masses --      1.2946                 4.9333                 1.0416
 Frc consts  --      2.0850                 8.7936                 5.6907
 IR Inten    --     64.2147               196.5601                23.4438

                     67                     68                     69
                      A                      A                      A
 Frequencies --   3048.9521              3059.9730              3063.8421
 Red. masses --      1.0593                 1.0350                 1.0392
 Frc consts  --      5.8020                 5.7098                 5.7476
 IR Inten    --     25.8649                21.6608                14.9044

                     70                     71                     72
                      A                      A                      A
 Frequencies --   3069.8568              3090.5822              3099.6340
 Red. masses --      1.0812                 1.1044                 1.0964
 Frc consts  --      6.0036                 6.2151                 6.2063
 IR Inten    --     18.6496                15.9786                11.9147

                     73                     74                     75
                      A                      A                      A
 Frequencies --   3129.3266              3133.0778              3146.5389
 Red. masses --      1.1033                 1.1031                 1.1031
 Frc consts  --      6.3658                 6.3801                 6.4347
 IR Inten    --     15.1047                45.9601                 4.4943

                     76                     77                     78
                      A                      A                      A
 Frequencies --   3147.6428              3151.7849              3262.0840
 Red. masses --      1.1010                 1.1021                 1.0974
 Frc consts  --      6.4268                 6.4505                 6.8801
 IR Inten    --      9.8301                28.6888                 1.3513

                     79                     80                     81
                      A                      A                      A
 Frequencies --   3468.5381              3550.4683              3658.9489
 Red. masses --      1.0750                 1.0463                 1.0995
 Frc consts  --      7.6199                 7.7713                 8.6730
 IR Inten    --      2.2373                12.4516                29.9645

 - Thermochemistry -
 -------------------
 Temperature   298.150 Kelvin.  Pressure   1.00000 Atm.
 Atom     1 has atomic number  6 and mass  12.00000

 Molecular mass:   180.13750 amu.
 Principal axes and moments of inertia in atomic units:
                           1         2         3
     Eigenvalues --  1049.993474357.369364651.38808
           X            0.99993  -0.01114   0.00372
           Y            0.01118   0.99989  -0.01019
           Z           -0.00360   0.01023   0.99994
 This molecule is an asymmetric top.
 Rotational symmetry number  1.
 Warning -- assumption of classical behavior for rotation
           may cause significant error
 Rotational temperatures (Kelvin)      0.08249     0.01988     0.01862
 Rotational constants (GHZ):           1.71881     0.41418     0.38800
 Zero-point vibrational energy     663264.5 (Joules/Mol)
                                  158.52402 (Kcal/Mol)
 Warning -- explicit consideration of  20 degrees of freedom as
           vibrations may cause significant error
 Vibrational temperatures:     40.46    45.13    72.38   123.31   153.12
          (Kelvin)            162.61   251.37   311.43   321.61   369.25
                              376.19   427.53   466.26   564.24   605.55
                              624.25   657.10   728.05   752.01   851.37
                              905.78   941.43   955.45   989.55  1057.13
                             1131.64  1171.21  1226.54  1275.79  1291.11
                             1363.07  1377.30  1385.77  1472.67  1486.15
                             1553.48  1596.80  1642.79  1668.68  1682.87
                             1705.55  1718.61  1757.19  1795.23  1871.62
                             1923.20  1962.55  2025.64  2039.79  2050.76
                             2072.91  2077.27  2080.09  2128.65  2154.27
                             2173.13  2174.72  2187.20  2188.82  2194.75
                             2199.48  2220.91  2323.18  2378.75  2502.56
                             4381.28  4386.76  4402.62  4408.19  4416.84
                             4446.66  4459.68  4502.40  4507.80  4527.17
                             4528.76  4534.72  4693.41  4990.45  5108.33
                             5264.41

 Zero-point correction=                           0.252624 (Hartree/Particle)
 Thermal correction to Energy=                    0.266845
 Thermal correction to Enthalpy=                  0.267789
 Thermal correction to Gibbs Free Energy=         0.210257
 Sum of electronic and zero-point Energies=           -571.389229
 Sum of electronic and thermal Energies=              -571.375008
 Sum of electronic and thermal Enthalpies=            -571.374064
 Sum of electronic and thermal Free Energies=         -571.431596

                     E (Thermal)             CV                S
                      KCal/Mol        Cal/Mol-Kelvin    Cal/Mol-Kelvin
 Total                  167.448             52.262            121.088
 Electronic               0.000              0.000              0.000
 Translational            0.889              2.981             41.472
 Rotational               0.889              2.981             31.432
 Vibrational            165.670             46.301             48.183
 Vibration     1          0.593              1.984              5.958
 Vibration     2          0.594              1.983              5.741
 Vibration     3          0.595              1.977              4.805
 Vibration     4          0.601              1.959              3.756
 Vibration     5          0.605              1.944              3.333
 Vibration     6          0.607              1.939              3.216
 Vibration     7          0.627              1.874              2.384
 Vibration     8          0.645              1.816              1.989
 Vibration     9          0.649              1.805              1.930
 Vibration    10          0.666              1.752              1.684
 Vibration    11          0.669              1.743              1.652
 Vibration    12          0.691              1.679              1.433
 Vibration    13          0.709              1.627              1.290
 Vibration    14          0.760              1.487              0.992
 Vibration    15          0.783              1.425              0.889
 Vibration    16          0.795              1.396              0.846
 Vibration    17          0.815              1.346              0.776
 Vibration    18          0.861              1.237              0.643
 Vibration    19          0.878              1.200              0.604
 Vibration    20          0.949              1.049              0.464

                           ! Non-Optimized Parameters !

 1\1\GINC-NODE311\Freq\RB3LYP\6-31G(d)\C9H16N4\VSC10255\09-Dec-2020\0\\
 #N Geom=AllCheck Guess=TCheck SCRF=Check GenChk RB3LYP/6-31G(d) Freq\\
 CID_112712322_JID_3509_neutraal\\0,1\C,1.030918692,-0.0888556878,0.055
 866177\C,0.5480941738,-0.5472567326,-1.284498323\N,0.6406351602,-1.826
 7332723,-1.6546060529\N,0.1231821522,-1.8772864171,-2.9044772808\C,-0.
 2967545008,-0.6585550127,-3.3318838767\C,-0.0369013044,0.2430365355,-2
 .3126696229\C,-0.3394407499,1.7124859698,-2.2615599317\C,-1.397957123,
 2.0639966672,-1.2158006327\N,-1.2986605155,2.9624319319,-0.3074913909\

 Normal termination of Gaussian 16 at Wed Dec  9 23:39:46 2020.

 ----------------------------------------------------------------------
 # B3LYP/6-311++G(d,p) empiricaldispersion=gd3bj scf=xqc pop=npa geom=c
 heck
 ----------------------------------------------------------------------

 ---------------------------------------
 CID_112712322_JID_3509_Energie_neutraal
 ---------------------------------------
 Structure from the checkpoint file:  "JID_3509.chk"
 Charge =  0 Multiplicity = 1

 SCF Done:  E(RB3LYP) =  -571.809083890     A.U. after   15 cycles
 Normal termination of Gaussian 16 at Wed Dec  9 23:42:27 2020.

 ----------------------------------------------------------------------
 # B3LYP/6-311++G(d,p) empiricaldispersion=gd3bj scf=xqc pop=npa geom=c
 heck
 ----------------------------------------------------------------------

 -------------------------------------
 CID_112712322_JID_3509_Energie_kation
 -------------------------------------
 Structure from the checkpoint file:  "JID_3509.chk"
 Charge =  1 Multiplicity = 2

 SCF Done:  E(UB3LYP) =  -571.507285904     A.U. after   27 cycles
 Normal termination of Gaussian 16 at Wed Dec  9 23:49:02 2020.
 Gaussian 16:  ES64L-G16RevA.03 25-Dec-2016

 ------------------------------------
 CID_112712322_JID_3509_Energie_anion
 ------------------------------------
 Structure from the checkpoint file:  "JID_3509.chk"
 Charge = -1 Multiplicity = 2

                         Standard orientation:
 ---------------------------------------------------------------------
 Center     Atomic      Atomic             Coordinates (Angstroms)
 Number     Number       Type             X           Y           Z
 ---------------------------------------------------------------------
      1          6           0       -1.003162    2.232101    0.648016
      2          6           0       -0.201947    1.079207    0.129636
      3          7           0        1.101492    0.965254    0.395463
      4          7           0        1.496463   -0.171189   -0.225010
      5          6           0        0.471093   -0.779626   -0.875204
      6          6           0       -0.657002   -0.000140   -0.677740
      7          6           0       -2.059522   -0.243578   -1.154288
      8          6           0       -3.034443   -0.523257   -0.010199
      9          7           0       -4.157053    0.061170    0.190460
     10          7           0       -2.634556   -1.557199    0.817296
     11          6           0        2.893623   -0.601110   -0.136908
     12          6           0        3.809355    0.444923   -0.776951
     13          6           0        3.265753   -0.890972    1.319171
     14          1           0       -1.897084    1.889529    1.181221
     15          1           0       -1.346642    2.878030   -0.170478
     16          1           0       -0.394166    2.835556    1.325726
     17          1           0        0.615177   -1.698545   -1.427000
     18          1           0       -2.434227    0.620282   -1.715393
     19          1           0       -2.073996   -1.102937   -1.835968
     20          1           0       -4.331256    0.744090   -0.549021
     21          1           0       -1.634826   -1.640428    0.954146
     22          1           0       -3.176821   -1.622707    1.670436
     23          1           0        2.942898   -1.530043   -0.716320
     24          1           0        3.724347    1.393525   -0.239733
     25          1           0        4.851293    0.109933   -0.740101
     26          1           0        3.533571    0.614852   -1.822519
     27          1           0        2.611462   -1.660072    1.742182
     28          1           0        4.301550   -1.240367    1.383758
     29          1           0        3.161805    0.017763    1.918404
 ---------------------------------------------------------------------

 SCF Done:  E(UB3LYP) =  -571.798136999     A.U. after   30 cycles

 The electronic state is 2-A.
 Alpha  occ. eigenvalues --  -14.28378 -14.22431 -14.22330 -14.18256 -10.15025
 Alpha  occ. eigenvalues --  -10.12028 -10.10437 -10.09688 -10.09385 -10.07436
 Alpha  occ. eigenvalues --  -10.07401 -10.06373 -10.06208  -0.94831  -0.85278
 Alpha  occ. eigenvalues --   -0.75882  -0.75576  -0.70498  -0.68184  -0.63179
 Alpha  occ. eigenvalues --   -0.60416  -0.59401  -0.51189  -0.49648  -0.48115
 Alpha  occ. eigenvalues --   -0.45290  -0.43641  -0.41011  -0.36961  -0.36452
 Alpha  occ. eigenvalues --   -0.35852  -0.35347  -0.33730  -0.33275  -0.32560
 Alpha  occ. eigenvalues --   -0.31336  -0.29991  -0.29662  -0.28330  -0.28206
 Alpha  occ. eigenvalues --   -0.27466  -0.25645  -0.25222  -0.24870  -0.19196
 Alpha  occ. eigenvalues --   -0.17738  -0.15503  -0.15090  -0.13734   0.04258
 Alpha virt. eigenvalues --    0.06525   0.07319   0.07496   0.08786   0.08937
 Alpha virt. eigenvalues --    0.09242   0.09864   0.10218   0.10972   0.11397
 Alpha virt. eigenvalues --    0.11842   0.12092   0.12365   0.13009   0.13809

  Beta  occ. eigenvalues --  -14.28380 -14.22419 -14.22300 -14.18246 -10.15024
  Beta  occ. eigenvalues --  -10.12007 -10.10409 -10.09685 -10.09364 -10.07438
  Beta  occ. eigenvalues --  -10.07389 -10.06345 -10.06174  -0.94818  -0.85251
  Beta  occ. eigenvalues --   -0.75860  -0.75540  -0.70474  -0.68153  -0.63149
  Beta  occ. eigenvalues --   -0.60386  -0.59338  -0.51137  -0.49609  -0.48067
  Beta  occ. eigenvalues --   -0.45244  -0.43605  -0.40964  -0.36926  -0.36424
  Beta  occ. eigenvalues --   -0.35793  -0.35306  -0.33703  -0.33243  -0.32535
  Beta  occ. eigenvalues --   -0.31311  -0.29972  -0.29635  -0.28299  -0.28172
  Beta  occ. eigenvalues --   -0.27436  -0.25612  -0.25179  -0.24819  -0.19172
  Beta  occ. eigenvalues --   -0.17723  -0.15478  -0.15070  -0.13725
  Beta virt. eigenvalues --    0.06468   0.07383   0.07938   0.08112   0.09241
  Beta virt. eigenvalues --    0.09427   0.09635   0.10210   0.10421   0.11270
  Beta virt. eigenvalues --    0.11626   0.12175   0.12328   0.12733   0.13261

 Mulliken charges and spin densities:
               1          2
     1  C    0.405486  -1.264500
     2  C    0.225106  -1.021671
     3  N   -0.465798   0.423140
     4  N    0.655716  -0.293818
     5  C   -0.915455   0.207860
     6  C    0.958217   0.638934
     7  C    1.083775  -1.655515
     8  C   -0.484256   0.363775
     9  N   -0.348820   0.014245
    10  N   -0.288505   0.006127
    11  C   -1.609004   1.510672
    12  C    0.929829  -1.420015
    13  C    1.169665  -1.655403
    14  H    0.078125   0.090937
    15  H   -0.029118   0.189912
    16  H    0.133347   0.020855
    17  H   -1.192550   1.392942
    18  H   -0.030472   0.171562
    19  H   -0.104612   0.302882
    20  H    0.141650   0.050902
    21  H    0.221482   0.063282
    22  H    0.009993   0.259615
    23  H   -0.698569   0.856056
    24  H    0.104977   0.054166
    25  H   -0.279671   0.423099
    26  H   -0.159357   0.309490
    27  H   -0.279212   0.429823
    28  H   -0.330120   0.473177
    29  H    0.098153   0.057468
 Sum of Mulliken charges =  -1.00000   1.00000

 Dipole moment (field-independent basis, Debye):
    X=             -2.9577    Y=              4.8981    Z=              1.2930  Tot=              5.8661
 Quadrupole moment (field-independent basis, Debye-Ang):
   XX=           -162.2601   YY=           -121.5765   ZZ=           -113.7167
   XY=              8.2976   XZ=              6.6414   YZ=             -3.4285

 Summary of Natural Population Analysis:

                                       Natural Population
                Natural  -----------------------------------------------
    Atom  No    Charge         Core      Valence    Rydberg      Total
 -----------------------------------------------------------------------
      C    1   -0.30024      0.99963     2.29598    0.00464     3.30024
      C    2    0.07673      0.99953     1.90992    0.01381     2.92327
      N    3   -0.15964      0.99969     2.64914    0.01081     3.65964
      N    4   -0.10762      0.99965     2.59170    0.01628     3.60762
      C    5    0.00492      0.99947     1.98382    0.01179     2.99508
      C    6   -0.08540      0.99947     2.07331    0.01262     3.08540
      C    7   -0.22865      0.99955     2.21804    0.01106     3.22865
      C    8    0.23235      0.99967     1.75096    0.01702     2.76765
      N    9   -0.36868      0.99970     2.86044    0.00854     3.86868
      N   10   -0.40375      0.99970     2.89402    0.01003     3.90375
      C   11   -0.00373      0.99960     1.99064    0.01350     3.00373
      C   12   -0.28713      0.99964     2.28111    0.00637     3.28713
      C   13   -0.28711      0.99964     2.28105    0.00641     3.28711
      H   14    0.10779      0.00000     0.39087    0.00134     0.39221
      H   15    0.10177      0.00000     0.39688    0.00134     0.39823
      H   16    0.10776      0.00000     0.39125    0.00100     0.39224
      H   17    0.11037      0.00000     0.38606    0.00357     0.38963
      H   18    0.10606      0.00000     0.39260    0.00134     0.39394
      H   19    0.11614      0.00000     0.38239    0.00147     0.38386
      H   20    0.16208      0.00000     0.33567    0.00225     0.33792
      H   21    0.19457      0.00000     0.30296    0.00247     0.30543
      H   22    0.18969      0.00000     0.30843    0.00189     0.31031
      H   23    0.10313      0.00000     0.39082    0.00605     0.39687
      H   24    0.10415      0.00000     0.39461    0.00124     0.39585
      H   25    0.10165      0.00000     0.39732    0.00103     0.39835
      H   26    0.10303      0.00000     0.39591    0.00106     0.39697
      H   27    0.10411      0.00000     0.39449    0.00139     0.39589
      H   28    0.10171      0.00000     0.39712    0.00117     0.39829
      H   29    0.10392      0.00000     0.39477    0.00131     0.39608
 =======================================================================
   * Total *   -0.00000     12.99495    35.83224    0.17281    49.00000

 Normal termination of Gaussian 16 at Wed Dec  9 23:56:06 2020.
