 Gaussian 16, Revision A.03,

 -----------------------------------------------------------
 # opt freq B3LYP/6-31G(d) empiricaldispersion=gd3bj scf=xqc
 -----------------------------------------------------------

 ------------------------------
 CID_87464952_JID_5607_neutraal
 ------------------------------
 Symbolic Z-matrix:
 Charge =  0 Multiplicity = 1

 SCF Done:  E(RB3LYP) =  -694.976564416     A.U. after   14 cycles
 SCF Done:  E(RB3LYP) =  -694.979557118     A.U. after   13 cycles
 SCF Done:  E(RB3LYP) =  -694.979007684     A.U. after   12 cycles
 SCF Done:  E(RB3LYP) =  -694.980642232     A.U. after   12 cycles
 SCF Done:  E(RB3LYP) =  -694.980690974     A.U. after   12 cycles
 SCF Done:  E(RB3LYP) =  -694.981099495     A.U. after   12 cycles
 SCF Done:  E(RB3LYP) =  -694.981308064     A.U. after   11 cycles
 SCF Done:  E(RB3LYP) =  -694.981495671     A.U. after   12 cycles
 SCF Done:  E(RB3LYP) =  -694.981561015     A.U. after   10 cycles
 SCF Done:  E(RB3LYP) =  -694.981700501     A.U. after   11 cycles
 SCF Done:  E(RB3LYP) =  -694.985724701     A.U. after    8 cycles
 SCF Done:  E(RB3LYP) =  -694.985725261     A.U. after    8 cycles
 SCF Done:  E(RB3LYP) =  -694.985726053     A.U. after    8 cycles
 SCF Done:  E(RB3LYP) =  -694.985727038     A.U. after    9 cycles
 SCF Done:  E(RB3LYP) =  -694.985727595     A.U. after    9 cycles
 SCF Done:  E(RB3LYP) =  -694.985727828     A.U. after    8 cycles
 Optimization completed.
    -- Stationary point found.
 Normal termination of Gaussian 16 at Thu Dec 10 17:46:33 2020.

 --------------------------------------------------------------------
 #N Geom=AllCheck Guess=TCheck SCRF=Check GenChk RB3LYP/6-31G(d) Freq
 --------------------------------------------------------------------

 Structure from the checkpoint file:  "JID_5607.chk"
 ------------------------------
 CID_87464952_JID_5607_neutraal
 ------------------------------
 Charge =  0 Multiplicity = 1

 SCF Done:  E(RB3LYP) =  -694.985727828     A.U. after    1 cycles

  Exact polarizability: 165.928   9.764 100.348  14.320  15.374 136.924
 Approx polarizability: 223.905  22.096 140.466  49.689  37.709 243.725

                      1                      2                      3
                      A                      A                      A
 Frequencies --     24.2787                27.6531                42.1289
 Red. masses --      3.8752                 3.8389                 4.4465
 Frc consts  --      0.0013                 0.0017                 0.0046
 IR Inten    --      0.1268                 0.4590                 0.5294

                      4                      5                      6
                      A                      A                      A
 Frequencies --     48.2531                50.9653                60.3644
 Red. masses --      3.9011                 3.8184                 1.9100
 Frc consts  --      0.0054                 0.0058                 0.0041
 IR Inten    --      1.1614                 0.1363                 0.3103

                      7                      8                      9
                      A                      A                      A
 Frequencies --     69.0625                76.8063                90.9984
 Red. masses --      5.5595                 4.1908                 3.9142
 Frc consts  --      0.0156                 0.0146                 0.0191
 IR Inten    --      1.5713                 0.7983                 0.4421

                     10                     11                     12
                      A                      A                      A
 Frequencies --     96.7243               110.1812               167.4982
 Red. masses --      3.5447                 2.9217                 1.1421
 Frc consts  --      0.0195                 0.0209                 0.0189
 IR Inten    --      2.1166                 1.1405                 0.4712

                     13                     14                     15
                      A                      A                      A
 Frequencies --    182.0163               186.0114               204.4318
 Red. masses --      2.6800                 2.5937                 2.5999
 Frc consts  --      0.0523                 0.0529                 0.0640
 IR Inten    --     12.5855                 0.4773                32.2661

                     16                     17                     18
                      A                      A                      A
 Frequencies --    243.3126               263.3222               302.3382
 Red. masses --      1.6450                 1.7614                 2.1566
 Frc consts  --      0.0574                 0.0720                 0.1161
 IR Inten    --     32.2932                43.9410                 1.7048

                     19                     20                     21
                      A                      A                      A
 Frequencies --    331.1990               367.1388               371.7167
 Red. masses --      2.4500                 2.5754                 3.1785
 Frc consts  --      0.1583                 0.2045                 0.2588
 IR Inten    --      0.8567                 1.5959                16.2437

                     22                     23                     24
                      A                      A                      A
 Frequencies --    384.9832               449.4743               507.2217
 Red. masses --      3.2046                 2.3694                 2.9589
 Frc consts  --      0.2798                 0.2820                 0.4485
 IR Inten    --      1.6183                 0.5139                 3.0046

                     25                     26                     27
                      A                      A                      A
 Frequencies --    517.4447               535.8401               570.3170
 Red. masses --      2.4584                 1.1120                 2.6343
 Frc consts  --      0.3878                 0.1881                 0.5048
 IR Inten    --      0.5198                 8.1304                 4.1087

                     28                     29                     30
                      A                      A                      A
 Frequencies --    608.1026               646.5346               752.2861
 Red. masses --      4.1477                 1.3750                 1.4567
 Frc consts  --      0.9037                 0.3386                 0.4857
 IR Inten    --      2.8404                11.2293                 4.4102

                     31                     32                     33
                      A                      A                      A
 Frequencies --    778.3783               814.3467               824.0324
 Red. masses --      1.6702                 2.6440                 2.5397
 Frc consts  --      0.5962                 1.0331                 1.0161
 IR Inten    --      0.1442                 4.4142                15.4059

                     34                     35                     36
                      A                      A                      A
 Frequencies --    850.2583               908.0664               909.6934
 Red. masses --      4.9581                 1.8135                 2.2510
 Frc consts  --      2.1119                 0.8810                 1.0975
 IR Inten    --      2.0504                 0.1526                 3.9828

                     37                     38                     39
                      A                      A                      A
 Frequencies --    924.5239               931.3311               936.9410
 Red. masses --      1.3633                 1.3615                 2.1949
 Frc consts  --      0.6865                 0.6958                 1.1352
 IR Inten    --     71.6726                17.0119                15.0879

                     40                     41                     42
                      A                      A                      A
 Frequencies --    965.7735               967.4493               999.4783
 Red. masses --      1.4473                 1.7124                 1.1745
 Frc consts  --      0.7953                 0.9443                 0.6913
 IR Inten    --     24.2088                13.4106                 0.1763

                     43                     44                     45
                      A                      A                      A
 Frequencies --   1009.4111              1010.0950              1030.8567
 Red. masses --      1.6118                 1.2011                 1.7455
 Frc consts  --      0.9676                 0.7221                 1.0929
 IR Inten    --     21.0473                 3.4163                39.2413

                     46                     47                     48
                      A                      A                      A
 Frequencies --   1054.6904              1059.8079              1087.9048
 Red. masses --      2.0433                 1.0980                 1.4646
 Frc consts  --      1.3392                 0.7266                 1.0213
 IR Inten    --     57.5012                31.0539                 2.4266

                     49                     50                     51
                      A                      A                      A
 Frequencies --   1097.8021              1104.8567              1125.5832
 Red. masses --      2.7931                 1.5023                 2.7620
 Frc consts  --      1.9833                 1.0805                 2.0617
 IR Inten    --     42.1190                20.1828                 3.6064

                     52                     53                     54
                      A                      A                      A
 Frequencies --   1188.7312              1216.2824              1240.1055
 Red. masses --      2.2842                 1.4562                 1.4680
 Frc consts  --      1.9018                 1.2692                 1.3301
 IR Inten    --    292.1566                81.6793                 3.9676

                     55                     56                     57
                      A                      A                      A
 Frequencies --   1242.5310              1305.5841              1329.4950
 Red. masses --      1.9433                 1.2285                 1.3473
 Frc consts  --      1.7677                 1.2338                 1.4031
 IR Inten    --      0.9000                11.7521                 0.9527

                     58                     59                     60
                      A                      A                      A
 Frequencies --   1332.3710              1341.4981              1354.8588
 Red. masses --      1.2823                 1.1366                 2.8478
 Frc consts  --      1.3412                 1.2052                 3.0800
 IR Inten    --      1.7308                 4.2728               111.7877

                     61                     62                     63
                      A                      A                      A
 Frequencies --   1397.1419              1403.1795              1416.1009
 Red. masses --      1.5163                 1.4104                 1.1990
 Frc consts  --      1.7439                 1.6361                 1.4166
 IR Inten    --     23.8204                 4.2592                21.1801

                     64                     65                     66
                      A                      A                      A
 Frequencies --   1431.6785              1435.6423              1442.5751
 Red. masses --      1.2650                 1.2534                 1.3781
 Frc consts  --      1.5277                 1.5220                 1.6898
 IR Inten    --      1.1016                 4.0804                18.3565

                     67                     68                     69
                      A                      A                      A
 Frequencies --   1444.0554              1463.1283              1496.1971
 Red. masses --      1.3189                 1.2404                 1.2193
 Frc consts  --      1.6205                 1.5645                 1.6082
 IR Inten    --      4.6952                12.1270                 0.0709

                     70                     71                     72
                      A                      A                      A
 Frequencies --   1502.0970              1508.3386              1515.3689
 Red. masses --      1.0449                 1.0816                 1.0959
 Frc consts  --      1.3891                 1.4499                 1.4827
 IR Inten    --      7.7319                 2.3791                 5.3349

                     73                     74                     75
                      A                      A                      A
 Frequencies --   1520.1816              1526.4418              1551.1295
 Red. masses --      1.0566                 1.0982                 1.0847
 Frc consts  --      1.4386                 1.5077                 1.5376
 IR Inten    --     13.4986                10.7589                 6.1824

                     76                     77                     78
                      A                      A                      A
 Frequencies --   1677.6361              1718.9388              1730.5796
 Red. masses --      3.5528                 5.1860                 4.4742
 Frc consts  --      5.8914                 9.0283                 7.8949
 IR Inten    --      8.3021                15.0987                 0.6479

                     79                     80                     81
                      A                      A                      A
 Frequencies --   1787.8716              3047.4002              3049.8695
 Red. masses --     10.8711                 1.0617                 1.0585
 Frc consts  --     20.4737                 5.8090                 5.8008
 IR Inten    --    167.8654                31.0115                12.8979

                     82                     83                     84
                      A                      A                      A
 Frequencies --   3054.5970              3062.7633              3083.3599
 Red. masses --      1.0634                 1.0370                 1.0765
 Frc consts  --      5.8457                 5.7316                 6.0300
 IR Inten    --     19.1863                15.8219                27.2822

                     85                     86                     87
                      A                      A                      A
 Frequencies --   3086.9121              3092.7792              3102.8647
 Red. masses --      1.0869                 1.0995                 1.1071
 Frc consts  --      6.1025                 6.1963                 6.2799
 IR Inten    --     11.0419                74.4269                47.0252

                     88                     89                     90
                      A                      A                      A
 Frequencies --   3123.4773              3142.8871              3149.9256
 Red. masses --      1.0981                 1.1051                 1.1037
 Frc consts  --      6.3121                 6.4312                 6.4521
 IR Inten    --     13.3131                14.1621                12.3111

                     91                     92                     93
                      A                      A                      A
 Frequencies --   3150.8512              3162.9866              3165.4353
 Red. masses --      1.0813                 1.0837                 1.0699
 Frc consts  --      6.3248                 6.3878                 6.3165
 IR Inten    --      1.8380                26.1886                 3.1693

                     94                     95                     96
                      A                      A                      A
 Frequencies --   3170.9746              3183.8034              3247.3047
 Red. masses --      1.0662                 1.0606                 1.1158
 Frc consts  --      6.3162                 6.3345                 6.9327
 IR Inten    --      3.7565                 5.9014                15.7551

                     97                     98                     99
                      A                      A                      A
 Frequencies --   3263.4120              3273.2745              3765.8871
 Red. masses --      1.1123                 1.1157                 1.0666
 Frc consts  --      6.9792                 7.0431                 8.9125
 IR Inten    --      9.5828                 4.6482                10.9485

 - Thermochemistry -
 -------------------
 Temperature   298.150 Kelvin.  Pressure   1.00000 Atm.
 Atom     1 has atomic number  6 and mass  12.00000

 Molecular mass:   212.14124 amu.
 Principal axes and moments of inertia in atomic units:
                           1         2         3
     Eigenvalues --  2422.155965054.075565990.78396
           X            0.99997  -0.00116  -0.00706
           Y            0.00125   0.99992   0.01218
           Z            0.00705  -0.01219   0.99990
 This molecule is an asymmetric top.
 Rotational symmetry number  1.
 Warning -- assumption of classical behavior for rotation
           may cause significant error
 Rotational temperatures (Kelvin)      0.03576     0.01714     0.01446
 Rotational constants (GHZ):           0.74510     0.35709     0.30125
 Zero-point vibrational energy     793006.8 (Joules/Mol)
                                  189.53318 (Kcal/Mol)
 Warning -- explicit consideration of  28 degrees of freedom as
           vibrations may cause significant error
 Vibrational temperatures:     34.93    39.79    60.61    69.43    73.33
          (Kelvin)             86.85    99.37   110.51   130.93   139.16
                              158.53   240.99   261.88   267.63   294.13
                              350.07   378.86   435.00   476.52   528.23
                              534.82   553.91   646.69   729.78   744.49
                              770.95   820.56   874.92   930.22  1082.37
                             1119.91  1171.66  1185.60  1223.33  1306.50
                             1308.85  1330.18  1339.98  1348.05  1389.53
                             1391.94  1438.03  1452.32  1453.30  1483.17
                             1517.46  1524.83  1565.25  1579.49  1589.64
                             1619.46  1710.32  1749.96  1784.24  1787.73
                             1878.44  1912.85  1916.98  1930.12  1949.34
                             2010.18  2018.86  2037.45  2059.87  2065.57
                             2075.54  2077.67  2105.12  2152.69  2161.18
                             2170.16  2180.28  2187.20  2196.21  2231.73
                             2413.74  2473.17  2489.92  2572.35  4384.53
                             4388.08  4394.88  4406.63  4436.27  4441.38
                             4449.82  4464.33  4493.99  4521.91  4532.04
                             4533.37  4550.83  4554.36  4562.33  4580.78
                             4672.15  4695.32  4709.51  5418.27

 Zero-point correction=                           0.302040 (Hartree/Particle)
 Thermal correction to Energy=                    0.321459
 Thermal correction to Enthalpy=                  0.322403
 Thermal correction to Gibbs Free Energy=         0.251054
 Sum of electronic and zero-point Energies=           -694.683687
 Sum of electronic and thermal Energies=              -694.664269
 Sum of electronic and thermal Enthalpies=            -694.663325
 Sum of electronic and thermal Free Energies=         -694.734674

                     E (Thermal)             CV                S
                      KCal/Mol        Cal/Mol-Kelvin    Cal/Mol-Kelvin
 Total                  201.719             66.895            150.167
 Electronic               0.000              0.000              0.000
 Translational            0.889              2.981             41.960
 Rotational               0.889              2.981             32.661
 Vibrational            199.941             60.934             75.546
 Vibration     1          0.593              1.985              6.249
 Vibration     2          0.593              1.984              5.991
 Vibration     3          0.595              1.980              5.156
 Vibration     4          0.595              1.978              4.888
 Vibration     5          0.595              1.977              4.780
 Vibration     6          0.597              1.973              4.445
 Vibration     7          0.598              1.969              4.180
 Vibration     8          0.599              1.965              3.971
 Vibration     9          0.602              1.956              3.638
 Vibration    10          0.603              1.952              3.519
 Vibration    11          0.606              1.941              3.266
 Vibration    12          0.624              1.882              2.463
 Vibration    13          0.630              1.864              2.308
 Vibration    14          0.632              1.859              2.267
 Vibration    15          0.640              1.834              2.093
 Vibration    16          0.659              1.774              1.779
 Vibration    17          0.670              1.740              1.640
 Vibration    18          0.694              1.669              1.404
 Vibration    19          0.714              1.613              1.254
 Vibration    20          0.740              1.540              1.092
 Vibration    21          0.743              1.530              1.073
 Vibration    22          0.754              1.502              1.020
 Vibration    23          0.808              1.362              0.797
 Vibration    24          0.862              1.234              0.640
 Vibration    25          0.872              1.211              0.616
 Vibration    26          0.891              1.171              0.574
 Vibration    27          0.926              1.095              0.504
 Vibration    28          0.967              1.015              0.436

                           ! Non-Optimized Parameters !
 Normal termination of Gaussian 16 at Thu Dec 10 17:57:42 2020.

 ----------------------------------------------------------------------
 # B3LYP/6-311++G(d,p) empiricaldispersion=gd3bj scf=xqc pop=npa geom=c
 heck
 ----------------------------------------------------------------------

 --------------------------------------
 CID_87464952_JID_5607_Energie_neutraal
 --------------------------------------
 Structure from the checkpoint file:  "JID_5607.chk"
 Charge =  0 Multiplicity = 1

 SCF Done:  E(RB3LYP) =  -695.201331581     A.U. after   15 cycles
 Normal termination of Gaussian 16 at Thu Dec 10 18:03:16 2020.

 ----------------------------------------------------------------------
 # B3LYP/6-311++G(d,p) empiricaldispersion=gd3bj scf=xqc pop=npa geom=c
 heck
 ----------------------------------------------------------------------

 ------------------------------------
 CID_87464952_JID_5607_Energie_kation
 ------------------------------------
 Structure from the checkpoint file:  "JID_5607.chk"
 Charge =  1 Multiplicity = 2

 SCF Done:  E(UB3LYP) =  -694.886291164     A.U. after   27 cycles
 Normal termination of Gaussian 16 at Thu Dec 10 18:17:28 2020.
 Gaussian 16:  ES64L-G16RevA.03 25-Dec-2016

 ----------------------------------------------------------------------
 # B3LYP/6-311++G(d,p) empiricaldispersion=gd3bj scf=xqc pop=npa geom=c
 heck
 ----------------------------------------------------------------------

 -----------------------------------
 CID_87464952_JID_5607_Energie_anion
 -----------------------------------
 Structure from the checkpoint file:  "JID_5607.chk"
 Charge = -1 Multiplicity = 2

                         Standard orientation:
 ---------------------------------------------------------------------
 Center     Atomic      Atomic             Coordinates (Angstroms)
 Number     Number       Type             X           Y           Z
 ---------------------------------------------------------------------
      1          6           0       -2.289001   -1.348660    1.542030
      2          6           0       -1.455747   -1.549475    0.307792
      3          6           0       -1.963303   -1.822211   -0.900090
      4          6           0        0.013962   -1.404115    0.510495
      5          8           0        0.511658   -1.094192    1.577668
      6          8           0        0.730037   -1.657046   -0.611312
      7          6           0        2.165630   -1.541175   -0.536967
      8          6           0        2.643222   -0.362059   -1.377198
      9          6           0        2.129961    1.007948   -0.918094
     10          6           0        2.594173    1.418803    0.482942
     11          8           0        4.017321    1.423556    0.608571
     12          6           0       -3.938812    1.155495   -1.307909
     13          6           0       -3.272878    1.585927   -0.227649
     14          6           0       -1.830829    1.781503   -0.179554
     15          6           0       -1.166095    2.183203    0.912502
     16          1           0       -3.353007   -1.435333    1.308275
     17          1           0       -2.098590   -0.360603    1.971368
     18          1           0       -2.031405   -2.084569    2.312039
     19          1           0       -1.326736   -1.957322   -1.766678
     20          1           0       -3.035859   -1.904471   -1.046918
     21          1           0        2.452255   -1.450478    0.512840
     22          1           0        2.560255   -2.481553   -0.933107
     23          1           0        3.741244   -0.360393   -1.361873
     24          1           0        2.346955   -0.531794   -2.419142
     25          1           0        2.472943    1.762425   -1.636006
     26          1           0        1.032747    1.016966   -0.943290
     27          1           0        2.275289    2.448155    0.680663
     28          1           0        2.130094    0.779776    1.244880
     29          1           0        4.295967    0.519358    0.813011
     30          1           0       -3.421836    0.925418   -2.236639
     31          1           0       -5.016170    1.021786   -1.301857
     32          1           0       -3.819591    1.805712    0.689463
     33          1           0       -1.284256    1.573854   -1.099011
     34          1           0       -0.089592    2.311212    0.917234
     35          1           0       -1.684546    2.392202    1.845525
 ---------------------------------------------------------------------

 SCF Done:  E(UB3LYP) =  -695.202497440     A.U. after   30 cycles

 The electronic state is 2-A.
 Alpha  occ. eigenvalues --  -19.02670 -19.02064 -18.95839 -10.14082 -10.10939
 Alpha  occ. eigenvalues --  -10.10352 -10.06587 -10.05961 -10.04615 -10.04296
 Alpha  occ. eigenvalues --  -10.03658 -10.03515 -10.03155 -10.03065 -10.01496
 Alpha  occ. eigenvalues --   -0.96404  -0.91933  -0.87503  -0.69240  -0.67702
 Alpha  occ. eigenvalues --   -0.66220  -0.61750  -0.60529  -0.55973  -0.54340
 Alpha  occ. eigenvalues --   -0.49093  -0.47819  -0.45563  -0.42678  -0.42555
 Alpha  occ. eigenvalues --   -0.40561  -0.37006  -0.36018  -0.34865  -0.34022
 Alpha  occ. eigenvalues --   -0.33587  -0.33285  -0.32326  -0.30819  -0.30013
 Alpha  occ. eigenvalues --   -0.28421  -0.27514  -0.26798  -0.26682  -0.26010
 Alpha  occ. eigenvalues --   -0.25557  -0.24755  -0.23822  -0.22555  -0.21998
 Alpha  occ. eigenvalues --   -0.21861  -0.21415  -0.19821  -0.17406  -0.17111
 Alpha  occ. eigenvalues --   -0.13807  -0.12856  -0.11127   0.04803
 Alpha virt. eigenvalues --    0.06645   0.08108   0.08659   0.08926   0.09395
 Alpha virt. eigenvalues --    0.09941   0.10604   0.11069   0.11746   0.12016
 Alpha virt. eigenvalues --    0.12562   0.12982   0.13577   0.13838   0.14063

  Beta  occ. eigenvalues --  -19.02645 -19.02050 -18.95660 -10.13861 -10.10935
  Beta  occ. eigenvalues --  -10.10345 -10.06571 -10.05961 -10.04519 -10.04277
  Beta  occ. eigenvalues --  -10.03555 -10.03476 -10.03162 -10.02860 -10.01173
  Beta  occ. eigenvalues --   -0.96221  -0.91902  -0.87236  -0.69179  -0.67426
  Beta  occ. eigenvalues --   -0.65931  -0.61701  -0.60241  -0.55853  -0.54053
  Beta  occ. eigenvalues --   -0.48806  -0.47372  -0.45307  -0.42534  -0.42392
  Beta  occ. eigenvalues --   -0.40501  -0.36898  -0.35937  -0.34714  -0.33890
  Beta  occ. eigenvalues --   -0.33421  -0.33055  -0.32217  -0.30742  -0.29566
  Beta  occ. eigenvalues --   -0.28262  -0.27419  -0.26705  -0.26621  -0.25890
  Beta  occ. eigenvalues --   -0.25325  -0.24609  -0.23771  -0.22399  -0.21907
  Beta  occ. eigenvalues --   -0.21776  -0.21335  -0.19092  -0.17345  -0.16592
  Beta  occ. eigenvalues --   -0.13622  -0.11397  -0.10166
  Beta virt. eigenvalues --    0.07083   0.08600   0.08919   0.08979   0.09464
  Beta virt. eigenvalues --    0.09850   0.10125   0.10715   0.11312   0.11710
  Beta virt. eigenvalues --    0.12053   0.12578   0.13026   0.13548   0.13730

 Mulliken charges and spin densities:
               1          2
     1  C   -0.778637   0.006907
     2  C    1.132732  -0.027801
     3  C   -0.808611   0.316135
     4  C   -0.588510   0.110481
     5  O   -0.275106   0.065081
     6  O    0.028755   0.000628
     7  C   -0.044348   0.013670
     8  C    0.026453  -0.578339
     9  C   -0.171945   0.331556
    10  C   -0.291971  -0.307721
    11  O   -0.260617   0.006193
    12  C   -0.733200   0.157320
    13  C    0.123872   0.039877
    14  C    0.423915  -0.060711
    15  C   -0.799739   0.220584
    16  H    0.114998   0.001066
    17  H    0.149583   0.012018
    18  H    0.140817   0.003860
    19  H    0.145367  -0.017507
    20  H    0.112971  -0.024308
    21  H    0.191072  -0.039490
    22  H   -0.101916   0.264137
    23  H   -0.105076   0.254297
    24  H    0.082184   0.061351
    25  H    0.130531   0.020677
    26  H    0.060037  -0.014200
    27  H    0.183464  -0.004355
    28  H    0.171750   0.056827
    29  H    0.110495   0.148352
    30  H    0.094119  -0.003097
    31  H    0.102530   0.000709
    32  H    0.123955  -0.004352
    33  H    0.123088   0.009651
    34  H    0.084510  -0.009399
    35  H    0.102475  -0.010100
 Sum of Mulliken charges =  -1.00000   1.00000

 Dipole moment (field-independent basis, Debye):
    X=              0.3619    Y=             -0.1118    Z=             -0.6555  Tot=              0.7571
 Quadrupole moment (field-independent basis, Debye-Ang):
   XX=           -142.6566   YY=           -123.9103   ZZ=           -111.0666
   XY=             -1.6869   XZ=             -4.6204   YZ=             -0.1820

 Summary of Natural Population Analysis:

                                       Natural Population
                Natural  -----------------------------------------------
    Atom  No    Charge         Core      Valence    Rydberg      Total
 -----------------------------------------------------------------------
      C    1   -0.29261      0.99964     2.28784    0.00513     3.29261
      C    2   -0.07176      0.99948     2.06036    0.01191     3.07176
      C    3   -0.09308      0.99954     2.08738    0.00617     3.09308
      C    4    0.42144      0.99960     1.55335    0.02561     2.57856
      O    5   -0.31215      0.99987     3.30720    0.00507     4.31215
      O    6   -0.28954      0.99986     3.28110    0.00858     4.28954
      C    7   -0.02001      0.99956     2.00761    0.01285     3.02001
      C    8   -0.20493      0.99962     2.19523    0.01008     3.20493
      C    9   -0.20635      0.99962     2.19835    0.00838     3.20635
      C   10   -0.02215      0.99959     2.00946    0.01310     3.02215
      O   11   -0.37554      0.99990     3.36917    0.00648     4.37554
      C   12   -0.17641      0.99959     2.16949    0.00733     3.17641
      C   13   -0.08784      0.99956     2.07860    0.00969     3.08784
      C   14   -0.11367      0.99955     2.10229    0.01182     3.11367
      C   15   -0.13878      0.99958     2.13249    0.00670     3.13878
      H   16    0.09445      0.00000     0.40470    0.00086     0.40555
      H   17    0.10884      0.00000     0.38996    0.00119     0.39116
      H   18    0.09808      0.00000     0.40085    0.00107     0.40192
      H   19    0.09253      0.00000     0.40658    0.00089     0.40747
      H   20    0.08390      0.00000     0.41509    0.00100     0.41610
      H   21    0.09642      0.00000     0.40206    0.00152     0.40358
      H   22    0.08668      0.00000     0.41219    0.00113     0.41332
      H   23    0.09783      0.00000     0.40067    0.00150     0.40217
      H   24    0.09903      0.00000     0.40001    0.00096     0.40097
      H   25    0.09442      0.00000     0.40461    0.00097     0.40558
      H   26    0.10698      0.00000     0.39109    0.00193     0.39302
      H   27    0.08237      0.00000     0.41648    0.00115     0.41763
      H   28    0.09670      0.00000     0.40205    0.00125     0.40330
      H   29    0.22709      0.00000     0.27018    0.00273     0.27291
      H   30    0.08808      0.00000     0.41087    0.00105     0.41192
      H   31    0.08487      0.00000     0.41413    0.00100     0.41513
      H   32    0.08516      0.00000     0.41329    0.00155     0.41484
      H   33    0.09041      0.00000     0.40784    0.00175     0.40959
      H   34    0.08748      0.00000     0.41142    0.00110     0.41252
      H   35    0.08205      0.00000     0.41692    0.00103     0.41795
 =======================================================================
   * Total *    0.00000     14.99457    42.83089    0.17455    58.00000

 Normal termination of Gaussian 16 at Thu Dec 10 18:32:47 2020.
