 Gaussian 16, Revision A.03,

 -----------------------------------------------------------
 # opt freq B3LYP/6-31G(d) empiricaldispersion=gd3bj scf=xqc
 -----------------------------------------------------------

 -------------------------------
 CID_14025749_JID_10604_neutraal
 -------------------------------
 Symbolic Z-matrix:
 Charge =  0 Multiplicity = 1

 SCF Done:  E(RB3LYP) =  -1256.67830768     A.U. after   15 cycles
 SCF Done:  E(RB3LYP) =  -1256.68879207     A.U. after   14 cycles
 SCF Done:  E(RB3LYP) =  -1256.69493482     A.U. after   13 cycles
 SCF Done:  E(RB3LYP) =  -1256.69739018     A.U. after   15 cycles
 SCF Done:  E(RB3LYP) =  -1256.70065865     A.U. after   13 cycles
 SCF Done:  E(RB3LYP) =  -1256.70086567     A.U. after   12 cycles
 SCF Done:  E(RB3LYP) =  -1256.70159463     A.U. after   12 cycles
 SCF Done:  E(RB3LYP) =  -1256.70172431     A.U. after   11 cycles
 SCF Done:  E(RB3LYP) =  -1256.70173658     A.U. after   10 cycles
 SCF Done:  E(RB3LYP) =  -1256.70176823     A.U. after   10 cycles
 SCF Done:  E(RB3LYP) =  -1256.70177980     A.U. after   10 cycles
 SCF Done:  E(RB3LYP) =  -1256.70178170     A.U. after    9 cycles
 SCF Done:  E(RB3LYP) =  -1256.70178253     A.U. after    9 cycles
 SCF Done:  E(RB3LYP) =  -1256.70178263     A.U. after    7 cycles
 SCF Done:  E(RB3LYP) =  -1256.70178267     A.U. after    6 cycles
 Optimization completed.
    -- Stationary point found.
 Normal termination of Gaussian 16 at Sun Dec 13 16:55:40 2020.

 --------------------------------------------------------------------
 #N Geom=AllCheck Guess=TCheck SCRF=Check GenChk RB3LYP/6-31G(d) Freq
 --------------------------------------------------------------------

 Structure from the checkpoint file:  "JID_10604.chk"
 -------------------------------
 CID_14025749_JID_10604_neutraal
 -------------------------------
 Charge =  0 Multiplicity = 1

 SCF Done:  E(RB3LYP) =  -1256.70178267     A.U. after    1 cycles

  Exact polarizability: 225.194 -10.291 184.911  14.472 -10.239 150.216
 Approx polarizability: 333.282 -39.951 280.617  36.414 -34.648 250.521

                      1                      2                      3
                      A                      A                      A
 Frequencies --     25.2624                33.2599                47.5262
 Red. masses --      4.4060                 4.4172                 3.7886
 Frc consts  --      0.0017                 0.0029                 0.0050
 IR Inten    --      0.2017                 0.2452                 0.4766

                      4                      5                      6
                      A                      A                      A
 Frequencies --     62.7784                62.9340                71.6921
 Red. masses --      3.3474                 5.9956                 2.6097
 Frc consts  --      0.0078                 0.0140                 0.0079
 IR Inten    --      0.2823                 1.3253                 4.0147

                      7                      8                      9
                      A                      A                      A
 Frequencies --     93.2644               126.2765               127.0701
 Red. masses --      5.7007                 2.3265                 3.9733
 Frc consts  --      0.0292                 0.0219                 0.0378
 IR Inten    --      3.2829                 0.3698                 1.1292

                     10                     11                     12
                      A                      A                      A
 Frequencies --    133.8129               159.2962               168.8182
 Red. masses --      2.1268                 2.9756                 3.0398
 Frc consts  --      0.0224                 0.0445                 0.0510
 IR Inten    --      2.7632                 3.0569                 7.9497

                     13                     14                     15
                      A                      A                      A
 Frequencies --    184.3532               215.9534               235.7586
 Red. masses --      1.1183                 1.8418                 2.0061
 Frc consts  --      0.0224                 0.0506                 0.0657
 IR Inten    --      0.5743                 3.6315                 0.7561

                     16                     17                     18
                      A                      A                      A
 Frequencies --    244.6097               247.8481               266.1311
 Red. masses --      3.4509                 4.6383                 4.8035
 Frc consts  --      0.1217                 0.1679                 0.2004
 IR Inten    --      2.7914                 4.3890                 4.1165

                     19                     20                     21
                      A                      A                      A
 Frequencies --    295.9376               330.5084               338.3488
 Red. masses --      6.1252                 4.6937                 3.6781
 Frc consts  --      0.3161                 0.3021                 0.2481
 IR Inten    --      2.4072                 1.7079                 1.2535

                     22                     23                     24
                      A                      A                      A
 Frequencies --    373.8233               414.0555               415.8235
 Red. masses --      5.8038                 6.3574                 3.7408
 Frc consts  --      0.4779                 0.6422                 0.3811
 IR Inten    --      0.5652                 2.9589                 0.2645

                     25                     26                     27
                      A                      A                      A
 Frequencies --    461.9731               506.7879               571.1698
 Red. masses --      3.8416                 3.8212                 3.7724
 Frc consts  --      0.4830                 0.5782                 0.7251
 IR Inten    --      8.0308                 3.7250                25.0027

                     28                     29                     30
                      A                      A                      A
 Frequencies --    575.7954               604.4720               631.8037
 Red. masses --      3.4091                 5.7043                 6.5953
 Frc consts  --      0.6659                 1.2280                 1.5511
 IR Inten    --      9.5759                10.1758                 4.1009

                     31                     32                     33
                      A                      A                      A
 Frequencies --    639.4351               645.2881               675.6474
 Red. masses --      6.7831                 5.1469                 5.5136
 Frc consts  --      1.6341                 1.2627                 1.4829
 IR Inten    --      6.8614                15.6453                20.7449

                     34                     35                     36
                      A                      A                      A
 Frequencies --    705.2806               709.5598               715.2115
 Red. masses --      5.9859                 2.6839                 2.8940
 Frc consts  --      1.7543                 0.7962                 0.8722
 IR Inten    --      1.8318                16.0410                17.7019

                     37                     38                     39
                      A                      A                      A
 Frequencies --    738.4665               782.8255               817.0932
 Red. masses --      2.8282                 2.3011                 1.3166
 Frc consts  --      0.9087                 0.8308                 0.5179
 IR Inten    --      4.6424                24.4412                 1.0892

                     40                     41                     42
                      A                      A                      A
 Frequencies --    848.1745               859.5983               896.7364
 Red. masses --      4.1094                 1.2596                 4.8371
 Frc consts  --      1.7418                 0.5484                 2.2917
 IR Inten    --     18.2197                 1.0450                50.2022

                     43                     44                     45
                      A                      A                      A
 Frequencies --    933.8686               962.2939               971.6866
 Red. masses --      1.4939                 2.6356                 1.3590
 Frc consts  --      0.7676                 1.4379                 0.7560
 IR Inten    --      5.5159                 4.7117                 0.3037

                     46                     47                     48
                      A                      A                      A
 Frequencies --    973.0852               997.6660               999.5325
 Red. masses --      2.6448                 1.1933                 1.2658
 Frc consts  --      1.4755                 0.6998                 0.7451
 IR Inten    --     25.2088                 3.5981                 0.0896

                     49                     50                     51
                      A                      A                      A
 Frequencies --   1010.6237              1023.7221              1036.3601
 Red. masses --      1.3485                 6.0291                 2.7658
 Frc consts  --      0.8115                 3.7228                 1.7502
 IR Inten    --     14.2562                 1.5644                29.4602

                     52                     53                     54
                      A                      A                      A
 Frequencies --   1059.6601              1066.1709              1069.4525
 Red. masses --      2.3870                 1.9718                 1.9398
 Frc consts  --      1.5792                 1.3206                 1.3072
 IR Inten    --      2.2015                13.5823                 8.1520

                     55                     56                     57
                      A                      A                      A
 Frequencies --   1099.4216              1118.0448              1133.6949
 Red. masses --      1.7364                 1.6806                 1.9516
 Frc consts  --      1.2366                 1.2377                 1.4778
 IR Inten    --      5.8054                 6.2511                30.4471

                     58                     59                     60
                      A                      A                      A
 Frequencies --   1150.6257              1179.9760              1196.0482
 Red. masses --      4.3146                 4.2174                 1.1009
 Frc consts  --      3.3656                 3.4597                 0.9278
 IR Inten    --     12.0254                33.0220                 0.1457

                     61                     62                     63
                      A                      A                      A
 Frequencies --   1217.2305              1227.4679              1273.0669
 Red. masses --      1.1636                 2.7577                 3.2248
 Frc consts  --      1.0158                 2.4481                 3.0793
 IR Inten    --      6.9284                27.4680               167.5852

                     64                     65                     66
                      A                      A                      A
 Frequencies --   1300.2423              1311.1566              1332.9488
 Red. masses --      1.6499                 1.6796                 1.9745
 Frc consts  --      1.6434                 1.7013                 2.0669
 IR Inten    --     70.4220                11.7263                28.2156

                     67                     68                     69
                      A                      A                      A
 Frequencies --   1362.1669              1372.0784              1385.0233
 Red. masses --      1.5194                 2.2335                 1.3734
 Frc consts  --      1.6611                 2.4774                 1.5523
 IR Inten    --      2.8074                 3.4621               114.4729

                     70                     71                     72
                      A                      A                      A
 Frequencies --   1389.7074              1406.5215              1430.0275
 Red. masses --      2.0308                 1.4077                 1.3128
 Frc consts  --      2.3108                 1.6408                 1.5818
 IR Inten    --    169.2736                31.1959                37.0958

                     73                     74                     75
                      A                      A                      A
 Frequencies --   1431.7023              1472.8720              1487.7672
 Red. masses --      1.6159                 4.6990                 1.0530
 Frc consts  --      1.9515                 6.0061                 1.3733
 IR Inten    --    170.2317               206.9725                 9.3777

                     76                     77                     78
                      A                      A                      A
 Frequencies --   1498.7712              1502.9568              1505.3150
 Red. masses --      1.0686                 1.0958                 1.0695
 Frc consts  --      1.4143                 1.4583                 1.4278
 IR Inten    --     13.7293                24.8744                16.3019

                     79                     80                     81
                      A                      A                      A
 Frequencies --   1508.7441              1508.9973              1529.3135
 Red. masses --      1.4280                 1.3906                 1.0419
 Frc consts  --      1.9152                 1.8656                 1.4357
 IR Inten    --     26.0241                 7.1381                 6.4007

                     82                     83                     84
                      A                      A                      A
 Frequencies --   1539.8702              1547.9921              1622.6313
 Red. masses --      1.0695                 2.1848                11.3155
 Frc consts  --      1.4942                 3.0846                17.5534
 IR Inten    --     10.1244                 6.7168                89.0991

                     85                     86                     87
                      A                      A                      A
 Frequencies --   1651.0757              1666.7278              1751.8875
 Red. masses --      5.5875                 5.4713                10.8769
 Frc consts  --      8.9744                 8.9551                19.6684
 IR Inten    --      0.6492                 0.3675               312.6726

                     88                     89                     90
                      A                      A                      A
 Frequencies --   1787.8081              3060.1986              3065.7593
 Red. masses --     10.7079                 1.0349                 1.0406
 Frc consts  --     20.1648                 5.7102                 5.7625
 IR Inten    --    287.2761                25.9330                 1.1579

                     91                     92                     93
                      A                      A                      A
 Frequencies --   3077.7082              3080.4753              3080.7574
 Red. masses --      1.0859                 1.0290                 1.0608
 Frc consts  --      6.0603                 5.7532                 5.9319
 IR Inten    --     13.9136                14.4195                11.8994

                     94                     95                     96
                      A                      A                      A
 Frequencies --   3125.2050              3131.2129              3132.3575
 Red. masses --      1.1018                 1.1041                 1.0980
 Frc consts  --      6.3401                 6.3778                 6.3476
 IR Inten    --     15.3533                14.3283                 3.5697

                     97                     98                     99
                      A                      A                      A
 Frequencies --   3148.8838              3173.3195              3176.1117
 Red. masses --      1.1039                 1.1060                 1.1077
 Frc consts  --      6.4488                 6.5619                 6.5837
 IR Inten    --     32.2989                 4.9829                 4.4517

                    100                    101                    102
                      A                      A                      A
 Frequencies --   3185.2390              3187.0636              3196.2730
 Red. masses --      1.1022                 1.0852                 1.0883
 Frc consts  --      6.5886                 6.4946                 6.5504
 IR Inten    --      4.5623                 0.1220                 6.6132

                    103                    104                    105
                      A                      A                      A
 Frequencies --   3204.8558              3213.3136              3223.8393
 Red. masses --      1.0922                 1.0962                 1.0943
 Frc consts  --      6.6094                 6.6688                 6.7011
 IR Inten    --     23.1965                19.1239                 4.2522

 - Thermochemistry -
 -------------------
 Temperature   298.150 Kelvin.  Pressure   1.00000 Atm.
 Atom     1 has atomic number  6 and mass  12.00000

 Molecular mass:   291.10415 amu.
 Principal axes and moments of inertia in atomic units:
                           1         2         3
     Eigenvalues --  4910.704456221.698098841.28091
           X            0.99611   0.08788   0.00706
           Y           -0.08802   0.99584   0.02355
           Z           -0.00496  -0.02408   0.99970
 This molecule is an asymmetric top.
 Rotational symmetry number  1.
 Warning -- assumption of classical behavior for rotation
           may cause significant error
 Rotational temperatures (Kelvin)      0.01764     0.01392     0.00980
 Rotational constants (GHZ):           0.36751     0.29007     0.20413
 Zero-point vibrational energy     780725.1 (Joules/Mol)
                                  186.59777 (Kcal/Mol)
 Warning -- explicit consideration of  29 degrees of freedom as
           vibrations may cause significant error
 Vibrational temperatures:     36.35    47.85    68.38    90.32    90.55
          (Kelvin)            103.15   134.19   181.68   182.83   192.53
                              229.19   242.89   265.24   310.71   339.20
                              351.94   356.60   382.90   425.79   475.53
                              486.81   537.85   595.73   598.28   664.68
                              729.15   821.79   828.44   869.70   909.02
                              920.00   928.43   972.11  1014.74  1020.90
                             1029.03  1062.49  1126.31  1175.61  1220.33
                             1236.77  1290.20  1343.63  1384.53  1398.04
                             1400.05  1435.42  1438.10  1454.06  1472.91
                             1491.09  1524.61  1533.98  1538.70  1581.82
                             1608.62  1631.13  1655.49  1697.72  1720.85
                             1751.32  1766.05  1831.66  1870.76  1886.46
                             1917.82  1959.85  1974.11  1992.74  1999.48
                             2023.67  2057.49  2059.90  2119.13  2140.57
                             2156.40  2162.42  2165.81  2170.75  2171.11
                             2200.34  2215.53  2227.22  2334.60  2375.53
                             2398.05  2520.58  2572.26  4402.94  4410.94
                             4428.14  4432.12  4432.52  4496.47  4505.12
                             4506.76  4530.54  4565.70  4569.72  4582.85
                             4585.47  4598.72  4611.07  4623.24  4638.39

 Zero-point correction=                           0.297362 (Hartree/Particle)
 Thermal correction to Energy=                    0.317445
 Thermal correction to Enthalpy=                  0.318390
 Thermal correction to Gibbs Free Energy=         0.247036
 Sum of electronic and zero-point Energies=          -1256.404420
 Sum of electronic and thermal Energies=             -1256.384337
 Sum of electronic and thermal Enthalpies=           -1256.383393
 Sum of electronic and thermal Free Energies=        -1256.454747

                     E (Thermal)             CV                S
                      KCal/Mol        Cal/Mol-Kelvin    Cal/Mol-Kelvin
 Total                  199.200             73.515            150.177
 Electronic               0.000              0.000              0.000
 Translational            0.889              2.981             42.903
 Rotational               0.889              2.981             33.957
 Vibrational            197.423             67.554             73.317
 Vibration     1          0.593              1.985              6.170
 Vibration     2          0.594              1.983              5.625
 Vibration     3          0.595              1.979              4.918
 Vibration     4          0.597              1.972              4.368
 Vibration     5          0.597              1.972              4.363
 Vibration     6          0.598              1.968              4.106
 Vibration     7          0.602              1.954              3.590
 Vibration     8          0.611              1.927              3.002
 Vibration     9          0.611              1.926              2.990
 Vibration    10          0.613              1.920              2.890
 Vibration    11          0.621              1.892              2.558
 Vibration    12          0.625              1.881              2.449
 Vibration    13          0.631              1.861              2.284
 Vibration    14          0.645              1.817              1.993
 Vibration    15          0.655              1.786              1.835
 Vibration    16          0.660              1.772              1.769
 Vibration    17          0.661              1.766              1.746
 Vibration    18          0.672              1.735              1.621
 Vibration    19          0.690              1.681              1.440
 Vibration    20          0.713              1.615              1.258
 Vibration    21          0.719              1.599              1.220
 Vibration    22          0.745              1.526              1.064
 Vibration    23          0.778              1.440              0.912
 Vibration    24          0.779              1.436              0.906
 Vibration    25          0.820              1.334              0.760
 Vibration    26          0.862              1.235              0.641
 Vibration    27          0.927              1.094              0.502
 Vibration    28          0.932              1.084              0.493
 Vibration    29          0.963              1.022              0.442

                           ! Non-Optimized Parameters !
 Normal termination of Gaussian 16 at Sun Dec 13 17:17:24 2020.

 ----------------------------------------------------------------------
 # B3LYP/6-311++G(d,p) empiricaldispersion=gd3bj scf=xqc pop=npa geom=c
 heck
 ----------------------------------------------------------------------

 ---------------------------------------
 CID_14025749_JID_10604_Energie_neutraal
 ---------------------------------------
 Structure from the checkpoint file:  "JID_10604.chk"
 Charge =  0 Multiplicity = 1

 SCF Done:  E(RB3LYP) =  -1256.96161005     A.U. after   16 cycles
 Normal termination of Gaussian 16 at Sun Dec 13 17:25:37 2020.

 ----------------------------------------------------------------------
 # B3LYP/6-311++G(d,p) empiricaldispersion=gd3bj scf=xqc pop=npa geom=c
 heck
 ----------------------------------------------------------------------

 -------------------------------------
 CID_14025749_JID_10604_Energie_kation
 -------------------------------------
 Structure from the checkpoint file:  "JID_10604.chk"
 Charge =  1 Multiplicity = 2

 SCF Done:  E(UB3LYP) =  -1256.68286813     A.U. after   27 cycles
 Normal termination of Gaussian 16 at Sun Dec 13 17:45:30 2020.
 Gaussian 16:  ES64L-G16RevA.03 25-Dec-2016

 ----------------------------------------------------------------------
 # B3LYP/6-311++G(d,p) empiricaldispersion=gd3bj scf=xqc pop=npa geom=c
 heck
 ----------------------------------------------------------------------

 ------------------------------------
 CID_14025749_JID_10604_Energie_anion
 ------------------------------------
 Structure from the checkpoint file:  "JID_10604.chk"
 Charge = -1 Multiplicity = 2

                         Standard orientation:
 ---------------------------------------------------------------------
 Center     Atomic      Atomic             Coordinates (Angstroms)
 Number     Number       Type             X           Y           Z
 ---------------------------------------------------------------------
      1          6           0        0.262168    3.894318    0.901799
      2          6           0        0.465267    3.578055   -0.588913
      3          6           0       -0.308286    2.343329   -1.003892
      4          8           0       -1.351203    2.365157   -1.653089
      5          7           0        0.192963    1.144062   -0.570097
      6          6           0       -0.453267   -0.136495   -0.887684
      7          7           0        0.682659   -1.036189   -0.618930
      8          6           0        1.700790   -0.281448   -0.008712
      9          7           0        1.441864    0.983642    0.035567
     10         16           0        3.158859   -1.012905    0.633037
     11          6           0        3.932295    0.522668    1.260311
     12          6           0        0.729421   -2.397806   -0.884952
     13          8           0        1.687689   -3.069087   -0.537702
     14          6           0       -0.458989   -2.966020   -1.626629
     15          6           0       -1.664870   -0.410586   -0.014739
     16          6           0       -1.514527   -0.932718    1.273862
     17          6           0       -2.634717   -1.146240    2.075909
     18          6           0       -3.908461   -0.836258    1.595859
     19          6           0       -4.058538   -0.309647    0.311978
     20          6           0       -2.939867   -0.096818   -0.492620
     21          1           0       -0.801979    4.010311    1.132639
     22          1           0        0.771810    4.826593    1.166253
     23          1           0        0.667396    3.092048    1.524900
     24          1           0        0.093080    4.394769   -1.212496
     25          1           0        1.531079    3.434769   -0.793460
     26          1           0       -0.738937   -0.146794   -1.944417
     27          1           0        4.120173    1.223401    0.445021
     28          1           0        3.297284    0.999352    2.009153
     29          1           0        4.877242    0.210878    1.711528
     30          1           0       -1.374643   -2.861595   -1.036716
     31          1           0       -0.617129   -2.444010   -2.577362
     32          1           0       -0.262482   -4.020785   -1.819190
     33          1           0       -0.525430   -1.181815    1.646715
     34          1           0       -2.512465   -1.556619    3.074133
     35          1           0       -4.780911   -1.004842    2.220685
     36          1           0       -5.047237   -0.063540   -0.064343
     37          1           0       -3.043406    0.339204   -1.480563
 ---------------------------------------------------------------------

 SCF Done:  E(UB3LYP) =  -1256.95573100     A.U. after   33 cycles
 SCF Done:  E(UB3LYP) =  -1256.95573129     a.u. after    2 cycles

 The electronic state is 2-A.
 Alpha  occ. eigenvalues --  -88.75346 -18.98206 -18.98031 -14.26471 -14.25715
 Alpha  occ. eigenvalues --  -14.21446 -10.16251 -10.16076 -10.15865 -10.14433
 Alpha  occ. eigenvalues --  -10.09023 -10.07675 -10.07466 -10.07415 -10.07349
 Alpha  occ. eigenvalues --  -10.07228 -10.07168 -10.07084 -10.06685 -10.06457
 Alpha  occ. eigenvalues --   -7.83861  -5.80272  -5.79860  -5.79247  -0.96383
 Alpha  occ. eigenvalues --   -0.93580  -0.91114  -0.81822  -0.76718  -0.74586
 Alpha  occ. eigenvalues --   -0.68395  -0.67988  -0.65459  -0.64619  -0.64577
 Alpha  occ. eigenvalues --   -0.60013  -0.56974  -0.53957  -0.52025  -0.50834
 Alpha  occ. eigenvalues --   -0.49103  -0.47062  -0.43621  -0.42790  -0.40428
 Alpha  occ. eigenvalues --   -0.38104  -0.37652  -0.36687  -0.35290  -0.34955
 Alpha  occ. eigenvalues --   -0.34508  -0.33665  -0.33114  -0.32866  -0.32533
 Alpha  occ. eigenvalues --   -0.31883  -0.31684  -0.30436  -0.30372  -0.29134
 Alpha  occ. eigenvalues --   -0.28381  -0.27524  -0.26709  -0.26652  -0.25361
 Alpha  occ. eigenvalues --   -0.24861  -0.24495  -0.24331  -0.23675  -0.20392
 Alpha  occ. eigenvalues --   -0.19290  -0.16125  -0.15611  -0.15395  -0.15188
 Alpha  occ. eigenvalues --   -0.14349  -0.09702   0.04606
 Alpha virt. eigenvalues --    0.06473   0.06773   0.07563   0.07705   0.08124
 Alpha virt. eigenvalues --    0.08528   0.08587   0.09407   0.09973   0.10279
 Alpha virt. eigenvalues --    0.10721   0.11291   0.11560   0.11732   0.11910

  Beta  occ. eigenvalues --  -88.75335 -18.98024 -18.97997 -14.26490 -14.25798
  Beta  occ. eigenvalues --  -14.21248 -10.16022 -10.16021 -10.15860 -10.14175
  Beta  occ. eigenvalues --  -10.09001 -10.07616 -10.07486 -10.07430 -10.07366
  Beta  occ. eigenvalues --  -10.07222 -10.07089 -10.07010 -10.06600 -10.06443
  Beta  occ. eigenvalues --   -7.83851  -5.80271  -5.79854  -5.79209  -0.96224
  Beta  occ. eigenvalues --   -0.93322  -0.90940  -0.81718  -0.76540  -0.74427
  Beta  occ. eigenvalues --   -0.68320  -0.67884  -0.65335  -0.64500  -0.64411
  Beta  occ. eigenvalues --   -0.59918  -0.56803  -0.53897  -0.51842  -0.50696
  Beta  occ. eigenvalues --   -0.48941  -0.46952  -0.43484  -0.42710  -0.40266
  Beta  occ. eigenvalues --   -0.37949  -0.37523  -0.36539  -0.35093  -0.34771
  Beta  occ. eigenvalues --   -0.34272  -0.33594  -0.33047  -0.32746  -0.32474
  Beta  occ. eigenvalues --   -0.31807  -0.31576  -0.30325  -0.30275  -0.28845
  Beta  occ. eigenvalues --   -0.28105  -0.27445  -0.26498  -0.26298  -0.25303
  Beta  occ. eigenvalues --   -0.24673  -0.24263  -0.23962  -0.23566  -0.20050
  Beta  occ. eigenvalues --   -0.18925  -0.15851  -0.15379  -0.15233  -0.14972
  Beta  occ. eigenvalues --   -0.14048  -0.09176
  Beta virt. eigenvalues --    0.06639   0.06894   0.07753   0.07801   0.08207
  Beta virt. eigenvalues --    0.08550   0.08644   0.09429   0.09629   0.10011
  Beta virt. eigenvalues --    0.10387   0.10798   0.11316   0.11732   0.11914

 Mulliken charges and spin densities:
               1          2
     1  C   -0.080894  -0.396680
     2  C   -0.575656   0.296974
     3  C    0.110807  -0.201874
     4  O   -0.309131   0.021153
     5  N    0.039092  -0.021139
     6  C    0.180584  -0.113966
     7  N    0.061568  -0.059781
     8  C   -0.029052  -0.027798
     9  N    0.180351   0.096642
    10  S   -0.306035   0.139574
    11  C   -0.202057  -0.400789
    12  C    0.002163   0.340275
    13  O   -0.309599   0.063880
    14  C   -0.268277  -0.379448
    15  C    0.746607   0.013872
    16  C   -0.495985   0.169124
    17  C   -0.432206   0.027500
    18  C    0.050215  -0.363032
    19  C   -0.441905  -0.025089
    20  C   -0.164770   0.126576
    21  H    0.122061   0.023997
    22  H   -0.155951   0.294648
    23  H    0.185456  -0.036913
    24  H    0.106462   0.056468
    25  H    0.028697   0.135417
    26  H    0.196789   0.110969
    27  H    0.032421   0.153473
    28  H   -0.011330   0.185294
    29  H   -0.051800   0.207719
    30  H    0.059073   0.110254
    31  H    0.100303   0.035476
    32  H    0.180444   0.010362
    33  H    0.305912  -0.083350
    34  H   -0.022743   0.180810
    35  H   -0.013088   0.137181
    36  H    0.021509   0.141700
    37  H    0.159966   0.030524
 Sum of Mulliken charges =  -1.00000   1.00000

 Dipole moment (field-independent basis, Debye):
    X=             -1.1527    Y=             -0.5762    Z=             -0.2949  Tot=              1.3220
 Quadrupole moment (field-independent basis, Debye-Ang):
   XX=           -178.3786   YY=           -176.6340   ZZ=           -145.1229
   XY=              5.6347   XZ=             -0.9764   YZ=              2.6145

 Summary of Natural Population Analysis:

                                       Natural Population
                Natural  -----------------------------------------------
    Atom  No    Charge         Core      Valence    Rydberg      Total
 -----------------------------------------------------------------------
      C    1   -0.28437      0.99966     2.27901    0.00570     3.28437
      C    2   -0.23006      0.99961     2.22197    0.00849     3.23006
      C    3    0.34960      0.99964     1.62848    0.02228     2.65040
      O    4   -0.32776      0.99988     3.32267    0.00521     4.32776
      N    5   -0.16838      0.99960     2.65574    0.01304     3.66838
      C    6    0.09528      0.99955     1.89102    0.01415     2.90472
      N    7   -0.27577      0.99959     2.76511    0.01107     3.77577
      C    8    0.16786      0.99958     1.81497    0.01760     2.83214
      N    9   -0.16116      0.99962     2.65007    0.01147     3.66116
      S   10    0.16121      4.99953     2.81724    0.02202     7.83879
      C   11   -0.35588      0.99962     2.34918    0.00708     3.35588
      C   12    0.37889      0.99969     1.59974    0.02168     2.62111
      O   13   -0.29321      0.99987     3.28791    0.00542     4.29321
      C   14   -0.33540      0.99963     2.33140    0.00437     3.33540
      C   15   -0.02658      0.99948     2.01665    0.01045     3.02658
      C   16   -0.10332      0.99951     2.09398    0.00983     3.10332
      C   17   -0.09116      0.99957     2.08214    0.00945     3.09116
      C   18   -0.09231      0.99957     2.08302    0.00972     3.09231
      C   19   -0.10664      0.99957     2.09757    0.00950     3.10664
      C   20   -0.07870      0.99951     2.06905    0.01014     3.07870
      H   21    0.09723      0.00000     0.40191    0.00086     0.40277
      H   22    0.09564      0.00000     0.40340    0.00096     0.40436
      H   23    0.10696      0.00000     0.39191    0.00113     0.39304
      H   24    0.10332      0.00000     0.39556    0.00112     0.39668
      H   25    0.11134      0.00000     0.38723    0.00142     0.38866
      H   26    0.10666      0.00000     0.39155    0.00179     0.39334
      H   27    0.10756      0.00000     0.39085    0.00159     0.39244
      H   28    0.10786      0.00000     0.39058    0.00155     0.39214
      H   29    0.10183      0.00000     0.39723    0.00094     0.39817
      H   30    0.11869      0.00000     0.38011    0.00120     0.38131
      H   31    0.10558      0.00000     0.39344    0.00098     0.39442
      H   32    0.10983      0.00000     0.38920    0.00097     0.39017
      H   33    0.10598      0.00000     0.39230    0.00172     0.39402
      H   34    0.09734      0.00000     0.40186    0.00080     0.40266
      H   35    0.09597      0.00000     0.40324    0.00079     0.40403
      H   36    0.09753      0.00000     0.40167    0.00080     0.40247
      H   37    0.10855      0.00000     0.38998    0.00148     0.39145
 =======================================================================
   * Total *   -0.00000     23.99228    52.75892    0.24879    77.00000

 Normal termination of Gaussian 16 at Sun Dec 13 18:35:21 2020.
