 Gaussian 16, Revision A.03,

 -----------------------------------------------------------
 # opt freq B3LYP/6-31G(d) empiricaldispersion=gd3bj scf=xqc
 -----------------------------------------------------------

 ------------------------------
 CID_50925636_JID_5111_neutraal
 ------------------------------
 Symbolic Z-matrix:
 Charge =  0 Multiplicity = 1

 SCF Done:  E(RB3LYP) =  -1037.53746621     A.U. after   16 cycles
 SCF Done:  E(RB3LYP) =  -1037.54843206     A.U. after   13 cycles
 SCF Done:  E(RB3LYP) =  -1037.55215900     A.U. after   13 cycles
 SCF Done:  E(RB3LYP) =  -1037.55372645     A.U. after   14 cycles
 SCF Done:  E(RB3LYP) =  -1037.55460635     A.U. after   12 cycles
 SCF Done:  E(RB3LYP) =  -1037.55503793     A.U. after   12 cycles
 SCF Done:  E(RB3LYP) =  -1037.55522622     A.U. after   12 cycles
 SCF Done:  E(RB3LYP) =  -1037.55528193     A.U. after   11 cycles
 SCF Done:  E(RB3LYP) =  -1037.55532036     A.U. after   11 cycles
 SCF Done:  E(RB3LYP) =  -1037.55533614     A.U. after   10 cycles
 SCF Done:  E(RB3LYP) =  -1037.55534221     A.U. after    8 cycles
 SCF Done:  E(RB3LYP) =  -1037.55534237     A.U. after    8 cycles
 SCF Done:  E(RB3LYP) =  -1037.55534248     A.U. after    8 cycles
 SCF Done:  E(RB3LYP) =  -1037.55534255     A.U. after    8 cycles
 SCF Done:  E(RB3LYP) =  -1037.55534260     A.U. after    8 cycles
 SCF Done:  E(RB3LYP) =  -1037.55534263     A.U. after    8 cycles
 Optimization completed.
    -- Stationary point found.
 Normal termination of Gaussian 16 at Thu Dec 10 14:47:08 2020.

 --------------------------------------------------------------------
 #N Geom=AllCheck Guess=TCheck SCRF=Check GenChk RB3LYP/6-31G(d) Freq
 --------------------------------------------------------------------

 Structure from the checkpoint file:  "JID_5111.chk"
 ------------------------------
 CID_50925636_JID_5111_neutraal
 ------------------------------
 Charge =  0 Multiplicity = 1

 SCF Done:  E(RB3LYP) =  -1037.55534263     A.U. after    1 cycles

  Exact polarizability: 252.462   0.665 140.811   1.319  -1.762  63.376
 Approx polarizability: 354.119 -11.734 280.570   9.197  -5.845 101.502

                      1                      2                      3
                      A                      A                      A
 Frequencies --     22.3780                53.4211                95.1854
 Red. masses --      7.3596                 5.3161                 5.4995
 Frc consts  --      0.0022                 0.0089                 0.0294
 IR Inten    --      2.7603                 2.5058                 5.9612

                      4                      5                      6
                      A                      A                      A
 Frequencies --    114.3443               140.8940               199.4119
 Red. masses --      4.4694                 3.9143                 2.0669
 Frc consts  --      0.0344                 0.0458                 0.0484
 IR Inten    --      1.9936                 6.6016                21.5609

                      7                      8                      9
                      A                      A                      A
 Frequencies --    222.3719               246.9967               267.8399
 Red. masses --      1.6175                 4.6941                 6.3308
 Frc consts  --      0.0471                 0.1687                 0.2676
 IR Inten    --     16.4209                 6.8238                 5.0058

                     10                     11                     12
                      A                      A                      A
 Frequencies --    291.8515               299.8819               308.7405
 Red. masses --      1.4345                 3.9390                 2.6250
 Frc consts  --      0.0720                 0.2087                 0.1474
 IR Inten    --     29.0279                15.4311                10.9621

                     13                     14                     15
                      A                      A                      A
 Frequencies --    357.3845               398.9260               433.1897
 Red. masses --      4.2120                 4.8225                 4.2403
 Frc consts  --      0.3170                 0.4522                 0.4688
 IR Inten    --     22.2891                18.3333                 7.2297

                     16                     17                     18
                      A                      A                      A
 Frequencies --    469.4867               475.2631               509.0388
 Red. masses --      2.1879                 3.2269                 1.6236
 Frc consts  --      0.2841                 0.4294                 0.2479
 IR Inten    --     21.2510                18.6547                14.3360

                     19                     20                     21
                      A                      A                      A
 Frequencies --    549.7950               576.4033               590.2706
 Red. masses --      3.4615                 5.2580                 7.4657
 Frc consts  --      0.6165                 1.0293                 1.5326
 IR Inten    --     78.6043                58.0744                41.3846

                     22                     23                     24
                      A                      A                      A
 Frequencies --    595.6139               650.1654               663.6068
 Red. masses --      6.6397                 3.8826                 5.3335
 Frc consts  --      1.3878                 0.9670                 1.3838
 IR Inten    --      5.8452                63.4574                16.1651

                     25                     26                     27
                      A                      A                      A
 Frequencies --    670.7562               678.3331               734.2248
 Red. masses --      3.1004                 3.4711                 3.1615
 Frc consts  --      0.8218                 0.9410                 1.0042
 IR Inten    --     95.1294               144.8823                35.4917

                     28                     29                     30
                      A                      A                      A
 Frequencies --    774.3962               784.2671               797.5503
 Red. masses --      4.6165                 5.0277                 1.5105
 Frc consts  --      1.6312                 1.8220                 0.5661
 IR Inten    --      5.9484                70.6990               226.2331

                     31                     32                     33
                      A                      A                      A
 Frequencies --    847.0373               851.0912               904.6593
 Red. masses --      1.6650                 1.5014                 5.1318
 Frc consts  --      0.7038                 0.6408                 2.4745
 IR Inten    --     32.3669                52.2432                 9.8752

                     34                     35                     36
                      A                      A                      A
 Frequencies --    921.5136               969.2213              1011.8924
 Red. masses --      4.4973                 1.2711                 1.5198
 Frc consts  --      2.2501                 0.7035                 0.9169
 IR Inten    --     34.2501                 3.0002                49.6512

                     37                     38                     39
                      A                      A                      A
 Frequencies --   1031.6349              1075.1830              1117.7901
 Red. masses --      2.6235                 2.4896                 1.9160
 Frc consts  --      1.6451                 1.6957                 1.4105
 IR Inten    --     50.4739                41.2914                 7.7559

                     40                     41                     42
                      A                      A                      A
 Frequencies --   1173.2925              1185.2509              1200.4639
 Red. masses --      3.8795                 1.2327                 1.4426
 Frc consts  --      3.1466                 1.0203                 1.2249
 IR Inten    --      9.4502                 5.0250                23.0319

                     43                     44                     45
                      A                      A                      A
 Frequencies --   1229.8075              1252.9143              1302.7376
 Red. masses --      2.2335                 2.1200                 1.6643
 Frc consts  --      1.9902                 1.9608                 1.6642
 IR Inten    --     39.4513                23.9577                 2.8031

                     46                     47                     48
                      A                      A                      A
 Frequencies --   1331.8833              1348.3823              1359.6126
 Red. masses --      1.3088                 2.7769                 3.9190
 Frc consts  --      1.3679                 2.9746                 4.2683
 IR Inten    --      8.7978                98.8565                14.9692

                     49                     50                     51
                      A                      A                      A
 Frequencies --   1373.8062              1469.7756              1514.8891
 Red. masses --      4.6599                 4.0816                 1.2232
 Frc consts  --      5.1817                 5.1949                 1.6539
 IR Inten    --     21.8711                19.1266                 7.8021

                     52                     53                     54
                      A                      A                      A
 Frequencies --   1534.3160              1550.9392              1567.0343
 Red. masses --      5.1273                 4.6638                 3.7538
 Frc consts  --      7.1116                 6.6097                 5.4309
 IR Inten    --     75.0864               290.3527                 7.6180

                     55                     56                     57
                      A                      A                      A
 Frequencies --   1624.0506              1664.8851              1670.8269
 Red. masses --      5.6190                 3.0670                 1.2688
 Frc consts  --      8.7319                 5.0089                 2.0869
 IR Inten    --      8.6284                30.8177               169.1351

                     58                     59                     60
                      A                      A                      A
 Frequencies --   1682.4871              1702.4336              3170.9909
 Red. masses --      1.1102                 1.3352                 1.0894
 Frc consts  --      1.8516                 2.2800                 6.4539
 IR Inten    --     44.2194               100.4310                12.8416

                     61                     62                     63
                      A                      A                      A
 Frequencies --   3208.7082              3242.2407              3410.8884
 Red. masses --      1.0898                 1.0929                 1.0673
 Frc consts  --      6.6110                 6.7690                 7.3159
 IR Inten    --      8.5016                 1.5154                 4.5546

                     64                     65                     66
                      A                      A                      A
 Frequencies --   3424.6789              3450.2158              3513.8510
 Red. masses --      1.0571                 1.0573                 1.0918
 Frc consts  --      7.3050                 7.4154                 7.9425
 IR Inten    --      5.8783               118.8580                 1.0088

                     67                     68                     69
                      A                      A                      A
 Frequencies --   3549.1368              3613.8873              3656.8040
 Red. masses --      1.0473                 1.0892                 1.0991
 Frc consts  --      7.7725                 8.3812                 8.6591
 IR Inten    --     56.2185                22.8082                27.9017

 - Thermochemistry -
 -------------------
 Temperature   298.150 Kelvin.  Pressure   1.00000 Atm.
 Atom     1 has atomic number  6 and mass  12.00000

 Molecular mass:   222.06877 amu.
 Principal axes and moments of inertia in atomic units:
                           1         2         3
     Eigenvalues --  1021.539637468.186598356.31673
           X            0.99999   0.00039  -0.00408
           Y           -0.00039   1.00000   0.00132
           Z            0.00408  -0.00132   0.99999
 This molecule is an asymmetric top.
 Rotational symmetry number  1.
 Warning -- assumption of classical behavior for rotation
           may cause significant error
 Rotational temperatures (Kelvin)      0.08479     0.01160     0.01037
 Rotational constants (GHZ):           1.76669     0.24166     0.21597
 Zero-point vibrational energy     506518.0 (Joules/Mol)
                                  121.06072 (Kcal/Mol)
 Warning -- explicit consideration of  22 degrees of freedom as
           vibrations may cause significant error
 Vibrational temperatures:     32.20    76.86   136.95   164.52   202.72
          (Kelvin)            286.91   319.94   355.37   385.36   419.91
                              431.46   444.21   514.20   573.97   623.26
                              675.49   683.80   732.39   791.03   829.32
                              849.27   856.96   935.44   954.78   965.07
                              975.97  1056.39  1114.18  1128.39  1147.50
                             1218.70  1224.53  1301.60  1325.85  1394.49
                             1455.89  1484.29  1546.95  1608.25  1688.11
                             1705.31  1727.20  1769.42  1802.66  1874.35
                             1916.28  1940.02  1956.18  1976.60  2114.68
                             2179.59  2207.54  2231.46  2254.61  2336.65
                             2395.40  2403.95  2420.72  2449.42  4562.35
                             4616.62  4664.86  4907.51  4927.35  4964.09
                             5055.65  5106.42  5199.58  5261.33

 Zero-point correction=                           0.192923 (Hartree/Particle)
 Thermal correction to Energy=                    0.206643
 Thermal correction to Enthalpy=                  0.207588
 Thermal correction to Gibbs Free Energy=         0.151673
 Sum of electronic and zero-point Energies=          -1037.362420
 Sum of electronic and thermal Energies=             -1037.348699
 Sum of electronic and thermal Enthalpies=           -1037.347755
 Sum of electronic and thermal Free Energies=        -1037.403670

                     E (Thermal)             CV                S
                      KCal/Mol        Cal/Mol-Kelvin    Cal/Mol-Kelvin
 Total                  129.671             52.861            117.683
 Electronic               0.000              0.000              0.000
 Translational            0.889              2.981             42.096
 Rotational               0.889              2.981             32.522
 Vibrational            127.893             46.899             43.065
 Vibration     1          0.593              1.985              6.411
 Vibration     2          0.596              1.976              4.687
 Vibration     3          0.603              1.953              3.551
 Vibration     4          0.607              1.938              3.194
 Vibration     5          0.615              1.912              2.792
 Vibration     6          0.638              1.841              2.139
 Vibration     7          0.648              1.807              1.940
 Vibration     8          0.661              1.768              1.752
 Vibration     9          0.673              1.732              1.610
 Vibration    10          0.687              1.689              1.463
 Vibration    11          0.692              1.674              1.418
 Vibration    12          0.698              1.657              1.369
 Vibration    13          0.733              1.560              1.133
 Vibration    14          0.765              1.472              0.967
 Vibration    15          0.794              1.398              0.848
 Vibration    16          0.827              1.318              0.739
 Vibration    17          0.832              1.305              0.723
 Vibration    18          0.864              1.230              0.636
 Vibration    19          0.905              1.140              0.545
 Vibration    20          0.933              1.082              0.492
 Vibration    21          0.948              1.053              0.467
 Vibration    22          0.953              1.041              0.457

 Optimization completed.
    -- Stationary point found.
 Normal termination of Gaussian 16 at Thu Dec 10 14:53:06 2020.

 ----------------------------------------------------------------------
 # B3LYP/6-311++G(d,p) empiricaldispersion=gd3bj scf=xqc pop=npa geom=c
 heck
 ----------------------------------------------------------------------

 --------------------------------------
 CID_50925636_JID_5111_Energie_neutraal
 --------------------------------------
 Structure from the checkpoint file:  "JID_5111.chk"
 Charge =  0 Multiplicity = 1

 SCF Done:  E(RB3LYP) =  -1037.77363655     A.U. after   17 cycles
 Normal termination of Gaussian 16 at Thu Dec 10 14:55:41 2020.

 ----------------------------------------------------------------------
 # B3LYP/6-311++G(d,p) empiricaldispersion=gd3bj scf=xqc pop=npa geom=c
 heck
 ----------------------------------------------------------------------

 ------------------------------------
 CID_50925636_JID_5111_Energie_kation
 ------------------------------------
 Structure from the checkpoint file:  "JID_5111.chk"
 Charge =  1 Multiplicity = 2

 SCF Done:  E(UB3LYP) =  -1037.50052479     A.U. after   30 cycles
 Normal termination of Gaussian 16 at Thu Dec 10 15:01:46 2020.
 Gaussian 16:  ES64L-G16RevA.03 25-Dec-2016

 ----------------------------------------------------------------------
 # B3LYP/6-311++G(d,p) empiricaldispersion=gd3bj scf=xqc pop=npa geom=c
 heck
 ----------------------------------------------------------------------

 -----------------------------------
 CID_50925636_JID_5111_Energie_anion
 -----------------------------------
 Structure from the checkpoint file:  "JID_5111.chk"
 Charge = -1 Multiplicity = 2

                         Standard orientation:
 ---------------------------------------------------------------------
 Center     Atomic      Atomic             Coordinates (Angstroms)
 Number     Number       Type             X           Y           Z
 ---------------------------------------------------------------------
      1          6           0       -0.668921   -1.618254   -0.126003
      2          6           0       -2.057418   -1.630682   -0.200246
      3          6           0       -2.793557   -0.448090   -0.224938
      4          6           0       -2.127948    0.798538   -0.153977
      5          6           0       -0.729998    0.807295   -0.076595
      6          6           0        0.003070   -0.386201   -0.068827
      7          6           0        1.465010   -0.378408    0.009983
      8          7           0        2.202334   -1.445455    0.113680
      9          7           0        3.546543   -1.209568    0.141205
     10          6           0        3.833547    0.063787    0.073134
     11         16           0        2.431277    1.117737   -0.042895
     12          7           0        5.115326    0.553495    0.169040
     13          7           0       -2.876820    1.970693   -0.221433
     14          7           0       -4.227173   -0.531112   -0.354028
     15          7           0       -4.857016    0.184749    0.794108
     16          1           0       -0.094184   -2.536077   -0.114261
     17          1           0       -2.604845   -2.566431   -0.257237
     18          1           0       -0.217058    1.764669   -0.017432
     19          1           0        5.324895    1.375665   -0.382339
     20          1           0        5.810323   -0.179085    0.073422
     21          1           0       -2.366097    2.806422    0.036337
     22          1           0       -3.766450    1.885037    0.271025
     23          1           0       -4.479898    0.064845   -1.147514
     24          1           0       -5.845105   -0.068967    0.722522
     25          1           0       -4.527070   -0.337388    1.608606
 ---------------------------------------------------------------------

 SCF Done:  E(UB3LYP) =  -1037.78172501     A.U. after   30 cycles

 The electronic state is 2-A.
 Alpha  occ. eigenvalues --  -88.74669 -14.22484 -14.22282 -14.22055 -14.19811
 Alpha  occ. eigenvalues --  -14.19703 -14.18368 -10.13096 -10.08701 -10.08605
 Alpha  occ. eigenvalues --  -10.06111 -10.04886 -10.04231 -10.03799 -10.03056
 Alpha  occ. eigenvalues --   -7.83352  -5.79629  -5.79324  -5.78913  -0.89129
 Alpha  occ. eigenvalues --   -0.85603  -0.81480  -0.79674  -0.72367  -0.69181
 Alpha  occ. eigenvalues --   -0.66183  -0.65571  -0.60785  -0.58639  -0.50334
 Alpha  occ. eigenvalues --   -0.48877  -0.47027  -0.44923  -0.41712  -0.40378
 Alpha  occ. eigenvalues --   -0.40073  -0.38967  -0.35520  -0.34391  -0.33478
 Alpha  occ. eigenvalues --   -0.31512  -0.31139  -0.30368  -0.29512  -0.28076
 Alpha  occ. eigenvalues --   -0.26149  -0.25279  -0.24116  -0.22971  -0.22230
 Alpha  occ. eigenvalues --   -0.19326  -0.16968  -0.16339  -0.14033  -0.12629
 Alpha  occ. eigenvalues --   -0.11148  -0.10155  -0.08441   0.03786
 Alpha virt. eigenvalues --    0.06184   0.06751   0.08821   0.09750   0.09966
 Alpha virt. eigenvalues --    0.10365   0.11628   0.12222   0.12383   0.12695
 Alpha virt. eigenvalues --    0.13055   0.13293   0.14852   0.15159   0.15711

  Beta  occ. eigenvalues --  -88.74646 -14.22436 -14.22201 -14.22063 -14.19819
  Beta  occ. eigenvalues --  -14.19801 -14.18046 -10.12851 -10.08729 -10.08436
  Beta  occ. eigenvalues --  -10.05922 -10.04742 -10.04231 -10.03685 -10.03002
  Beta  occ. eigenvalues --   -7.83332  -5.79624  -5.79319  -5.78828  -0.88856
  Beta  occ. eigenvalues --   -0.85466  -0.81273  -0.79636  -0.72127  -0.68928
  Beta  occ. eigenvalues --   -0.66046  -0.65242  -0.60577  -0.58419  -0.49975
  Beta  occ. eigenvalues --   -0.48733  -0.46818  -0.44758  -0.41614  -0.40230
  Beta  occ. eigenvalues --   -0.39947  -0.38799  -0.35338  -0.34289  -0.33344
  Beta  occ. eigenvalues --   -0.31278  -0.30508  -0.30246  -0.29371  -0.27854
  Beta  occ. eigenvalues --   -0.25708  -0.25210  -0.23901  -0.22382  -0.21991
  Beta  occ. eigenvalues --   -0.18925  -0.16902  -0.15784  -0.13204  -0.12325
  Beta  occ. eigenvalues --   -0.11051  -0.09493  -0.07551
  Beta virt. eigenvalues --    0.06610   0.06800   0.08577   0.09040   0.09813
  Beta virt. eigenvalues --    0.10046   0.10344   0.11678   0.12397   0.12400
  Beta virt. eigenvalues --    0.12771   0.13391   0.13912   0.14817   0.15134

 Mulliken charges and spin densities:
               1          2
     1  C   -0.161830   0.081436
     2  C   -0.468151  -0.004732
     3  C   -0.262959  -0.233501
     4  C   -0.034863   0.098708
     5  C   -0.946018   0.145879
     6  C    1.162378   0.000871
     7  C    0.000814   0.017418
     8  N   -0.152614   0.161899
     9  N    0.020078  -0.076256
    10  C   -0.058528   0.027491
    11  S   -0.285344   0.085336
    12  N   -0.271834   0.017700
    13  N   -0.353088  -0.001529
    14  N   -0.141567   0.051267
    15  N   -0.388549  -0.132306
    16  H    0.176585  -0.004682
    17  H    0.135805   0.012803
    18  H    0.027433  -0.008949
    19  H    0.025550   0.214393
    20  H    0.214384   0.031340
    21  H    0.209948   0.015832
    22  H    0.277065   0.014199
    23  H    0.183515   0.103992
    24  H   -0.040928   0.283929
    25  H    0.132719   0.097461
 Sum of Mulliken charges =  -1.00000   1.00000

 Dipole moment (field-independent basis, Debye):
    X=              0.0957    Y=              3.3125    Z=              0.0399  Tot=              3.3142
 Quadrupole moment (field-independent basis, Debye-Ang):
   XX=           -158.9048   YY=           -112.6042   ZZ=           -107.9251
   XY=              4.6354   XZ=             -3.8301   YZ=              0.7884

 Summary of Natural Population Analysis:

                                       Natural Population
                Natural  -----------------------------------------------
    Atom  No    Charge         Core      Valence    Rydberg      Total
 -----------------------------------------------------------------------
      C    1   -0.09282      0.99954     2.08489    0.00839     3.09282
      C    2   -0.12055      0.99958     2.10116    0.01982     3.12055
      C    3    0.12751      0.99943     1.86255    0.01052     2.87249
      C    4    0.05284      0.99951     1.93106    0.01659     2.94716
      C    5   -0.09874      0.99951     2.09219    0.00704     3.09874
      C    6   -0.02015      0.99948     2.00952    0.01115     3.02015
      C    7    0.05275      0.99955     1.92779    0.01991     2.94725
      N    8   -0.10388      0.99961     2.58836    0.01591     3.60388
      N    9   -0.22316      0.99965     2.70153    0.02198     3.72316
      C   10    0.20057      0.99966     1.78077    0.01900     2.79943
      S   11    0.12559      4.99947     2.85461    0.02034     7.87441
      N   12   -0.42006      0.99973     2.90081    0.01952     3.92006
      N   13   -0.41441      0.99971     2.90422    0.01047     3.91441
      N   14   -0.27472      0.99976     2.75425    0.02071     3.77472
      N   15   -0.34608      0.99978     2.83307    0.01323     3.84608
      H   16    0.10743      0.00000     0.39115    0.00142     0.39257
      H   17    0.09879      0.00000     0.39980    0.00140     0.40121
      H   18    0.09248      0.00000     0.40609    0.00143     0.40752
      H   19    0.18800      0.00000     0.30945    0.00256     0.31200
      H   20    0.18916      0.00000     0.30800    0.00284     0.31084
      H   21    0.17770      0.00000     0.32069    0.00161     0.32230
      H   22    0.19989      0.00000     0.29730    0.00281     0.30011
      H   23    0.16866      0.00000     0.32765    0.00369     0.33134
      H   24    0.17255      0.00000     0.32386    0.00359     0.32745
      H   25    0.17361      0.00000     0.32446    0.00194     0.32639
 =======================================================================
   * Total *    0.01296     18.99396    38.73523    0.25784    57.98704

 Normal termination of Gaussian 16 at Thu Dec 10 15:08:21 2020.
