 Gaussian 16, Revision A.03,

 -----------------------------------------------------------
 # opt freq B3LYP/6-31G(d) empiricaldispersion=gd3bj scf=xqc
 -----------------------------------------------------------

 ------------------------------
 CID_124014989_JID_453_neutraal
 ------------------------------
 Symbolic Z-matrix:
 Charge =  0 Multiplicity = 1

 SCF Done:  E(RB3LYP) =  -425.208427358     A.U. after   13 cycles
 SCF Done:  E(RB3LYP) =  -425.211024884     A.U. after   11 cycles
 SCF Done:  E(RB3LYP) =  -425.211191590     A.U. after   11 cycles
 SCF Done:  E(RB3LYP) =  -425.211565418     A.U. after   10 cycles
 SCF Done:  E(RB3LYP) =  -425.211506139     A.U. after   11 cycles
 SCF Done:  E(RB3LYP) =  -425.211730787     A.U. after   11 cycles
 SCF Done:  E(RB3LYP) =  -425.211839313     A.U. after   10 cycles
 SCF Done:  E(RB3LYP) =  -425.211768079     A.U. after   11 cycles
 SCF Done:  E(RB3LYP) =  -425.211888034     A.U. after   11 cycles
 SCF Done:  E(RB3LYP) =  -425.211904480     A.U. after   10 cycles
 SCF Done:  E(RB3LYP) =  -425.211926245     A.U. after    9 cycles
 SCF Done:  E(RB3LYP) =  -425.211931902     A.U. after    9 cycles
 SCF Done:  E(RB3LYP) =  -425.211934219     A.U. after    9 cycles
 SCF Done:  E(RB3LYP) =  -425.211934462     A.U. after    7 cycles
 SCF Done:  E(RB3LYP) =  -425.211934458     A.U. after    6 cycles
 Optimization completed.
    -- Stationary point found.

 1\1\GINC-NODE209\FOpt\RB3LYP\6-31G(d)\C8H18N2\VSC10255\08-Dec-2020\0\\
 # opt freq B3LYP/6-31G(d) empiricaldispersion=gd3bj scf=xqc\\CID_12401
 4989_JID_453_neutraal\\0,1\C,0.8349714832,0.0991472411,0.1229573592\C,
 0.7795704568,-0.4342255791,1.5574741453\C,1.5580096396,0.4399212082,2.
 5643965033\C,1.1279460447,1.9099201811,2.5132851018\N,0.0234840629,2.4
 796271292,2.7881132325\C,-1.1536561717,1.7409397944,3.2266660243\C,-2.
 2491177452,1.8489591419,2.162491713\C,1.5596219334,-0.1401598478,4.003
 7052004\C,2.3950965875,-1.4185940491,4.0922068826\N,2.1494516202,0.851

 Normal termination of Gaussian 16 at Tue Dec  8 10:42:34 2020.

 --------------------------------------------------------------------
 #N Geom=AllCheck Guess=TCheck SCRF=Check GenChk RB3LYP/6-31G(d) Freq
 --------------------------------------------------------------------

 Structure from the checkpoint file:  "JID_453.chk"
 ------------------------------
 CID_124014989_JID_453_neutraal
 ------------------------------
 Charge =  0 Multiplicity = 1

 SCF Done:  E(RB3LYP) =  -425.211934458     A.U. after    1 cycles

  Exact polarizability: 110.674   4.852  97.170   2.803   2.122  86.981
 Approx polarizability: 143.161  12.924 132.371   5.923   3.592 131.320

                      1                      2                      3
                      A                      A                      A
 Frequencies --     36.4999                60.3689                86.4866
 Red. masses --      2.9926                 2.6524                 2.2987
 Frc consts  --      0.0023                 0.0057                 0.0101
 IR Inten    --      0.4412                 0.3968                 0.1143

                      4                      5                      6
                      A                      A                      A
 Frequencies --    103.1377               164.5365               189.6663
 Red. masses --      2.5432                 3.6574                 2.2638
 Frc consts  --      0.0159                 0.0583                 0.0480
 IR Inten    --      0.0605                 1.4976                 1.8361

                      7                      8                      9
                      A                      A                      A
 Frequencies --    204.7044               228.6927               240.3982
 Red. masses --      1.5727                 1.2479                 1.0968
 Frc consts  --      0.0388                 0.0385                 0.0373
 IR Inten    --      0.0464                 0.0312                 2.7151

                     10                     11                     12
                      A                      A                      A
 Frequencies --    271.8733               314.1825               315.3782
 Red. masses --      1.5589                 1.3396                 2.0485
 Frc consts  --      0.0679                 0.0779                 0.1200
 IR Inten    --      0.6481                43.5819                12.7039

                     13                     14                     15
                      A                      A                      A
 Frequencies --    351.5019               373.2015               410.6766
 Red. masses --      1.9253                 2.7118                 2.9567
 Frc consts  --      0.1402                 0.2225                 0.2938
 IR Inten    --      5.5577                 2.0718                 4.9254

                     16                     17                     18
                      A                      A                      A
 Frequencies --    448.6781               491.6282               583.9501
 Red. masses --      2.7553                 2.9077                 2.8384
 Frc consts  --      0.3268                 0.4141                 0.5703
 IR Inten    --      5.6909                13.0874                 1.9381

                     19                     20                     21
                      A                      A                      A
 Frequencies --    723.8021               764.5645               822.0493
 Red. masses --      2.0088                 2.3296                 1.2090
 Frc consts  --      0.6201                 0.8023                 0.4814
 IR Inten    --      2.9922                14.4994                 5.5139

                     22                     23                     24
                      A                      A                      A
 Frequencies --    851.2328               865.1362               884.1970
 Red. masses --      1.4537                 2.1230                 1.7245
 Frc consts  --      0.6206                 0.9362                 0.7944
 IR Inten    --      9.6756                12.9806                53.7584

                     25                     26                     27
                      A                      A                      A
 Frequencies --    896.2536               944.3278               973.0918
 Red. masses --      1.5451                 1.7498                 1.6382
 Frc consts  --      0.7313                 0.9193                 0.9139
 IR Inten    --     42.3554                14.2006                 5.6447

                     28                     29                     30
                      A                      A                      A
 Frequencies --   1002.8148              1029.9863              1039.3708
 Red. masses --      1.6181                 2.3116                 1.8540
 Frc consts  --      0.9587                 1.4448                 1.1801
 IR Inten    --      1.3201                 0.4649                 3.5669

                     31                     32                     33
                      A                      A                      A
 Frequencies --   1054.4289              1095.4547              1131.0377
 Red. masses --      2.2494                 2.1850                 1.8705
 Frc consts  --      1.4735                 1.5449                 1.4098
 IR Inten    --      7.5786                 1.4729                 4.3164

                     34                     35                     36
                      A                      A                      A
 Frequencies --   1138.6384              1167.5125              1173.1918
 Red. masses --      1.7234                 2.0827                 2.3249
 Frc consts  --      1.3165                 1.6727                 1.8854
 IR Inten    --      4.9386                 7.2549                10.9564

                     37                     38                     39
                      A                      A                      A
 Frequencies --   1194.8474              1279.8543              1297.6754
 Red. masses --      1.8388                 1.2765                 1.2590
 Frc consts  --      1.5467                 1.2320                 1.2491
 IR Inten    --      7.5089                 0.5003                 5.8376

                     40                     41                     42
                      A                      A                      A
 Frequencies --   1309.4194              1328.0795              1377.5031
 Red. masses --      1.1866                 1.1804                 1.3115
 Frc consts  --      1.1987                 1.2267                 1.4662
 IR Inten    --      1.7264                 4.1465                 6.5953

                     43                     44                     45
                      A                      A                      A
 Frequencies --   1386.8298              1392.2679              1395.5954
 Red. masses --      1.3457                 1.3965                 1.3300
 Frc consts  --      1.5250                 1.5949                 1.5262
 IR Inten    --      5.7952                12.4900                 6.9119

                     46                     47                     48
                      A                      A                      A
 Frequencies --   1427.6741              1429.9780              1440.2684
 Red. masses --      1.3403                 1.2431                 1.3384
 Frc consts  --      1.6096                 1.4977                 1.6358
 IR Inten    --      6.3606                 3.6325                 5.1748

                     49                     50                     51
                      A                      A                      A
 Frequencies --   1443.8087              1453.7587              1514.5748
 Red. masses --      1.2721                 1.1866                 1.0583
 Frc consts  --      1.5624                 1.4776                 1.4303
 IR Inten    --      6.5238                 8.1097                 1.8085

                     52                     53                     54
                      A                      A                      A
 Frequencies --   1519.9647              1523.4569              1528.9831
 Red. masses --      1.0526                 1.0566                 1.0414
 Frc consts  --      1.4328                 1.4449                 1.4344
 IR Inten    --      3.4023                 1.8503                 1.5213

                     55                     56                     57
                      A                      A                      A
 Frequencies --   1530.6846              1532.3631              1541.3412
 Red. masses --      1.0453                 1.0417                 1.0640
 Frc consts  --      1.4429                 1.4411                 1.4893
 IR Inten    --      4.7048                 5.0357                 2.5992

                     58                     59                     60
                      A                      A                      A
 Frequencies --   1549.0433              1696.2828              1753.9778
 Red. masses --      1.0931                 1.1011                 8.4396
 Frc consts  --      1.5454                 1.8667                15.2975
 IR Inten    --      3.6337                41.8816                47.8803

                     61                     62                     63
                      A                      A                      A
 Frequencies --   2951.0064              3032.5852              3037.8081
 Red. masses --      1.0809                 1.0830                 1.0573
 Frc consts  --      5.5460                 5.8683                 5.7488
 IR Inten    --     59.0114                13.6859                30.6463

                     64                     65                     66
                      A                      A                      A
 Frequencies --   3048.2982              3049.3817              3055.3453
 Red. masses --      1.0366                 1.0394                 1.0353
 Frc consts  --      5.6753                 5.6945                 5.6944
 IR Inten    --     25.9044                18.3612                24.8068

                     67                     68                     69
                      A                      A                      A
 Frequencies --   3057.9282              3071.9663              3088.2977
 Red. masses --      1.0617                 1.1010                 1.0907
 Frc consts  --      5.8495                 6.1218                 6.1288
 IR Inten    --     28.5268                48.2381                25.4349

                     70                     71                     72
                      A                      A                      A
 Frequencies --   3092.6487              3112.0038              3115.4913
 Red. masses --      1.0975                 1.0995                 1.1015
 Frc consts  --      6.1846                 6.2737                 6.2990
 IR Inten    --     27.8601                25.0344                60.1494

                     73                     74                     75
                      A                      A                      A
 Frequencies --   3122.7020              3125.0100              3137.1209
 Red. masses --      1.1028                 1.1027                 1.1029
 Frc consts  --      6.3360                 6.3448                 6.3954
 IR Inten    --     75.2311                11.0257                25.8904

                     76                     77                     78
                      A                      A                      A
 Frequencies --   3138.9104              3468.9076              3553.7408
 Red. masses --      1.1016                 1.0498                 1.0924
 Frc consts  --      6.3950                 7.4430                 8.1281
 IR Inten    --     31.2209                 2.9665                 0.3558

 - Thermochemistry -
 -------------------
 Temperature   298.150 Kelvin.  Pressure   1.00000 Atm.
 Atom     1 has atomic number  6 and mass  12.00000

 Molecular mass:   142.14700 amu.
 Principal axes and moments of inertia in atomic units:
                           1         2         3
     Eigenvalues --  1168.485781939.765422513.14574
           X            0.99997  -0.00612   0.00461
           Y            0.00600   0.99966   0.02533
           Z           -0.00477  -0.02530   0.99967
 This molecule is an asymmetric top.
 Rotational symmetry number  1.
 Warning -- assumption of classical behavior for rotation
           may cause significant error
 Rotational temperatures (Kelvin)      0.07412     0.04465     0.03446
 Rotational constants (GHZ):           1.54451     0.93039     0.71812
 Zero-point vibrational energy     679120.2 (Joules/Mol)
                                  162.31363 (Kcal/Mol)
 Warning -- explicit consideration of  18 degrees of freedom as
           vibrations may cause significant error
 Vibrational temperatures:     52.52    86.86   124.43   148.39   236.73
          (Kelvin)            272.89   294.52   329.04   345.88   391.16
                              452.04   453.76   505.73   536.95   590.87
                              645.55   707.34   840.17  1041.39  1100.04
                             1182.75  1224.73  1244.74  1272.16  1289.51
                             1358.68  1400.06  1442.83  1481.92  1495.42
                             1517.09  1576.11  1627.31  1638.25  1679.79
                             1687.96  1719.12  1841.42  1867.07  1883.96
                             1910.81  1981.92  1995.34  2003.16  2007.95
                             2054.10  2057.42  2072.22  2077.32  2091.63
                             2179.14  2186.89  2191.91  2199.87  2202.31
                             2204.73  2217.65  2228.73  2440.57  2523.58
                             4245.84  4363.21  4370.73  4385.82  4387.38
                             4395.96  4399.68  4419.87  4443.37  4449.63
                             4477.48  4482.50  4492.87  4496.19  4513.62
                             4516.19  4990.98  5113.04

 Zero-point correction=                           0.258663 (Hartree/Particle)
 Thermal correction to Energy=                    0.271338
 Thermal correction to Enthalpy=                  0.272282
 Thermal correction to Gibbs Free Energy=         0.219867
 Sum of electronic and zero-point Energies=           -424.953271
 Sum of electronic and thermal Energies=              -424.940596
 Sum of electronic and thermal Enthalpies=            -424.939652
 Sum of electronic and thermal Free Energies=         -424.992068

                     E (Thermal)             CV                S
                      KCal/Mol        Cal/Mol-Kelvin    Cal/Mol-Kelvin
 Total                  170.267             46.260            110.318
 Electronic               0.000              0.000              0.000
 Translational            0.889              2.981             40.766
 Rotational               0.889              2.981             30.122
 Vibrational            168.490             40.299             39.429
 Vibration     1          0.594              1.982              5.441
 Vibration     2          0.597              1.973              4.445
 Vibration     3          0.601              1.959              3.738
 Vibration     4          0.605              1.947              3.394
 Vibration     5          0.623              1.886              2.497
 Vibration     6          0.633              1.854              2.231
 Vibration     7          0.640              1.833              2.090
 Vibration     8          0.651              1.797              1.889
 Vibration     9          0.657              1.779              1.800
 Vibration    10          0.675              1.725              1.584
 Vibration    11          0.702              1.647              1.340
 Vibration    12          0.703              1.644              1.334
 Vibration    13          0.728              1.572              1.159
 Vibration    14          0.745              1.527              1.067
 Vibration    15          0.775              1.447              0.924
 Vibration    16          0.808              1.364              0.800
 Vibration    17          0.847              1.269              0.679
 Vibration    18          0.941              1.066              0.478

 Optimization completed.
    -- Stationary point found.

 1\1\GINC-NODE209\Freq\RB3LYP\6-31G(d)\C8H18N2\VSC10255\08-Dec-2020\0\\
 #N Geom=AllCheck Guess=TCheck SCRF=Check GenChk RB3LYP/6-31G(d) Freq\\
 CID_124014989_JID_453_neutraal\\0,1\C,0.8349714832,0.0991472411,0.1229
 573592\C,0.7795704568,-0.4342255791,1.5574741453\C,1.5580096396,0.4399
 212082,2.5643965033\C,1.1279460447,1.9099201811,2.5132851018\N,0.02348
 40629,2.4796271292,2.7881132325\C,-1.1536561717,1.7409397944,3.2266660
 243\C,-2.2491177452,1.8489591419,2.162491713\C,1.5596219334,-0.1401598
 478,4.0037052004\C,2.3950965875,-1.4185940491,4.0922068826\N,2.1494516

 Normal termination of Gaussian 16 at Tue Dec  8 10:50:36 2020.

 ----------------------------------------------------------------------
 # B3LYP/6-311++G(d,p) empiricaldispersion=gd3bj scf=xqc pop=npa geom=c
 heck
 ----------------------------------------------------------------------

 --------------------------------------
 CID_124014989_JID_453_Energie_neutraal
 --------------------------------------
 Structure from the checkpoint file:  "JID_453.chk"
 Charge =  0 Multiplicity = 1

 SCF Done:  E(RB3LYP) =  -425.340674960     A.U. after   13 cycles
 Normal termination of Gaussian 16 at Tue Dec  8 10:55:41 2020.

 ----------------------------------------------------------------------
 # B3LYP/6-311++G(d,p) empiricaldispersion=gd3bj scf=xqc pop=npa geom=c
 heck
 ----------------------------------------------------------------------

 ------------------------------------
 CID_124014989_JID_453_Energie_kation
 ------------------------------------
 Structure from the checkpoint file:  "JID_453.chk"
 Charge =  1 Multiplicity = 2

 SCF Done:  E(UB3LYP) =  -425.027523723     A.U. after   22 cycles
 Normal termination of Gaussian 16 at Tue Dec  8 11:02:59 2020.
 Gaussian 16:  ES64L-G16RevA.03 25-Dec-2016

 -----------------------------------
 CID_124014989_JID_453_Energie_anion
 -----------------------------------
 Structure from the checkpoint file:  "JID_453.chk"
 Charge = -1 Multiplicity = 2

                         Standard orientation:
 ---------------------------------------------------------------------
 Center     Atomic      Atomic             Coordinates (Angstroms)
 Number     Number       Type             X           Y           Z
 ---------------------------------------------------------------------
      1          6           0       -0.787151    2.592547    0.371147
      2          6           0        0.070859    1.607618   -0.428309
      3          6           0        0.675434    0.481647    0.438104
      4          6           0       -0.388900   -0.260834    1.253199
      5          7           0       -1.373573   -0.985816    0.899996
      6          6           0       -1.699887   -1.241000   -0.497161
      7          6           0       -3.048133   -0.597177   -0.831672
      8          6           0        1.601184   -0.473856   -0.360712
      9          6           0        2.892532    0.225126   -0.789769
     10          7           0        1.963219   -1.609622    0.498149
     11          1           0       -1.650420    2.093655    0.824306
     12          1           0       -1.162258    3.396435   -0.271432
     13          1           0       -0.207097    3.053647    1.179701
     14          1           0       -0.527036    1.177697   -1.240019
     15          1           0        0.889375    2.156577   -0.908208
     16          1           0        1.320730    0.958025    1.188416
     17          1           0       -0.277214   -0.143740    2.336443
     18          1           0       -0.940194   -0.904931   -1.213645
     19          1           0       -1.788897   -2.329591   -0.608273
     20          1           0       -2.979397    0.494872   -0.778151
     21          1           0       -3.368467   -0.872387   -1.842488
     22          1           0       -3.811253   -0.923221   -0.118456
     23          1           0        1.070758   -0.786491   -1.277599
     24          1           0        3.443538    0.571489    0.091301
     25          1           0        3.538371   -0.469423   -1.340991
     26          1           0        2.696246    1.078619   -1.444963
     27          1           0        2.596385   -2.227940   -0.006601
     28          1           0        1.133678   -2.159656    0.714678
 ---------------------------------------------------------------------

 SCF Done:  E(UB3LYP) =  -425.324807936     A.U. after   32 cycles

 The electronic state is 2-A.
 Alpha  occ. eigenvalues --  -14.20173 -14.18656 -10.10687 -10.09836 -10.08955
 Alpha  occ. eigenvalues --  -10.07707 -10.06902 -10.06130 -10.05965 -10.05357
 Alpha  occ. eigenvalues --   -0.81883  -0.78383  -0.69714  -0.65502  -0.63350
 Alpha  occ. eigenvalues --   -0.59250  -0.54102  -0.50713  -0.48184  -0.43150
 Alpha  occ. eigenvalues --   -0.39369  -0.38645  -0.36744  -0.36317  -0.33601
 Alpha  occ. eigenvalues --   -0.33061  -0.32452  -0.29647  -0.28638  -0.27877
 Alpha  occ. eigenvalues --   -0.27351  -0.26991  -0.25577  -0.25213  -0.24207
 Alpha  occ. eigenvalues --   -0.23837  -0.22330  -0.18919  -0.14285  -0.13838
 Alpha  occ. eigenvalues --    0.04684
 Alpha virt. eigenvalues --    0.06798   0.07027   0.08143   0.09001   0.09169
 Alpha virt. eigenvalues --    0.09556   0.10256   0.10592   0.10671   0.11892
 Alpha virt. eigenvalues --    0.12444   0.12777   0.13607   0.14072   0.14319

  Beta  occ. eigenvalues --  -14.20169 -14.18620 -10.10673 -10.09823 -10.08935
  Beta  occ. eigenvalues --  -10.07703 -10.06879 -10.06109 -10.05936 -10.05320
  Beta  occ. eigenvalues --   -0.81860  -0.78334  -0.69675  -0.65464  -0.63293
  Beta  occ. eigenvalues --   -0.59201  -0.54038  -0.50642  -0.48109  -0.43110
  Beta  occ. eigenvalues --   -0.39326  -0.38600  -0.36691  -0.36284  -0.33564
  Beta  occ. eigenvalues --   -0.33027  -0.32404  -0.29604  -0.28598  -0.27831
  Beta  occ. eigenvalues --   -0.27312  -0.26948  -0.25530  -0.25179  -0.24179
  Beta  occ. eigenvalues --   -0.23791  -0.22290  -0.18874  -0.14249  -0.13809
  Beta virt. eigenvalues --    0.06958   0.07537   0.07977   0.08575   0.09277
  Beta virt. eigenvalues --    0.09721   0.10107   0.10794   0.10934   0.11108
  Beta virt. eigenvalues --    0.12380   0.12861   0.13157   0.13905   0.14468

 Mulliken charges and spin densities:
               1          2
     1  C    1.090031  -1.709261
     2  C   -1.082810   0.832921
     3  C    1.660003  -1.086988
     4  C   -0.462266  -0.079181
     5  N   -0.103116   0.092484
     6  C   -0.160052  -0.028349
     7  C    0.487212  -1.044431
     8  C   -1.040028   0.775480
     9  C    1.079015  -1.775925
    10  N   -0.334017   0.054712
    11  H    0.115903   0.036573
    12  H   -0.427552   0.574840
    13  H   -0.013911   0.139218
    14  H   -0.141282   0.297525
    15  H   -0.079953   0.211679
    16  H    0.122752   0.057118
    17  H    0.068137   0.118597
    18  H    0.424654  -0.352988
    19  H   -0.322615   0.505274
    20  H   -0.144206   0.280261
    21  H   -0.419675   0.556408
    22  H    0.024800   0.127695
    23  H   -0.413917   0.588048
    24  H   -0.050063   0.197047
    25  H   -0.538693   0.684875
    26  H   -0.265118   0.393678
    27  H   -0.149282   0.390224
    28  H    0.076049   0.162466
 Sum of Mulliken charges =  -1.00000   1.00000

 Dipole moment (field-independent basis, Debye):
    X=             -1.2126    Y=              1.4487    Z=              3.3938  Tot=              3.8842
 Quadrupole moment (field-independent basis, Debye-Ang):
   XX=           -125.3689   YY=           -113.5326   ZZ=           -101.9222
   XY=              3.9561   XZ=              0.7121   YZ=              0.9238

 Summary of Natural Population Analysis:

                                       Natural Population
                Natural  -----------------------------------------------
    Atom  No    Charge         Core      Valence    Rydberg      Total
 -----------------------------------------------------------------------
      C    1   -0.28616      0.99966     2.28085    0.00564     3.28616
      C    2   -0.18779      0.99961     2.17966    0.00852     3.18779
      C    3   -0.14594      0.99955     2.13461    0.01178     3.14594
      C    4    0.08168      0.99960     1.90140    0.01733     2.91832
      N    5   -0.23458      0.99968     2.72255    0.01235     3.73458
      C    6   -0.10879      0.99960     2.09730    0.01189     3.10879
      C    7   -0.28452      0.99966     2.27924    0.00562     3.28452
      C    8   -0.00963      0.99959     1.99819    0.01185     3.00963
      C    9   -0.28600      0.99964     2.27973    0.00662     3.28600
      N   10   -0.42629      0.99976     2.91620    0.01033     3.92629
      H   11    0.09865      0.00000     0.40043    0.00091     0.40135
      H   12    0.10093      0.00000     0.39808    0.00099     0.39907
      H   13    0.09442      0.00000     0.40469    0.00088     0.40558
      H   14    0.09724      0.00000     0.40084    0.00191     0.40276
      H   15    0.10000      0.00000     0.39860    0.00140     0.40000
      H   16    0.10160      0.00000     0.39649    0.00191     0.39840
      H   17    0.08183      0.00000     0.41684    0.00133     0.41817
      H   18    0.08372      0.00000     0.41350    0.00277     0.41628
      H   19    0.09593      0.00000     0.40231    0.00176     0.40407
      H   20    0.09681      0.00000     0.40213    0.00106     0.40319
      H   21    0.10030      0.00000     0.39841    0.00129     0.39970
      H   22    0.09903      0.00000     0.39984    0.00112     0.40097
      H   23    0.08005      0.00000     0.41634    0.00362     0.41995
      H   24    0.09861      0.00000     0.40005    0.00134     0.40139
      H   25    0.10158      0.00000     0.39686    0.00156     0.39842
      H   26    0.10117      0.00000     0.39740    0.00143     0.39883
      H   27    0.17793      0.00000     0.31971    0.00236     0.32207
      H   28    0.17821      0.00000     0.31988    0.00192     0.32179
 =======================================================================
   * Total *    0.00000      9.99636    29.87215    0.13149    40.00000

 Normal termination of Gaussian 16 at Tue Dec  8 11:12:19 2020.
