 Gaussian 16, Revision A.03,

 -----------------------------------------------------------
 # opt freq B3LYP/6-31G(d) empiricaldispersion=gd3bj scf=xqc
 -----------------------------------------------------------

 -------------------------------
 CID_113597463_JID_9421_neutraal
 -------------------------------
 Symbolic Z-matrix:
 Charge =  0 Multiplicity = 1

 SCF Done:  E(RB3LYP) =  -1326.20852132     A.U. after   15 cycles
 SCF Done:  E(RB3LYP) =  -1326.21533467     A.U. after   13 cycles
 SCF Done:  E(RB3LYP) =  -1326.21621699     A.U. after   13 cycles
 SCF Done:  E(RB3LYP) =  -1326.21554914     A.U. after   13 cycles
 SCF Done:  E(RB3LYP) =  -1326.21701496     A.U. after   12 cycles
 SCF Done:  E(RB3LYP) =  -1326.21747332     A.U. after   13 cycles
 SCF Done:  E(RB3LYP) =  -1326.21762298     A.U. after   13 cycles
 SCF Done:  E(RB3LYP) =  -1326.21772232     A.U. after   11 cycles
 SCF Done:  E(RB3LYP) =  -1326.21781776     A.U. after   12 cycles
 SCF Done:  E(RB3LYP) =  -1326.21787656     A.U. after   13 cycles
 SCF Done:  E(RB3LYP) =  -1326.21817004     A.U. after   11 cycles
 SCF Done:  E(RB3LYP) =  -1326.21817084     A.U. after   11 cycles
 SCF Done:  E(RB3LYP) =  -1326.21817103     A.U. after    8 cycles
 SCF Done:  E(RB3LYP) =  -1326.21817112     A.U. after    8 cycles
 SCF Done:  E(RB3LYP) =  -1326.21817116     A.U. after    8 cycles
 SCF Done:  E(RB3LYP) =  -1326.21817117     A.U. after    7 cycles
 Optimization completed.
    -- Stationary point found.
 Normal termination of Gaussian 16 at Mon Dec 14 16:57:05 2020.

 --------------------------------------------------------------------
 #N Geom=AllCheck Guess=TCheck SCRF=Check GenChk RB3LYP/6-31G(d) Freq
 --------------------------------------------------------------------

 Structure from the checkpoint file:  "JID_9421.chk"
 -------------------------------
 CID_113597463_JID_9421_neutraal
 -------------------------------
 Charge =  0 Multiplicity = 1

 SCF Done:  E(RB3LYP) =  -1326.21817117     A.U. after    1 cycles

  Exact polarizability: 218.029 -11.693 126.782  16.546  12.106 110.258
 Approx polarizability: 293.590 -22.405 225.403  31.649  30.445 185.439

                      1                      2                      3
                      A                      A                      A
 Frequencies --     14.0610                24.2548                25.2537
 Red. masses --      6.6474                 9.8035                 4.8521
 Frc consts  --      0.0008                 0.0034                 0.0018
 IR Inten    --      0.4548                 0.7326                 1.8303

                      4                      5                      6
                      A                      A                      A
 Frequencies --     51.4168                60.5642                79.5891
 Red. masses --      8.9673                 7.8846                 8.6818
 Frc consts  --      0.0140                 0.0170                 0.0324
 IR Inten    --      0.8915                 1.7605                 0.9676

                      7                      8                      9
                      A                      A                      A
 Frequencies --     99.1192               122.1817               168.5871
 Red. masses --      9.0216                11.6116                 6.0966
 Frc consts  --      0.0522                 0.1021                 0.1021
 IR Inten    --      4.4147                 6.5822                 1.4537

                     10                     11                     12
                      A                      A                      A
 Frequencies --    197.8112               208.3188               234.9189
 Red. masses --      7.0960                 6.5249                 4.0336
 Frc consts  --      0.1636                 0.1668                 0.1312
 IR Inten    --      1.9500                 2.7780                 2.3161

                     13                     14                     15
                      A                      A                      A
 Frequencies --    257.6074               274.1922               284.5331
 Red. masses --      3.7343                10.2206                 3.2964
 Frc consts  --      0.1460                 0.4527                 0.1572
 IR Inten    --      2.7863                 0.8123                25.3195

                     16                     17                     18
                      A                      A                      A
 Frequencies --    315.7466               340.5900               362.6989
 Red. masses --      3.6449                 4.0795                 2.7753
 Frc consts  --      0.2141                 0.2788                 0.2151
 IR Inten    --      1.1643                 2.8770                16.6273

                     19                     20                     21
                      A                      A                      A
 Frequencies --    370.8571               393.7296               420.3266
 Red. masses --      1.7004                 3.9325                 4.8897
 Frc consts  --      0.1378                 0.3592                 0.5090
 IR Inten    --     78.9153                 1.5263                12.7095

                     22                     23                     24
                      A                      A                      A
 Frequencies --    438.3679               496.2286               512.5436
 Red. masses --      7.0655                 5.8421                 4.0640
 Frc consts  --      0.8000                 0.8476                 0.6290
 IR Inten    --     11.5356                19.8733                23.0517

                     25                     26                     27
                      A                      A                      A
 Frequencies --    518.2340               565.2043               573.3597
 Red. masses --      8.2006                 4.6752                 4.0119
 Frc consts  --      1.2976                 0.8800                 0.7771
 IR Inten    --     38.3388                 6.4057                26.1444

                     28                     29                     30
                      A                      A                      A
 Frequencies --    577.1629               605.7572               614.2874
 Red. masses --      2.9337                 1.7771                 5.0756
 Frc consts  --      0.5758                 0.3842                 1.1284
 IR Inten    --      9.7225                58.6230               119.0013

                     31                     32                     33
                      A                      A                      A
 Frequencies --    639.6717               649.2568               660.0556
 Red. masses --      1.7793                 3.2412                 8.4925
 Frc consts  --      0.4289                 0.8050                 2.1799
 IR Inten    --     54.8801                18.2147                 3.4394

                     34                     35                     36
                      A                      A                      A
 Frequencies --    738.8642               765.3714               772.4355
 Red. masses --      2.3714                 3.1346                 5.2571
 Frc consts  --      0.7628                 1.0819                 1.8481
 IR Inten    --    119.5262                30.7565                11.6054

                     37                     38                     39
                      A                      A                      A
 Frequencies --    816.6567               839.2171               862.4269
 Red. masses --      3.7851                 3.7517                 1.4616
 Frc consts  --      1.4873                 1.5568                 0.6405
 IR Inten    --     37.5908               133.9576                17.1794

                     40                     41                     42
                      A                      A                      A
 Frequencies --    918.7951               930.7000               971.7536
 Red. masses --      2.2934                 2.8363                 1.3494
 Frc consts  --      1.1407                 1.4475                 0.7507
 IR Inten    --      4.1245                59.2827                 1.3118

                     43                     44                     45
                      A                      A                      A
 Frequencies --    995.2319              1037.3082              1071.1117
 Red. masses --      1.3411                 4.2015                 1.8405
 Frc consts  --      0.7826                 2.6636                 1.2441
 IR Inten    --      0.1158                12.1829                81.2429

                     46                     47                     48
                      A                      A                      A
 Frequencies --   1086.9859              1105.6423              1113.0370
 Red. masses --      3.6318                 5.3617                 5.0242
 Frc consts  --      2.5283                 3.8617                 3.6672
 IR Inten    --      5.2991                82.3118                61.6409

                     49                     50                     51
                      A                      A                      A
 Frequencies --   1132.0407              1148.9630              1167.7213
 Red. masses --      4.1560                 3.1014                 1.5667
 Frc consts  --      3.1380                 2.4122                 1.2587
 IR Inten    --    178.3365               101.1184                19.1337

                     52                     53                     54
                      A                      A                      A
 Frequencies --   1177.2003              1227.1642              1247.4714
 Red. masses --      2.2459                 1.2220                 3.7100
 Frc consts  --      1.8338                 1.0842                 3.4016
 IR Inten    --    122.1736                11.7296                 2.2613

                     55                     56                     57
                      A                      A                      A
 Frequencies --   1267.5459              1296.6591              1310.1141
 Red. masses --      1.2279                 1.5864                 4.4525
 Frc consts  --      1.1623                 1.5715                 4.5027
 IR Inten    --     42.0700                 3.2673                44.5008

                     58                     59                     60
                      A                      A                      A
 Frequencies --   1320.8691              1336.4221              1340.8006
 Red. masses --      1.9252                 2.0531                 2.4530
 Frc consts  --      1.9790                 2.1604                 2.5982
 IR Inten    --     13.2467                 3.6369               133.4369

                     61                     62                     63
                      A                      A                      A
 Frequencies --   1381.9086              1393.2806              1408.3560
 Red. masses --      1.3309                 1.4445                 2.6882
 Frc consts  --      1.4975                 1.6522                 3.1415
 IR Inten    --     26.0066                16.0276                32.6724

                     64                     65                     66
                      A                      A                      A
 Frequencies --   1410.3734              1453.0600              1482.6650
 Red. masses --      1.2616                 1.2546                 1.4516
 Frc consts  --      1.4786                 1.5607                 1.8801
 IR Inten    --      4.5611                58.3936                32.7196

                     67                     68                     69
                      A                      A                      A
 Frequencies --   1508.1739              1508.7884              1518.3467
 Red. masses --      2.0037                 1.1794                 1.0968
 Frc consts  --      2.6853                 1.5819                 1.4897
 IR Inten    --     22.4320                 1.2705                10.3193

                     70                     71                     72
                      A                      A                      A
 Frequencies --   1609.7108              1633.4069              1848.1342
 Red. masses --      6.5493                 5.7319                 9.7897
 Frc consts  --      9.9986                 9.0103                19.7009
 IR Inten    --     25.7827                28.7803               295.6891

                     73                     74                     75
                      A                      A                      A
 Frequencies --   2363.9056              3061.6279              3078.0854
 Red. masses --     12.6855                 1.0684                 1.0620
 Frc consts  --     41.7655                 5.9003                 5.9284
 IR Inten    --      0.7284                10.7224                23.4282

                     76                     77                     78
                      A                      A                      A
 Frequencies --   3098.1268              3115.3871              3151.7619
 Red. masses --      1.0843                 1.1049                 1.0969
 Frc consts  --      6.1319                 6.3182                 6.4198
 IR Inten    --     17.7811                13.6652                 7.1074

                     79                     80                     81
                      A                      A                      A
 Frequencies --   3218.2689              3226.2911              3238.4164
 Red. masses --      1.0917                 1.0894                 1.0965
 Frc consts  --      6.6621                 6.6810                 6.7751
 IR Inten    --      0.6323                 0.2949                 1.1612

                     82                     83                     84
                      A                      A                      A
 Frequencies --   3538.6854              3672.0688              3687.0362
 Red. masses --      1.0754                 1.0642                 1.0652
 Frc consts  --      7.9341                 8.4548                 8.5319
 IR Inten    --    124.5602                70.9799                49.2565

 - Thermochemistry -
 -------------------
 Temperature   298.150 Kelvin.  Pressure   1.00000 Atm.
 Atom     1 has atomic number  6 and mass  12.00000

 Molecular mass:   285.04194 amu.
 Principal axes and moments of inertia in atomic units:
                           1         2         3
     Eigenvalues --  2048.75476********************
           X            0.99998   0.00684   0.00112
           Y           -0.00693   0.98654   0.16335
           Z            0.00001  -0.16335   0.98657
 This molecule is an asymmetric top.
 Rotational symmetry number  1.
 Warning -- assumption of classical behavior for rotation
           may cause significant error
 Rotational temperatures (Kelvin)      0.04228     0.00700     0.00690
 Rotational constants (GHZ):           0.88090     0.14595     0.14371
 Zero-point vibrational energy     578758.5 (Joules/Mol)
                                  138.32660 (Kcal/Mol)
 Warning -- explicit consideration of  30 degrees of freedom as
           vibrations may cause significant error
 Vibrational temperatures:     20.23    34.90    36.33    73.98    87.14
          (Kelvin)            114.51   142.61   175.79   242.56   284.61
                              299.72   338.00   370.64   394.50   409.38
                              454.29   490.03   521.84   533.58   566.49
                              604.76   630.71   713.96   737.44   745.62
                              813.20   824.94   830.41   871.55   883.82
                              920.34   934.14   949.67  1063.06  1101.20
                             1111.36  1174.99  1207.45  1240.84  1321.94
                             1339.07  1398.14  1431.92  1492.46  1541.09
                             1563.93  1590.77  1601.41  1628.75  1653.10
                             1680.09  1693.73  1765.62  1794.83  1823.72
                             1865.60  1884.96  1900.44  1922.81  1929.11
                             1988.26  2004.62  2026.31  2029.21  2090.63
                             2133.22  2169.93  2170.81  2184.56  2316.01
                             2350.11  2659.05  3401.13  4405.00  4428.68
                             4457.51  4482.35  4534.68  4630.37  4641.91
                             4659.36  5091.38  5283.29  5304.82

 Zero-point correction=                           0.220437 (Hartree/Particle)
 Thermal correction to Energy=                    0.238666
 Thermal correction to Enthalpy=                  0.239611
 Thermal correction to Gibbs Free Energy=         0.170682
 Sum of electronic and zero-point Energies=          -1325.997734
 Sum of electronic and thermal Energies=             -1325.979505
 Sum of electronic and thermal Enthalpies=           -1325.978561
 Sum of electronic and thermal Free Energies=        -1326.047489

                     E (Thermal)             CV                S
                      KCal/Mol        Cal/Mol-Kelvin    Cal/Mol-Kelvin
 Total                  149.765             66.839            145.073
 Electronic               0.000              0.000              0.000
 Translational            0.889              2.981             42.840
 Rotational               0.889              2.981             34.119
 Vibrational            147.988             60.878             68.113
 Vibration     1          0.593              1.986              7.334
 Vibration     2          0.593              1.985              6.251
 Vibration     3          0.593              1.985              6.171
 Vibration     4          0.596              1.977              4.762
 Vibration     5          0.597              1.973              4.439
 Vibration     6          0.600              1.963              3.901
 Vibration     7          0.604              1.950              3.472
 Vibration     8          0.610              1.931              3.066
 Vibration     9          0.625              1.881              2.451
 Vibration    10          0.637              1.843              2.153
 Vibration    11          0.642              1.828              2.058
 Vibration    12          0.655              1.787              1.841
 Vibration    13          0.667              1.750              1.678
 Vibration    14          0.677              1.721              1.570
 Vibration    15          0.683              1.702              1.506
 Vibration    16          0.703              1.644              1.332
 Vibration    17          0.720              1.594              1.209
 Vibration    18          0.737              1.549              1.111
 Vibration    19          0.743              1.532              1.076
 Vibration    20          0.761              1.484              0.986
 Vibration    21          0.783              1.426              0.891
 Vibration    22          0.799              1.387              0.832
 Vibration    23          0.852              1.258              0.668
 Vibration    24          0.868              1.222              0.627
 Vibration    25          0.873              1.210              0.614
 Vibration    26          0.921              1.107              0.514
 Vibration    27          0.930              1.089              0.498
 Vibration    28          0.934              1.081              0.491
 Vibration    29          0.964              1.020              0.440
 Vibration    30          0.974              1.002              0.426

 Optimization completed.
    -- Stationary point found.
 Normal termination of Gaussian 16 at Mon Dec 14 17:11:25 2020.

 ----------------------------------------------------------------------
 # B3LYP/6-311++G(d,p) empiricaldispersion=gd3bj scf=xqc pop=npa geom=c
 heck
 ----------------------------------------------------------------------

 ---------------------------------------
 CID_113597463_JID_9421_Energie_neutraal
 ---------------------------------------
 Structure from the checkpoint file:  "JID_9421.chk"
 Charge =  0 Multiplicity = 1

 SCF Done:  E(RB3LYP) =  -1326.52708995     A.U. after   17 cycles
 Normal termination of Gaussian 16 at Mon Dec 14 17:17:59 2020.

 ----------------------------------------------------------------------
 # B3LYP/6-311++G(d,p) empiricaldispersion=gd3bj scf=xqc pop=npa geom=c
 heck
 ----------------------------------------------------------------------

 -------------------------------------
 CID_113597463_JID_9421_Energie_kation
 -------------------------------------
 Structure from the checkpoint file:  "JID_9421.chk"
 Charge =  1 Multiplicity = 2

 SCF Done:  E(UB3LYP) =  -1326.17578890     A.U. after   29 cycles
 Normal termination of Gaussian 16 at Mon Dec 14 17:34:10 2020.
 Gaussian 16:  ES64L-G16RevA.03 25-Dec-2016

 ----------------------------------------------------------------------
 # B3LYP/6-311++G(d,p) empiricaldispersion=gd3bj scf=xqc pop=npa geom=c
 heck
 ----------------------------------------------------------------------

 ------------------------------------
 CID_113597463_JID_9421_Energie_anion
 ------------------------------------
 Structure from the checkpoint file:  "JID_9421.chk"
 Charge = -1 Multiplicity = 2

                         Standard orientation:
 ---------------------------------------------------------------------
 Center     Atomic      Atomic             Coordinates (Angstroms)
 Number     Number       Type             X           Y           Z
 ---------------------------------------------------------------------
      1          6           0       -2.506281   -1.251566   -0.505968
      2          6           0       -3.788659   -0.816952   -0.816224
      3          6           0       -4.227262    0.396348   -0.263798
      4          7           0       -3.491870    1.159945    0.560351
      5          6           0       -2.264938    0.727840    0.859070
      6          6           0       -1.735854   -0.456293    0.339809
      7         16           0       -0.070066   -0.961872    0.762845
      8          8           0        0.318791   -0.164662    1.930806
      9          8           0       -0.016024   -2.424724    0.778478
     10          7           0        0.768767   -0.504263   -0.607326
     11          6           0        1.216242    0.885623   -0.779783
     12          6           0        2.298000    1.401168    0.183403
     13          6           0        3.491473    0.456061    0.447157
     14          6           0        4.190400    0.073749   -0.847636
     15          8           0        5.196554    0.610401   -1.253792
     16          8           0        3.552818   -0.909519   -1.530691
     17          8           0        4.423556    1.064351    1.311480
     18          6           0       -5.548592    0.878045   -0.582470
     19          7           0       -6.616967    1.236042   -0.864833
     20          1           0       -2.110136   -2.183092   -0.895467
     21          1           0       -4.442064   -1.389952   -1.464379
     22          1           0       -1.679672    1.334233    1.543796
     23          1           0        1.466293   -1.207632   -0.842738
     24          1           0        1.560923    0.943284   -1.816337
     25          1           0        0.333700    1.530626   -0.712601
     26          1           0        2.691711    2.343583   -0.217500
     27          1           0        1.864827    1.611439    1.162946
     28          1           0        3.127680   -0.451341    0.939011
     29          1           0        4.058105   -1.061437   -2.352651
     30          1           0        5.077433    1.507260    0.741432
 ---------------------------------------------------------------------

 SCF Done:  E(UB3LYP) =  -1326.57391615     A.U. after   30 cycles

 The electronic state is 2-A.
 Alpha  occ. eigenvalues --  -88.94937 -19.13564 -19.07948 -19.06482 -19.00659
 Alpha  occ. eigenvalues --  -19.00649 -14.24177 -14.17105 -14.16109 -10.26262
 Alpha  occ. eigenvalues --  -10.17735 -10.13616 -10.10528 -10.08494 -10.07886
 Alpha  occ. eigenvalues --  -10.06101 -10.06090 -10.05892 -10.05619  -8.01061
 Alpha  occ. eigenvalues --   -5.97380  -5.97342  -5.97094  -1.07444  -1.01018
 Alpha  occ. eigenvalues --   -0.99180  -0.96715  -0.90127  -0.83331  -0.81847
 Alpha  occ. eigenvalues --   -0.76081  -0.72098  -0.68809  -0.65625  -0.64858
 Alpha  occ. eigenvalues --   -0.59158  -0.56689  -0.53461  -0.51294  -0.49898
 Alpha  occ. eigenvalues --   -0.49001  -0.45677  -0.43770  -0.42730  -0.41870
 Alpha  occ. eigenvalues --   -0.41310  -0.40557  -0.38447  -0.38196  -0.37106
 Alpha  occ. eigenvalues --   -0.35153  -0.34678  -0.33289  -0.32615  -0.32054
 Alpha  occ. eigenvalues --   -0.30470  -0.29314  -0.29071  -0.28908  -0.28529
 Alpha  occ. eigenvalues --   -0.27556  -0.24869  -0.24200  -0.22750  -0.22631
 Alpha  occ. eigenvalues --   -0.22119  -0.21706  -0.20912  -0.19899  -0.19547
 Alpha  occ. eigenvalues --   -0.18251  -0.16572  -0.14165  -0.13371   0.01525
 Alpha virt. eigenvalues --    0.03710   0.03935   0.06714   0.07819   0.09094
 Alpha virt. eigenvalues --    0.09373   0.10160   0.10174   0.11185   0.11555
 Alpha virt. eigenvalues --    0.12365   0.12807   0.13401   0.14230   0.14884

  Beta  occ. eigenvalues --  -88.94932 -19.13559 -19.07937 -19.06482 -19.00629
  Beta  occ. eigenvalues --  -19.00616 -14.24139 -14.16817 -14.15767 -10.26244
  Beta  occ. eigenvalues --  -10.17736 -10.13616 -10.10526 -10.08552 -10.07420
  Beta  occ. eigenvalues --  -10.06146 -10.05953 -10.05740 -10.05382  -8.01055
  Beta  occ. eigenvalues --   -5.97357  -5.97328  -5.97100  -1.07427  -1.00920
  Beta  occ. eigenvalues --   -0.99168  -0.96710  -0.90057  -0.83258  -0.81220
  Beta  occ. eigenvalues --   -0.75585  -0.72063  -0.68150  -0.65288  -0.64574
  Beta  occ. eigenvalues --   -0.59048  -0.56253  -0.53274  -0.51066  -0.49602
  Beta  occ. eigenvalues --   -0.48974  -0.45643  -0.43648  -0.42416  -0.41823
  Beta  occ. eigenvalues --   -0.41217  -0.40433  -0.38384  -0.38134  -0.36853
  Beta  occ. eigenvalues --   -0.35096  -0.34621  -0.33253  -0.32496  -0.32021
  Beta  occ. eigenvalues --   -0.30442  -0.29068  -0.29032  -0.28493  -0.27396
  Beta  occ. eigenvalues --   -0.27314  -0.24830  -0.24097  -0.22489  -0.22197
  Beta  occ. eigenvalues --   -0.21683  -0.20913  -0.20671  -0.19640  -0.19363
  Beta  occ. eigenvalues --   -0.17726  -0.15184  -0.13006  -0.12302
  Beta virt. eigenvalues --    0.03855   0.03939   0.06705   0.07775   0.08082
  Beta virt. eigenvalues --    0.09109   0.09719   0.10142   0.10192   0.11145
  Beta virt. eigenvalues --    0.11529   0.12351   0.12796   0.13410   0.14279

 Mulliken charges and spin densities:
               1          2
     1  C    0.024063   0.257952
     2  C   -0.023293  -0.007107
     3  C    0.793539   0.349951
     4  N   -0.002295   0.127709
     5  C   -0.399131  -0.022040
     6  C   -0.283055   0.197441
     7  S    0.203407   0.017183
     8  O   -0.136174   0.011786
     9  O   -0.185355  -0.013826
    10  N   -0.166792   0.003358
    11  C   -0.535257  -0.006044
    12  C    0.045346  -0.002733
    13  C   -0.545056  -0.003471
    14  C    0.005660   0.015141
    15  O   -0.299694   0.001486
    16  O   -0.207390  -0.003221
    17  O   -0.188844   0.000031
    18  C   -1.350586  -0.127168
    19  N   -0.337578   0.181331
    20  H    0.212399  -0.014114
    21  H    0.162454   0.003829
    22  H    0.186868   0.004063
    23  H    0.378692   0.007710
    24  H    0.189891  -0.000258
    25  H    0.230039   0.001204
    26  H    0.148210  -0.000110
    27  H    0.252321   0.000548
    28  H    0.297254   0.000868
    29  H    0.278384   0.018485
    30  H    0.251973   0.000015
 Sum of Mulliken charges =  -1.00000   1.00000

 Dipole moment (field-independent basis, Debye):
    X=             15.3072    Y=             -1.4870    Z=             -4.1825  Tot=             15.9378
 Quadrupole moment (field-independent basis, Debye-Ang):
   XX=           -239.7954   YY=           -134.6130   ZZ=           -131.0196
   XY=             17.9769   XZ=            -15.5531   YZ=              6.6599

 Summary of Natural Population Analysis:

                                       Natural Population
                Natural  -----------------------------------------------
    Atom  No    Charge         Core      Valence    Rydberg      Total
 -----------------------------------------------------------------------
      C    1   -0.03960      0.99952     2.03030    0.00978     3.03960
      C    2   -0.11289      0.99954     2.10604    0.00731     3.11289
      C    3    0.11034      0.99944     1.87543    0.01478     2.88966
      N    4   -0.18581      0.99968     2.67469    0.01143     3.68581
      C    5    0.01635      0.99953     1.97016    0.01396     2.98365
      C    6   -0.09991      0.99935     2.08646    0.01411     3.09991
      S    7    1.11295      4.99919     1.78708    0.10077     6.88705
      O    8   -0.47400      0.99991     3.46651    0.00758     4.47400
      O    9   -0.46887      0.99991     3.46356    0.00541     4.46887
      N   10   -0.44221      0.99975     2.92841    0.01405     3.94221
      C   11   -0.09837      0.99962     2.08718    0.01157     3.09837
      C   12   -0.20602      0.99961     2.19852    0.00789     3.20602
      C   13    0.01557      0.99952     1.97079    0.01411     2.98443
      C   14    0.39919      0.99970     1.57450    0.02660     2.60081
      O   15   -0.31062      0.99987     3.30344    0.00732     4.31062
      O   16   -0.34647      0.99987     3.33918    0.00742     4.34647
      O   17   -0.36306      0.99990     3.35584    0.00732     4.36306
      C   18    0.13550      0.99964     1.84641    0.01844     2.86450
      N   19   -0.15064      0.99979     2.63906    0.01179     3.65064
      H   20    0.10326      0.00000     0.39568    0.00107     0.39674
      H   21    0.10094      0.00000     0.39809    0.00098     0.39906
      H   22    0.09512      0.00000     0.40356    0.00132     0.40488
      H   23    0.20162      0.00000     0.29665    0.00173     0.29838
      H   24    0.09570      0.00000     0.40325    0.00105     0.40430
      H   25    0.10995      0.00000     0.38885    0.00120     0.39005
      H   26    0.09716      0.00000     0.40156    0.00128     0.40284
      H   27    0.12224      0.00000     0.37668    0.00108     0.37776
      H   28    0.10733      0.00000     0.39043    0.00223     0.39267
      H   29    0.24075      0.00000     0.25517    0.00408     0.25925
      H   30    0.23450      0.00000     0.26280    0.00270     0.26550
 =======================================================================
   * Total *   -0.00000     22.99333    50.67629    0.33038    74.00000

 Normal termination of Gaussian 16 at Mon Dec 14 17:50:45 2020.
