 Gaussian 16, Revision A.03,

 -----------------------------------------------------------
 # opt freq B3LYP/6-31G(d) empiricaldispersion=gd3bj scf=xqc
 -----------------------------------------------------------

 ------------------------------
 CID_55297326_JID_3244_neutraal
 ------------------------------
 Symbolic Z-matrix:
 Charge =  0 Multiplicity = 1

 SCF Done:  E(RB3LYP) =  -592.924900650     A.U. after   15 cycles
 SCF Done:  E(RB3LYP) =  -592.929501600     A.U. after   13 cycles
 SCF Done:  E(RB3LYP) =  -592.930385687     A.U. after   13 cycles
 SCF Done:  E(RB3LYP) =  -592.931117025     A.U. after   14 cycles
 SCF Done:  E(RB3LYP) =  -592.931471967     A.U. after   11 cycles
 SCF Done:  E(RB3LYP) =  -592.931766145     A.U. after   14 cycles
 SCF Done:  E(RB3LYP) =  -592.931934724     A.U. after   11 cycles
 SCF Done:  E(RB3LYP) =  -592.931944748     A.U. after   10 cycles
 SCF Done:  E(RB3LYP) =  -592.931946542     A.U. after    9 cycles
 SCF Done:  E(RB3LYP) =  -592.931946753     A.U. after    8 cycles
 SCF Done:  E(RB3LYP) =  -592.931946849     A.U. after    8 cycles
 SCF Done:  E(RB3LYP) =  -592.931946904     A.U. after    7 cycles
 Optimization completed.
    -- Stationary point found.
 Normal termination of Gaussian 16 at Wed Dec  9 22:28:56 2020.

 --------------------------------------------------------------------
 #N Geom=AllCheck Guess=TCheck SCRF=Check GenChk RB3LYP/6-31G(d) Freq
 --------------------------------------------------------------------

 Structure from the checkpoint file:  "JID_3244.chk"
 ------------------------------
 CID_55297326_JID_3244_neutraal
 ------------------------------
 Charge =  0 Multiplicity = 1

 SCF Done:  E(RB3LYP) =  -592.931946904     A.U. after    1 cycles

  Exact polarizability: 168.643  -0.017 127.968  -0.174  -0.498  57.363
 Approx polarizability: 249.725 -18.753 219.890  -1.194   0.737  88.070

                      1                      2                      3
                      A                      A                      A
 Frequencies --     62.7190                79.9180               110.4503
 Red. masses --      2.8313                 2.6070                 3.9727
 Frc consts  --      0.0066                 0.0098                 0.0286
 IR Inten    --      3.2215                 0.8430                 4.0978

                      4                      5                      6
                      A                      A                      A
 Frequencies --    151.6132               193.4989               226.6450
 Red. masses --      3.4442                 4.5409                 1.8041
 Frc consts  --      0.0466                 0.1002                 0.0546
 IR Inten    --      2.5139                 3.8473                 1.5103

                      7                      8                      9
                      A                      A                      A
 Frequencies --    257.0060               266.5288               328.5011
 Red. masses --      3.7708                 1.5968                 1.4210
 Frc consts  --      0.1467                 0.0668                 0.0903
 IR Inten    --      0.9480                 4.1774                23.8489

                     10                     11                     12
                      A                      A                      A
 Frequencies --    344.1336               357.7867               367.7232
 Red. masses --      2.0749                 5.8625                 4.0085
 Frc consts  --      0.1448                 0.4422                 0.3194
 IR Inten    --      8.7750                 1.1491                 0.7670

                     13                     14                     15
                      A                      A                      A
 Frequencies --    498.9383               518.0560               528.8496
 Red. masses --      6.0233                 2.8956                 4.0524
 Frc consts  --      0.8834                 0.4579                 0.6678
 IR Inten    --      9.6917                 8.2941                 3.8591

                     16                     17                     18
                      A                      A                      A
 Frequencies --    531.4218               617.4941               631.8208
 Red. masses --      5.3454                 2.1446                 3.8249
 Frc consts  --      0.8894                 0.4818                 0.8996
 IR Inten    --      6.1778                61.3832                 0.8266

                     19                     20                     21
                      A                      A                      A
 Frequencies --    647.2033               652.3861               691.4687
 Red. masses --      6.9464                 2.2001                 3.0075
 Frc consts  --      1.7143                 0.5517                 0.8472
 IR Inten    --     30.2715               176.2531                55.1717

                     22                     23                     24
                      A                      A                      A
 Frequencies --    721.9545               751.9218               811.4756
 Red. masses --      4.2025                 5.6402                 1.4036
 Frc consts  --      1.2905                 1.8789                 0.5446
 IR Inten    --     31.3804                 9.5104                35.7302

                     25                     26                     27
                      A                      A                      A
 Frequencies --    850.6451               897.7118               925.2911
 Red. masses --      1.6667                 3.5205                 1.2655
 Frc consts  --      0.7106                 1.6716                 0.6384
 IR Inten    --      0.2546                 3.0228                 0.0101

                     28                     29                     30
                      A                      A                      A
 Frequencies --    987.9115              1003.9746              1025.2092
 Red. masses --      4.5419                 2.3943                 2.0822
 Frc consts  --      2.6117                 1.4219                 1.2894
 IR Inten    --      3.5918                 4.2903                 1.1791

                     31                     32                     33
                      A                      A                      A
 Frequencies --   1075.2991              1106.6098              1168.1394
 Red. masses --      4.3276                 3.6621                 1.2019
 Frc consts  --      2.9482                 2.6422                 0.9663
 IR Inten    --     24.6506               136.8480                 0.5558

                     34                     35                     36
                      A                      A                      A
 Frequencies --   1179.9754              1186.3627              1194.8013
 Red. masses --      1.3351                 1.2853                 1.9997
 Frc consts  --      1.0952                 1.0658                 1.6819
 IR Inten    --      0.5844                 1.9963                48.6889

                     37                     38                     39
                      A                      A                      A
 Frequencies --   1223.3149              1250.1555              1271.2250
 Red. masses --      1.3837                 1.1152                 2.7923
 Frc consts  --      1.2200                 1.0269                 2.6586
 IR Inten    --      2.2116                 0.4391               186.2555

                     40                     41                     42
                      A                      A                      A
 Frequencies --   1288.2909              1312.9411              1325.3040
 Red. masses --      1.6883                 2.6184                 2.4981
 Frc consts  --      1.6509                 2.6593                 2.5851
 IR Inten    --     24.8242                 0.7060               193.9620

                     43                     44                     45
                      A                      A                      A
 Frequencies --   1340.3725              1420.8729              1481.3636
 Red. masses --      2.5653                 5.9419                 1.1731
 Frc consts  --      2.7154                 7.0678                 1.5167
 IR Inten    --    120.6804                47.1112                 0.0830

                     46                     47                     48
                      A                      A                      A
 Frequencies --   1496.3612              1502.0451              1520.3164
 Red. masses --      1.7813                 1.5844                 1.0476
 Frc consts  --      2.3499                 2.1061                 1.4266
 IR Inten    --      8.2769                25.4597                 5.8852

                     49                     50                     51
                      A                      A                      A
 Frequencies --   1524.6429              1534.9295              1551.0549
 Red. masses --      1.1713                 1.1100                 2.9105
 Frc consts  --      1.6042                 1.5409                 4.1255
 IR Inten    --      2.9027                58.9522                79.2757

                     52                     53                     54
                      A                      A                      A
 Frequencies --   1641.2031              1660.7996              1685.5374
 Red. masses --      3.0143                 6.9979                 1.5067
 Frc consts  --      4.7837                11.3724                 2.5221
 IR Inten    --     33.1285               121.1973                97.4019

                     55                     56                     57
                      A                      A                      A
 Frequencies --   1810.0234              3029.4149              3032.8325
 Red. masses --     12.7621                 1.0653                 1.0341
 Frc consts  --     24.6343                 5.7605                 5.6040
 IR Inten    --    330.5730                34.9212                58.4021

                     58                     59                     60
                      A                      A                      A
 Frequencies --   3064.5652              3079.1064              3094.5614
 Red. masses --      1.0980                 1.0613                 1.1069
 Frc consts  --      6.0758                 5.9283                 6.2453
 IR Inten    --     14.7891                16.8677                38.0778

                     61                     62                     63
                      A                      A                      A
 Frequencies --   3118.3955              3161.7784              3214.2167
 Red. masses --      1.1038                 1.1008                 1.0879
 Frc consts  --      6.3241                 6.4836                 6.6219
 IR Inten    --     12.0179                24.7040                 1.8400

                     64                     65                     66
                      A                      A                      A
 Frequencies --   3230.3878              3551.8922              3656.2906
 Red. masses --      1.0932                 1.0472                 1.0984
 Frc consts  --      6.7212                 7.7836                 8.6516
 IR Inten    --     13.4724                16.1948                17.2842

 - Thermochemistry -
 -------------------
 Temperature   298.150 Kelvin.  Pressure   1.00000 Atm.
 Atom     1 has atomic number  6 and mass  12.00000

 Molecular mass:   177.07898 amu.
 Principal axes and moments of inertia in atomic units:
                           1         2         3
     Eigenvalues --  1077.547253287.718104329.67098
           X            0.99931   0.03717   0.00087
           Y           -0.03717   0.99930  -0.00513
           Z           -0.00106   0.00509   0.99999
 This molecule is an asymmetric top.
 Rotational symmetry number  1.
 Warning -- assumption of classical behavior for rotation
           may cause significant error
 Rotational temperatures (Kelvin)      0.08038     0.02634     0.02000
 Rotational constants (GHZ):           1.67486     0.54893     0.41683
 Zero-point vibrational energy     514547.6 (Joules/Mol)
                                  122.97983 (Kcal/Mol)
 Warning -- explicit consideration of  17 degrees of freedom as
           vibrations may cause significant error
 Vibrational temperatures:     90.24   114.98   158.91   218.14   278.40
          (Kelvin)            326.09   369.77   383.48   472.64   495.13
                              514.78   529.07   717.86   745.37   760.90
                              764.60   888.44   909.05   931.18   938.64
                              994.87  1038.73  1081.85  1167.53  1223.89
                             1291.61  1331.29  1421.38  1444.50  1475.05
                             1547.12  1592.16  1680.69  1697.72  1706.91
                             1719.05  1760.08  1798.69  1829.01  1853.56
                             1889.03  1906.82  1928.50  2044.32  2131.35
                             2152.93  2161.11  2187.40  2193.62  2208.42
                             2231.62  2361.33  2389.52  2425.11  2604.22
                             4358.65  4363.57  4409.23  4430.15  4452.38
                             4486.68  4549.09  4624.54  4647.81  5110.38
                             5260.59

 Zero-point correction=                           0.195981 (Hartree/Particle)
 Thermal correction to Energy=                    0.207556
 Thermal correction to Enthalpy=                  0.208501
 Thermal correction to Gibbs Free Energy=         0.158526
 Sum of electronic and zero-point Energies=           -592.735966
 Sum of electronic and thermal Energies=              -592.724391
 Sum of electronic and thermal Enthalpies=            -592.723446
 Sum of electronic and thermal Free Energies=         -592.773421

                     E (Thermal)             CV                S
                      KCal/Mol        Cal/Mol-Kelvin    Cal/Mol-Kelvin
 Total                  130.244             44.755            105.179
 Electronic               0.000              0.000              0.000
 Translational            0.889              2.981             41.421
 Rotational               0.889              2.981             31.106
 Vibrational            128.466             38.793             32.652
 Vibration     1          0.597              1.972              4.370
 Vibration     2          0.600              1.963              3.893
 Vibration     3          0.606              1.941              3.261
 Vibration     4          0.619              1.901              2.652
 Vibration     5          0.635              1.849              2.194
 Vibration     6          0.650              1.800              1.905
 Vibration     7          0.667              1.751              1.682
 Vibration     8          0.672              1.735              1.619
 Vibration     9          0.712              1.619              1.267
 Vibration    10          0.723              1.587              1.193
 Vibration    11          0.733              1.559              1.132
 Vibration    12          0.740              1.539              1.089
 Vibration    13          0.854              1.252              0.661
 Vibration    14          0.873              1.210              0.614
 Vibration    15          0.884              1.186              0.590
 Vibration    16          0.886              1.180              0.584
 Vibration    17          0.977              0.995              0.421

                           ! Non-Optimized Parameters !
 Normal termination of Gaussian 16 at Wed Dec  9 22:35:04 2020.

 ----------------------------------------------------------------------
 # B3LYP/6-311++G(d,p) empiricaldispersion=gd3bj scf=xqc pop=npa geom=c
 heck
 ----------------------------------------------------------------------

 --------------------------------------
 CID_55297326_JID_3244_Energie_neutraal
 --------------------------------------
 Structure from the checkpoint file:  "JID_3244.chk"
 Charge =  0 Multiplicity = 1

 SCF Done:  E(RB3LYP) =  -593.101979746     A.U. after   16 cycles
 Normal termination of Gaussian 16 at Wed Dec  9 22:37:58 2020.

 ----------------------------------------------------------------------
 # B3LYP/6-311++G(d,p) empiricaldispersion=gd3bj scf=xqc pop=npa geom=c
 heck
 ----------------------------------------------------------------------

 ------------------------------------
 CID_55297326_JID_3244_Energie_kation
 ------------------------------------
 Structure from the checkpoint file:  "JID_3244.chk"
 Charge =  1 Multiplicity = 2

 SCF Done:  E(UB3LYP) =  -592.820634081     A.U. after   24 cycles
 Normal termination of Gaussian 16 at Wed Dec  9 22:44:05 2020.
 Gaussian 16:  ES64L-G16RevA.03 25-Dec-2016

 ----------------------------------------------------------------------
 # B3LYP/6-311++G(d,p) empiricaldispersion=gd3bj scf=xqc pop=npa geom=c
 heck
 ----------------------------------------------------------------------

 -----------------------------------
 CID_55297326_JID_3244_Energie_anion
 -----------------------------------
 Structure from the checkpoint file:  "JID_3244.chk"
 Charge = -1 Multiplicity = 2

                         Standard orientation:
 ---------------------------------------------------------------------
 Center     Atomic      Atomic             Coordinates (Angstroms)
 Number     Number       Type             X           Y           Z
 ---------------------------------------------------------------------
      1          6           0       -3.914568   -0.813356   -0.008551
      2          8           0       -2.939683    0.217130    0.001503
      3          6           0       -1.618243   -0.139796    0.008797
      4          6           0       -0.727783    0.960795    0.009092
      5          6           0        0.636597    0.679455    0.002142
      6          6           0        1.094235   -0.643426   -0.002955
      7          6           0        0.216847   -1.724554    0.000731
      8          6           0       -1.152136   -1.461138    0.006469
      9          6           0        2.569361   -0.667072   -0.005360
     10          8           0        3.290335   -1.648606   -0.013262
     11          6           0        3.052248    0.795924    0.005155
     12          6           0        1.777953    1.673827    0.008449
     13          7           0       -1.228723    2.261052    0.073937
     14          1           0       -4.882988   -0.310664   -0.014896
     15          1           0       -3.836365   -1.443559    0.886095
     16          1           0       -3.822574   -1.442129   -0.903338
     17          1           0        0.599138   -2.739948   -0.000134
     18          1           0       -1.858703   -2.282738    0.005643
     19          1           0        3.687569    0.969158   -0.869688
     20          1           0        3.680443    0.957598    0.887345
     21          1           0        1.740017    2.335892   -0.868022
     22          1           0        1.725957    2.325696    0.889654
     23          1           0       -0.645425    2.958313   -0.371540
     24          1           0       -2.198294    2.332873   -0.208416
 ---------------------------------------------------------------------

 SCF Done:  E(UB3LYP) =  -593.097000862     A.U. after   33 cycles
 SCF Done:  E(UB3LYP) =  -593.097000862     a.u. after    1 cycles

 The electronic state is 2-A.
 Alpha  occ. eigenvalues --  -19.04224 -18.95271 -14.20449 -10.11599 -10.10649
 Alpha  occ. eigenvalues --  -10.09646 -10.08736 -10.06736 -10.05405 -10.05315
 Alpha  occ. eigenvalues --  -10.05204 -10.03993 -10.03340  -0.95812  -0.88842
 Alpha  occ. eigenvalues --   -0.80510  -0.73387  -0.68656  -0.63193  -0.60245
 Alpha  occ. eigenvalues --   -0.58616  -0.54275  -0.49568  -0.46813  -0.42993
 Alpha  occ. eigenvalues --   -0.41161  -0.39709  -0.36661  -0.36212  -0.35442
 Alpha  occ. eigenvalues --   -0.34098  -0.32424  -0.32113  -0.30678  -0.27999
 Alpha  occ. eigenvalues --   -0.26905  -0.26736  -0.25875  -0.24946  -0.24272
 Alpha  occ. eigenvalues --   -0.23135  -0.21885  -0.20562  -0.19013  -0.11863
 Alpha  occ. eigenvalues --   -0.10738  -0.08736   0.04609
 Alpha virt. eigenvalues --    0.06293   0.06984   0.08721   0.09431   0.10479
 Alpha virt. eigenvalues --    0.10674   0.10868   0.12002   0.12188   0.12764
 Alpha virt. eigenvalues --    0.13459   0.13817   0.14832   0.15721   0.16572

  Beta  occ. eigenvalues --  -19.04172 -18.94986 -14.20431 -10.11560 -10.10476
  Beta  occ. eigenvalues --  -10.09402 -10.08740 -10.06733 -10.05429 -10.05376
  Beta  occ. eigenvalues --  -10.05131 -10.03820 -10.03329  -0.95687  -0.88297
  Beta  occ. eigenvalues --   -0.80468  -0.73215  -0.68503  -0.63020  -0.60105
  Beta  occ. eigenvalues --   -0.58451  -0.54067  -0.49328  -0.46697  -0.42816
  Beta  occ. eigenvalues --   -0.41107  -0.39514  -0.36483  -0.36065  -0.35232
  Beta  occ. eigenvalues --   -0.33953  -0.32325  -0.31930  -0.30581  -0.27696
  Beta  occ. eigenvalues --   -0.26588  -0.26280  -0.25657  -0.24861  -0.24187
  Beta  occ. eigenvalues --   -0.22368  -0.21797  -0.20373  -0.18307  -0.11356
  Beta  occ. eigenvalues --   -0.10497  -0.08045
  Beta virt. eigenvalues --    0.07048   0.07545   0.08950   0.09013   0.09898
  Beta virt. eigenvalues --    0.10491   0.10927   0.11088   0.12264   0.12395
  Beta virt. eigenvalues --    0.12900   0.13443   0.13881   0.14813   0.15985

 Mulliken charges and spin densities:
               1          2
     1  C    0.901494  -1.173189
     2  O   -0.245440   0.052803
     3  C   -1.067578   0.461703
     4  C   -0.391094   0.156912
     5  C    0.226208   0.319234
     6  C    1.146188  -0.241396
     7  C   -0.186939  -0.294316
     8  C    0.687421  -0.394950
     9  C   -0.374822   0.051710
    10  O   -0.387113   0.106332
    11  C   -0.100466  -0.155924
    12  C   -0.401476  -0.162651
    13  N   -0.384217  -0.005731
    14  H   -0.909172   1.091615
    15  H    0.038968   0.099274
    16  H   -0.214090   0.364629
    17  H    0.110943   0.019229
    18  H    0.076411   0.080037
    19  H    0.169411  -0.018215
    20  H    0.063024   0.089123
    21  H    0.008196   0.116367
    22  H    0.132465   0.025867
    23  H   -0.000936   0.241328
    24  H    0.102612   0.170210
 Sum of Mulliken charges =  -1.00000   1.00000

 Dipole moment (field-independent basis, Debye):
    X=              2.1789    Y=              2.2340    Z=              0.1377  Tot=              3.1236
 Quadrupole moment (field-independent basis, Debye-Ang):
   XX=           -154.7824   YY=           -103.0254   ZZ=            -91.9212
   XY=             13.8755   XZ=             -2.7573   YZ=             -2.0983

 Summary of Natural Population Analysis:

                                       Natural Population
                Natural  -----------------------------------------------
    Atom  No    Charge         Core      Valence    Rydberg      Total
 -----------------------------------------------------------------------
      C    1   -0.09775      0.99960     2.08891    0.00925     3.09775
      O    2   -0.27850      0.99986     3.26752    0.01112     4.27850
      C    3    0.18057      0.99937     1.80726    0.01279     2.81943
      C    4    0.05307      0.99940     1.93562    0.01190     2.94693
      C    5   -0.00010      0.99947     1.99190    0.00874     3.00010
      C    6   -0.07718      0.99942     2.06911    0.00865     3.07718
      C    7   -0.05536      0.99954     2.04687    0.00895     3.05536
      C    8   -0.15816      0.99954     2.14962    0.00900     3.15816
      C    9    0.30872      0.99961     1.67025    0.02143     2.69128
      O   10   -0.27920      0.99987     3.27284    0.00648     4.27920
      C   11   -0.23267      0.99962     2.22466    0.00839     3.23267
      C   12   -0.20118      0.99962     2.19360    0.00796     3.20118
      N   13   -0.40326      0.99972     2.89268    0.01087     3.90326
      H   14    0.09429      0.00000     0.40351    0.00220     0.40571
      H   15    0.08076      0.00000     0.41787    0.00138     0.41924
      H   16    0.08489      0.00000     0.41306    0.00206     0.41511
      H   17    0.10014      0.00000     0.39793    0.00193     0.39986
      H   18    0.10024      0.00000     0.39869    0.00107     0.39976
      H   19    0.10445      0.00000     0.39428    0.00127     0.39555
      H   20    0.10441      0.00000     0.39356    0.00204     0.39559
      H   21    0.09661      0.00000     0.40205    0.00134     0.40339
      H   22    0.10067      0.00000     0.39818    0.00115     0.39933
      H   23    0.18236      0.00000     0.31600    0.00163     0.31764
      H   24    0.19218      0.00000     0.30573    0.00209     0.30782
 =======================================================================
   * Total *   -0.00000     12.99464    33.85167    0.15369    47.00000

 Normal termination of Gaussian 16 at Wed Dec  9 22:52:35 2020.
