 Gaussian 16, Revision A.03,

 -----------------------------------------------------------
 # opt freq B3LYP/6-31G(d) empiricaldispersion=gd3bj scf=xqc
 -----------------------------------------------------------

 ------------------------------
 CID_79374802_JID_9562_neutraal
 ------------------------------
 Symbolic Z-matrix:
 Charge =  0 Multiplicity = 1

 SCF Done:  E(RB3LYP) =  -884.603303358     A.U. after   15 cycles
 SCF Done:  E(RB3LYP) =  -884.607939609     A.U. after   12 cycles
 SCF Done:  E(RB3LYP) =  -884.608487055     A.U. after   12 cycles
 SCF Done:  E(RB3LYP) =  -884.608463900     A.U. after   12 cycles
 SCF Done:  E(RB3LYP) =  -884.608991140     A.U. after   12 cycles
 SCF Done:  E(RB3LYP) =  -884.609078500     A.U. after   11 cycles
 SCF Done:  E(RB3LYP) =  -884.609215593     A.U. after   11 cycles
 SCF Done:  E(RB3LYP) =  -884.609378212     A.U. after   12 cycles
 SCF Done:  E(RB3LYP) =  -884.609339677     A.U. after   11 cycles
 SCF Done:  E(RB3LYP) =  -884.609756235     A.U. after   10 cycles
 SCF Done:  E(RB3LYP) =  -884.611139205     A.U. after   10 cycles
 SCF Done:  E(RB3LYP) =  -884.611152469     A.U. after    9 cycles
 SCF Done:  E(RB3LYP) =  -884.611152835     A.U. after    8 cycles
 SCF Done:  E(RB3LYP) =  -884.611153028     A.U. after    8 cycles
 SCF Done:  E(RB3LYP) =  -884.611153090     A.U. after    6 cycles
 Optimization completed.
    -- Stationary point found.
 Normal termination of Gaussian 16 at Mon Dec 14 17:08:48 2020.

 --------------------------------------------------------------------
 #N Geom=AllCheck Guess=TCheck SCRF=Check GenChk RB3LYP/6-31G(d) Freq
 --------------------------------------------------------------------

 Structure from the checkpoint file:  "JID_9562.chk"
 ------------------------------
 CID_79374802_JID_9562_neutraal
 ------------------------------
 Charge =  0 Multiplicity = 1

 SCF Done:  E(RB3LYP) =  -884.611153090     A.U. after    1 cycles

  Exact polarizability: 195.693  -9.995 175.124   7.920   5.707 123.032
 Approx polarizability: 272.986 -22.100 275.488  12.756   9.156 183.848

                      1                      2                      3
                      A                      A                      A
 Frequencies --     29.7211                50.0848                62.9330
 Red. masses --      5.9064                 3.0810                 4.1347
 Frc consts  --      0.0031                 0.0046                 0.0096
 IR Inten    --      0.7967                 0.5094                 0.2674

                      4                      5                      6
                      A                      A                      A
 Frequencies --     66.0437                83.9294               101.9476
 Red. masses --      4.4155                 3.5558                 4.9948
 Frc consts  --      0.0113                 0.0148                 0.0306
 IR Inten    --      2.4566                 0.7999                 1.4995

                      7                      8                      9
                      A                      A                      A
 Frequencies --    146.3441               160.9729               179.8272
 Red. masses --      3.9473                 2.9711                 3.9451
 Frc consts  --      0.0498                 0.0454                 0.0752
 IR Inten    --      0.9034                 0.0934                 0.2157

                     10                     11                     12
                      A                      A                      A
 Frequencies --    215.5210               218.4098               249.3253
 Red. masses --      3.9015                 3.1855                 1.9065
 Frc consts  --      0.1068                 0.0895                 0.0698
 IR Inten    --      1.6071                 0.7655                 0.7763

                     13                     14                     15
                      A                      A                      A
 Frequencies --    251.2325               257.1039               283.5726
 Red. masses --      1.2227                 1.1693                 2.1896
 Frc consts  --      0.0455                 0.0455                 0.1037
 IR Inten    --      5.8196                 0.3045                14.4281

                     16                     17                     18
                      A                      A                      A
 Frequencies --    291.5414               313.5030               336.2994
 Red. masses --      1.9406                 2.9547                 2.0822
 Frc consts  --      0.0972                 0.1711                 0.1387
 IR Inten    --     12.8786                13.4012                59.3492

                     19                     20                     21
                      A                      A                      A
 Frequencies --    342.0377               349.4273               358.0157
 Red. masses --      2.3455                 2.2904                 3.5448
 Frc consts  --      0.1617                 0.1648                 0.2677
 IR Inten    --      4.4682                34.1556                44.1919

                     22                     23                     24
                      A                      A                      A
 Frequencies --    399.6343               423.2898               438.2978
 Red. masses --      3.9420                 3.0276                 2.9378
 Frc consts  --      0.3709                 0.3196                 0.3325
 IR Inten    --      3.2241                 1.3891                 0.4525

                     25                     26                     27
                      A                      A                      A
 Frequencies --    459.0481               477.6090               493.0583
 Red. masses --      3.2212                 2.8638                 2.9277
 Frc consts  --      0.3999                 0.3849                 0.4194
 IR Inten    --      7.2209                 1.9939                 6.2951

                     28                     29                     30
                      A                      A                      A
 Frequencies --    559.7315               598.8846               617.4401
 Red. masses --      4.2932                 2.8793                 2.5956
 Frc consts  --      0.7925                 0.6084                 0.5830
 IR Inten    --      8.8679                 5.3656                30.5804

                     31                     32                     33
                      A                      A                      A
 Frequencies --    640.8619               667.6239               690.7877
 Red. masses --      3.8799                 3.3084                 2.1787
 Frc consts  --      0.9389                 0.8688                 0.6125
 IR Inten    --      7.8247                49.3361                36.7853

                     34                     35                     36
                      A                      A                      A
 Frequencies --    716.8919               745.5995               774.0766
 Red. masses --      3.0919                 4.0082                 4.7062
 Frc consts  --      0.9362                 1.3128                 1.6615
 IR Inten    --     34.0298                17.7633                 6.8525

                     37                     38                     39
                      A                      A                      A
 Frequencies --    795.8281               820.5669               840.2760
 Red. masses --      2.9095                 1.5549                 2.2229
 Frc consts  --      1.0857                 0.6168                 0.9247
 IR Inten    --      9.8313                18.7091                 1.4393

                     40                     41                     42
                      A                      A                      A
 Frequencies --    861.5630               877.1851               915.5578
 Red. masses --      3.1069                 1.5539                 3.9194
 Frc consts  --      1.3588                 0.7045                 1.9357
 IR Inten    --      2.7063                17.5754                 3.5096

                     43                     44                     45
                      A                      A                      A
 Frequencies --    927.5185               933.5091               947.3354
 Red. masses --      3.0407                 1.3097                 1.1937
 Frc consts  --      1.5412                 0.6724                 0.6312
 IR Inten    --      4.1424                 0.2867                 2.0042

                     46                     47                     48
                      A                      A                      A
 Frequencies --    970.5168               973.9154               986.9823
 Red. masses --      1.7547                 2.2552                 2.2696
 Frc consts  --      0.9738                 1.2603                 1.3026
 IR Inten    --      3.7894                33.5559                25.0789

                     49                     50                     51
                      A                      A                      A
 Frequencies --   1006.9318              1035.9819              1068.6774
 Red. masses --      2.2008                 2.7211                 2.7746
 Frc consts  --      1.3147                 1.7207                 1.8670
 IR Inten    --     10.0111                21.4310                 1.6171

                     52                     53                     54
                      A                      A                      A
 Frequencies --   1090.3365              1093.7236              1134.8595
 Red. masses --      2.7596                 3.1477                 2.1469
 Frc consts  --      1.9329                 2.2185                 1.6291
 IR Inten    --     96.7021                59.0053               105.4074

                     55                     56                     57
                      A                      A                      A
 Frequencies --   1144.1007              1158.2067              1182.0831
 Red. masses --      2.5442                 1.8213                 2.5145
 Frc consts  --      1.9621                 1.4394                 2.0702
 IR Inten    --     10.7968                 8.7053               135.2091

                     58                     59                     60
                      A                      A                      A
 Frequencies --   1186.6686              1188.2566              1208.8717
 Red. masses --      1.2783                 1.5769                 1.7968
 Frc consts  --      1.0606                 1.3118                 1.5470
 IR Inten    --      0.1180                19.4798                12.5862

                     61                     62                     63
                      A                      A                      A
 Frequencies --   1213.1628              1219.8664              1236.1839
 Red. masses --      1.4717                 1.3864                 1.8626
 Frc consts  --      1.2762                 1.2155                 1.6770
 IR Inten    --      8.0315                13.2001                34.6440

                     64                     65                     66
                      A                      A                      A
 Frequencies --   1245.7238              1287.9537              1299.1573
 Red. masses --      1.5468                 1.6371                 2.5095
 Frc consts  --      1.4143                 1.6000                 2.4955
 IR Inten    --     16.3512                71.3090                40.9473

                     67                     68                     69
                      A                      A                      A
 Frequencies --   1308.0635              1316.5057              1337.8295
 Red. masses --      1.5248                 1.3395                 1.6952
 Frc consts  --      1.5372                 1.3678                 1.7876
 IR Inten    --     55.3035                 9.0008                47.8615

                     70                     71                     72
                      A                      A                      A
 Frequencies --   1359.3875              1365.3615              1371.6214
 Red. masses --      1.4737                 1.5133                 1.9113
 Frc consts  --      1.6046                 1.6622                 2.1186
 IR Inten    --     23.8036                17.2007                19.2155

                     73                     74                     75
                      A                      A                      A
 Frequencies --   1386.1868              1400.4661              1421.7504
 Red. masses --      2.0967                 1.7158                 1.5796
 Frc consts  --      2.3737                 1.9827                 1.8813
 IR Inten    --     37.1146                64.4158                33.0695

                     76                     77                     78
                      A                      A                      A
 Frequencies --   1426.4232              1448.1962              1483.8397
 Red. masses --      1.3105                 1.2338                 3.0998
 Frc consts  --      1.5710                 1.5246                 4.0213
 IR Inten    --     14.5805                 9.9031                45.5885

                     79                     80                     81
                      A                      A                      A
 Frequencies --   1498.4582              1507.3465              1519.4608
 Red. masses --      1.2713                 1.1465                 1.0505
 Frc consts  --      1.6819                 1.5348                 1.4290
 IR Inten    --     14.7996                 2.5624                 4.6160

                     82                     83                     84
                      A                      A                      A
 Frequencies --   1520.6994              1522.0143              1532.8380
 Red. masses --      1.0482                 1.1100                 1.0523
 Frc consts  --      1.4282                 1.5150                 1.4567
 IR Inten    --      5.2236                 2.3326                 0.3973

                     85                     86                     87
                      A                      A                      A
 Frequencies --   1534.5948              1535.1352              1543.9101
 Red. masses --      1.0737                 1.1972                 1.9218
 Frc consts  --      1.4898                 1.6623                 2.6991
 IR Inten    --      3.3761                81.0640                39.6245

                     88                     89                     90
                      A                      A                      A
 Frequencies --   1555.5440              1640.5827              1678.7055
 Red. masses --      1.0482                 6.4553                 6.6724
 Frc consts  --      1.4944                10.2368                11.0786
 IR Inten    --     11.0314                34.2262                40.6722

                     91                     92                     93
                      A                      A                      A
 Frequencies --   1837.8447              3022.2884              3041.7960
 Red. masses --      9.2255                 1.0351                 1.0430
 Frc consts  --     18.3593                 5.5706                 5.6858
 IR Inten    --    191.3220                64.7786                 9.3241

                     94                     95                     96
                      A                      A                      A
 Frequencies --   3043.4922              3050.5133              3050.9556
 Red. masses --      1.0616                 1.0628                 1.0605
 Frc consts  --      5.7936                 5.8269                 5.8161
 IR Inten    --      9.4879                47.8759                50.9545

                     97                     98                     99
                      A                      A                      A
 Frequencies --   3073.8941              3079.6409              3084.5178
 Red. masses --      1.0838                 1.1064                 1.0757
 Frc consts  --      6.0334                 6.1823                 6.0301
 IR Inten    --     13.3201                44.1355                13.3688

                    100                    101                    102
                      A                      A                      A
 Frequencies --   3094.3551              3100.9919              3109.5289
 Red. masses --      1.0851                 1.1001                 1.0992
 Frc consts  --      6.1217                 6.2331                 6.2621
 IR Inten    --     32.2150                 2.7266                71.0439

                    103                    104                    105
                      A                      A                      A
 Frequencies --   3135.8302              3157.1418              3160.1517
 Red. masses --      1.1062                 1.0994                 1.0982
 Frc consts  --      6.4089                 6.4562                 6.4616
 IR Inten    --     19.5563                27.9028                12.5011

                    106                    107                    108
                      A                      A                      A
 Frequencies --   3162.3546              3184.2770              3228.3900
 Red. masses --      1.0978                 1.0896                 1.0910
 Frc consts  --      6.4685                 6.5093                 6.6997
 IR Inten    --      8.7302                17.8106                15.2846

                    109                    110                    111
                      A                      A                      A
 Frequencies --   3241.8286              3672.9392              3745.2198
 Red. masses --      1.0903                 1.0637                 1.0663
 Frc consts  --      6.7512                 8.4550                 8.8121
 IR Inten    --      2.5561                44.3813                13.3548

 - Thermochemistry -
 -------------------
 Temperature   298.150 Kelvin.  Pressure   1.00000 Atm.
 Atom     1 has atomic number  6 and mass  12.00000

 Molecular mass:   264.13616 amu.
 Principal axes and moments of inertia in atomic units:
                           1         2         3
     Eigenvalues --  3462.515106311.297727413.08604
           X            0.99983   0.00878   0.01611
           Y           -0.00926   0.99952   0.02972
           Z           -0.01584  -0.02987   0.99943
 This molecule is an asymmetric top.
 Rotational symmetry number  1.
 Warning -- assumption of classical behavior for rotation
           may cause significant error
 Rotational temperatures (Kelvin)      0.02501     0.01372     0.01168
 Rotational constants (GHZ):           0.52122     0.28595     0.24345
 Zero-point vibrational energy     869655.2 (Joules/Mol)
                                  207.85259 (Kcal/Mol)
 Warning -- explicit consideration of  30 degrees of freedom as
           vibrations may cause significant error
 Vibrational temperatures:     42.76    72.06    90.55    95.02   120.76
          (Kelvin)            146.68   210.56   231.60   258.73   310.09
                              314.24   358.72   361.47   369.92   408.00
                              419.46   451.06   483.86   492.12   502.75
                              515.10   574.98   609.02   630.61   660.47
                              687.17   709.40   805.33   861.66   888.36
                              922.06   960.56   993.89  1031.45  1072.75
                             1113.72  1145.02  1180.61  1208.97  1239.60
                             1262.07  1317.28  1334.49  1343.11  1363.00
                             1396.36  1401.25  1420.05  1448.75  1490.55
                             1537.59  1568.75  1573.62  1632.81  1646.11
                             1666.40  1700.75  1707.35  1709.64  1739.30
                             1745.47  1755.12  1778.59  1792.32  1853.08
                             1869.20  1882.01  1894.16  1924.84  1955.86
                             1964.45  1973.46  1994.41  2014.96  2045.58
                             2052.30  2083.63  2134.91  2155.95  2168.74
                             2186.17  2187.95  2189.84  2205.41  2207.94
                             2208.72  2221.34  2238.08  2360.43  2415.28
                             2644.25  4348.40  4376.47  4378.91  4389.01
                             4389.64  4422.65  4430.92  4437.93  4452.09
                             4461.64  4473.92  4511.76  4542.42  4546.75
                             4549.92  4581.46  4644.93  4664.27  5284.54
                             5388.54

 Zero-point correction=                           0.331234 (Hartree/Particle)
 Thermal correction to Energy=                    0.349933
 Thermal correction to Enthalpy=                  0.350877
 Thermal correction to Gibbs Free Energy=         0.284680
 Sum of electronic and zero-point Energies=           -884.279919
 Sum of electronic and thermal Energies=              -884.261220
 Sum of electronic and thermal Enthalpies=            -884.260276
 Sum of electronic and thermal Free Energies=         -884.326473

                     E (Thermal)             CV                S
                      KCal/Mol        Cal/Mol-Kelvin    Cal/Mol-Kelvin
 Total                  219.586             72.319            139.323
 Electronic               0.000              0.000              0.000
 Translational            0.889              2.981             42.613
 Rotational               0.889              2.981             33.449
 Vibrational            217.809             66.357             63.262
 Vibration     1          0.594              1.984              5.848
 Vibration     2          0.595              1.978              4.814
 Vibration     3          0.597              1.972              4.363
 Vibration     4          0.597              1.970              4.268
 Vibration     5          0.601              1.960              3.797
 Vibration     6          0.604              1.948              3.417
 Vibration     7          0.617              1.907              2.719
 Vibration     8          0.622              1.890              2.538
 Vibration     9          0.629              1.867              2.330
 Vibration    10          0.645              1.817              1.996
 Vibration    11          0.646              1.813              1.972
 Vibration    12          0.662              1.764              1.735
 Vibration    13          0.663              1.761              1.722
 Vibration    14          0.667              1.751              1.681
 Vibration    15          0.682              1.704              1.512
 Vibration    16          0.687              1.689              1.465
 Vibration    17          0.701              1.648              1.344
 Vibration    18          0.717              1.603              1.230
 Vibration    19          0.721              1.591              1.203
 Vibration    20          0.727              1.576              1.169
 Vibration    21          0.733              1.559              1.131
 Vibration    22          0.766              1.471              0.964
 Vibration    23          0.785              1.420              0.881
 Vibration    24          0.798              1.387              0.832
 Vibration    25          0.817              1.341              0.769
 Vibration    26          0.834              1.300              0.717
 Vibration    27          0.849              1.265              0.676
 Vibration    28          0.915              1.118              0.524
 Vibration    29          0.957              1.034              0.452
 Vibration    30          0.977              0.995              0.421

                           ! Non-Optimized Parameters !
 Normal termination of Gaussian 16 at Mon Dec 14 17:33:14 2020.

 ----------------------------------------------------------------------
 # B3LYP/6-311++G(d,p) empiricaldispersion=gd3bj scf=xqc pop=npa geom=c
 heck
 ----------------------------------------------------------------------

 --------------------------------------
 CID_79374802_JID_9562_Energie_neutraal
 --------------------------------------
 Structure from the checkpoint file:  "JID_9562.chk"
 Charge =  0 Multiplicity = 1

 SCF Done:  E(RB3LYP) =  -884.870815053     A.U. after   15 cycles
 Normal termination of Gaussian 16 at Mon Dec 14 17:43:35 2020.

 ----------------------------------------------------------------------
 # B3LYP/6-311++G(d,p) empiricaldispersion=gd3bj scf=xqc pop=npa geom=c
 heck
 ----------------------------------------------------------------------

 ------------------------------------
 CID_79374802_JID_9562_Energie_kation
 ------------------------------------
 Structure from the checkpoint file:  "JID_9562.chk"
 Charge =  1 Multiplicity = 2

 SCF Done:  E(UB3LYP) =  -884.585092121     A.U. after   25 cycles
 Normal termination of Gaussian 16 at Mon Dec 14 18:08:17 2020.
 Gaussian 16:  ES64L-G16RevA.03 25-Dec-2016

 ----------------------------------------------------------------------
 # B3LYP/6-311++G(d,p) empiricaldispersion=gd3bj scf=xqc pop=npa geom=c
 heck
 ----------------------------------------------------------------------

 -----------------------------------
 CID_79374802_JID_9562_Energie_anion
 -----------------------------------
 Structure from the checkpoint file:  "JID_9562.chk"
 Charge = -1 Multiplicity = 2

                         Standard orientation:
 ---------------------------------------------------------------------
 Center     Atomic      Atomic             Coordinates (Angstroms)
 Number     Number       Type             X           Y           Z
 ---------------------------------------------------------------------
      1          6           0       -2.673968   -2.517853   -0.023624
      2          6           0       -2.235892   -1.275821   -0.813614
      3          6           0       -3.291898   -0.958646   -1.885333
      4          6           0       -2.002106   -0.012215    0.077014
      5          6           0       -1.684748   -0.342954    1.523690
      6          8           0       -0.846694   -1.120197    1.925149
      7          8           0       -2.462807    0.368647    2.384744
      8          6           0       -0.917370    0.971770   -0.474961
      9          6           0       -1.028993    2.378183    0.151742
     10          6           0        0.367622    3.010493   -0.025094
     11          6           0        1.279721    1.805072   -0.028586
     12          6           0        0.549703    0.624289   -0.241586
     13          6           0        1.185258   -0.607320   -0.306486
     14          6           0        2.578606   -0.663619   -0.149554
     15          6           0        3.314767    0.507737    0.065247
     16          6           0        2.657676    1.742517    0.125682
     17          8           0        3.122466   -1.915808   -0.216829
     18          6           0        4.519987   -2.043380   -0.026753
     19          8           0       -1.117296    1.173726   -1.888449
     20          1           0       -3.573492   -2.304066    0.568564
     21          1           0       -1.895344   -2.869605    0.655222
     22          1           0       -2.923127   -3.328603   -0.717137
     23          1           0       -1.295724   -1.523298   -1.321759
     24          1           0       -4.271789   -0.807993   -1.414065
     25          1           0       -3.039889   -0.053553   -2.440468
     26          1           0       -3.388124   -1.793598   -2.589051
     27          1           0       -2.938703    0.555285    0.087354
     28          1           0       -2.167527    0.110947    3.279124
     29          1           0       -1.832599    2.940518   -0.331636
     30          1           0       -1.268950    2.287787    1.215366
     31          1           0        0.430237    3.543675   -0.982110
     32          1           0        0.608095    3.729931    0.765266
     33          1           0        0.646803   -1.539354   -0.423455
     34          1           0        4.389787    0.470922    0.195292
     35          1           0        3.236712    2.646316    0.298454
     36          1           0        5.084494   -1.501153   -0.797433
     37          1           0        4.826931   -1.680777    0.963349
     38          1           0        4.737794   -3.110014   -0.104167
     39          1           0       -0.641122    0.466165   -2.350330
 ---------------------------------------------------------------------

 SCF Done:  E(UB3LYP) =  -884.857579938     A.U. after   33 cycles
 SCF Done:  E(UB3LYP) =  -884.857579938     a.u. after    1 cycles

 The electronic state is 2-A.
 Alpha  occ. eigenvalues --  -19.08031 -19.06002 -19.04042 -19.02561 -10.21721
 Alpha  occ. eigenvalues --  -10.15606 -10.14143 -10.12780 -10.10520 -10.10007
 Alpha  occ. eigenvalues --  -10.08685 -10.08442 -10.08375 -10.08183 -10.08152
 Alpha  occ. eigenvalues --  -10.08043 -10.08013 -10.07178 -10.07131  -1.02077
 Alpha  occ. eigenvalues --   -0.97611  -0.94526  -0.93080  -0.78039  -0.73873
 Alpha  occ. eigenvalues --   -0.71870  -0.67527  -0.65408  -0.64037  -0.60484
 Alpha  occ. eigenvalues --   -0.59927  -0.57684  -0.53525  -0.53043  -0.49119
 Alpha  occ. eigenvalues --   -0.48659  -0.46984  -0.45131  -0.42121  -0.41293
 Alpha  occ. eigenvalues --   -0.40480  -0.39603  -0.38185  -0.37632  -0.37326
 Alpha  occ. eigenvalues --   -0.36824  -0.35663  -0.34447  -0.33977  -0.33309
 Alpha  occ. eigenvalues --   -0.32721  -0.31641  -0.31329  -0.30625  -0.29647
 Alpha  occ. eigenvalues --   -0.28908  -0.28565  -0.27468  -0.26818  -0.26171
 Alpha  occ. eigenvalues --   -0.25801  -0.25546  -0.25266  -0.24379  -0.23532
 Alpha  occ. eigenvalues --   -0.22611  -0.22085  -0.19826  -0.18865  -0.16104
 Alpha  occ. eigenvalues --   -0.12765   0.04054
 Alpha virt. eigenvalues --    0.05481   0.06011   0.06802   0.06883   0.07429
 Alpha virt. eigenvalues --    0.07954   0.08328   0.08474   0.08891   0.09566
 Alpha virt. eigenvalues --    0.09597   0.09916   0.10412   0.10682   0.11648

  Beta  occ. eigenvalues --  -19.07987 -19.05993 -19.04029 -19.02549 -10.21720
  Beta  occ. eigenvalues --  -10.15602 -10.14141 -10.12735 -10.10511 -10.10001
  Beta  occ. eigenvalues --  -10.08682 -10.08431 -10.08367 -10.08183 -10.08138
  Beta  occ. eigenvalues --  -10.08035 -10.08011 -10.07162 -10.07117  -1.02023
  Beta  occ. eigenvalues --   -0.97592  -0.94497  -0.93033  -0.78028  -0.73854
  Beta  occ. eigenvalues --   -0.71854  -0.67508  -0.65380  -0.64009  -0.60443
  Beta  occ. eigenvalues --   -0.59896  -0.57643  -0.53460  -0.53018  -0.49085
  Beta  occ. eigenvalues --   -0.48631  -0.46931  -0.45097  -0.42098  -0.41265
  Beta  occ. eigenvalues --   -0.40459  -0.39581  -0.38159  -0.37601  -0.37301
  Beta  occ. eigenvalues --   -0.36803  -0.35645  -0.34425  -0.33950  -0.33271
  Beta  occ. eigenvalues --   -0.32690  -0.31620  -0.31305  -0.30603  -0.29627
  Beta  occ. eigenvalues --   -0.28884  -0.28545  -0.27447  -0.26795  -0.26154
  Beta  occ. eigenvalues --   -0.25779  -0.25530  -0.25236  -0.24348  -0.23502
  Beta  occ. eigenvalues --   -0.22593  -0.22063  -0.19803  -0.18836  -0.16092
  Beta  occ. eigenvalues --   -0.12748
  Beta virt. eigenvalues --    0.05943   0.06526   0.06723   0.07038   0.07137
  Beta virt. eigenvalues --    0.07819   0.08157   0.08580   0.08688   0.08981
  Beta virt. eigenvalues --    0.09870   0.09976   0.10400   0.10467   0.10877

 Mulliken charges and spin densities:
               1          2
     1  C   -0.213240  -0.449184
     2  C   -1.215692   1.293675
     3  C    0.172323  -0.771646
     4  C    2.148200  -1.716845
     5  C   -0.560634  -0.006119
     6  O   -0.244166   0.023131
     7  O   -0.118379   0.040254
     8  C   -0.657652   0.287671
     9  C    0.094093  -0.463160
    10  C    0.261983  -0.833422
    11  C    0.752306  -0.497663
    12  C   -0.942206   1.417230
    13  C   -0.574143  -0.016125
    14  C    0.127861  -0.538581
    15  C   -0.154634   0.531501
    16  C    0.532461  -0.902397
    17  O   -0.165852   0.050320
    18  C    0.823515  -1.141050
    19  O   -0.057991   0.003391
    20  H   -0.001291   0.142657
    21  H    0.118632   0.044748
    22  H   -0.045436   0.197329
    23  H   -0.161032   0.270164
    24  H    0.058998   0.076128
    25  H    0.037910   0.118623
    26  H   -0.076046   0.217681
    27  H    0.205661   0.099098
    28  H   -0.403197   0.686608
    29  H    0.090726   0.092472
    30  H    0.101547   0.101564
    31  H    0.156864   0.017240
    32  H   -0.016290   0.185686
    33  H    0.462682  -0.153699
    34  H   -0.423013   0.617454
    35  H   -0.311801   0.474952
    36  H   -0.311666   0.459036
    37  H   -0.185275   0.336120
    38  H   -0.402477   0.573200
    39  H    0.096351   0.131956
 Sum of Mulliken charges =  -1.00000   1.00000

 Dipole moment (field-independent basis, Debye):
    X=             -4.3753    Y=              1.9919    Z=             -2.4358  Tot=              5.3893
 Quadrupole moment (field-independent basis, Debye-Ang):
   XX=           -203.7621   YY=           -156.2805   ZZ=           -161.9627
   XY=              7.2867   XZ=              5.0479   YZ=             -0.6589

 Summary of Natural Population Analysis:

                                       Natural Population
                Natural  -----------------------------------------------
    Atom  No    Charge         Core      Valence    Rydberg      Total
 -----------------------------------------------------------------------
      C    1   -0.28813      0.99965     2.28362    0.00487     3.28813
      C    2   -0.11205      0.99961     2.10072    0.01172     3.11205
      C    3   -0.28484      0.99964     2.28026    0.00493     3.28484
      C    4   -0.16084      0.99948     2.14659    0.01478     3.16084
      C    5    0.41337      0.99967     1.56007    0.02688     2.58663
      O    6   -0.30128      0.99987     3.29510    0.00632     4.30128
      O    7   -0.34573      0.99988     3.33908    0.00677     4.34573
      C    8    0.13962      0.99946     1.84517    0.01575     2.86038
      C    9   -0.18860      0.99959     2.18077    0.00824     3.18860
      C   10   -0.19422      0.99961     2.18762    0.00699     3.19422
      C   11   -0.02083      0.99947     2.01100    0.01037     3.02083
      C   12   -0.02806      0.99943     2.01706    0.01157     3.02806
      C   13   -0.11084      0.99947     2.10181    0.00956     3.11084
      C   14    0.16305      0.99939     1.82387    0.01368     2.83695
      C   15   -0.13784      0.99952     2.12957    0.00874     3.13784
      C   16   -0.08897      0.99952     2.07986    0.00959     3.08897
      O   17   -0.27229      0.99986     3.26271    0.00973     4.27229
      C   18   -0.10067      0.99960     2.09196    0.00911     3.10067
      O   19   -0.37372      0.99989     3.36729    0.00653     4.37372
      H   20    0.09668      0.00000     0.40242    0.00090     0.40332
      H   21    0.11097      0.00000     0.38793    0.00110     0.38903
      H   22    0.09917      0.00000     0.40000    0.00083     0.40083
      H   23    0.09345      0.00000     0.40424    0.00231     0.40655
      H   24    0.09478      0.00000     0.40427    0.00096     0.40522
      H   25    0.11030      0.00000     0.38872    0.00098     0.38970
      H   26    0.09784      0.00000     0.40125    0.00091     0.40216
      H   27    0.11259      0.00000     0.38535    0.00206     0.38741
      H   28    0.24365      0.00000     0.24525    0.01110     0.25635
      H   29    0.10454      0.00000     0.39439    0.00107     0.39546
      H   30    0.10620      0.00000     0.39225    0.00155     0.39380
      H   31    0.10415      0.00000     0.39460    0.00126     0.39585
      H   32    0.10223      0.00000     0.39666    0.00111     0.39777
      H   33    0.11077      0.00000     0.38703    0.00219     0.38923
      H   34    0.10751      0.00000     0.39078    0.00170     0.39249
      H   35    0.10014      0.00000     0.39846    0.00140     0.39986
      H   36    0.08527      0.00000     0.41273    0.00200     0.41473
      H   37    0.08582      0.00000     0.41250    0.00169     0.41418
      H   38    0.09399      0.00000     0.40484    0.00117     0.40601
      H   39    0.23279      0.00000     0.26461    0.00260     0.26721
 =======================================================================
   * Total *    0.00000     18.99259    51.77239    0.23502    71.00000

 Normal termination of Gaussian 16 at Mon Dec 14 18:40:17 2020.
