 Gaussian 16, Revision A.03,

 -----------------------------------------------------------
 # opt freq B3LYP/6-31G(d) empiricaldispersion=gd3bj scf=xqc
 -----------------------------------------------------------

 ------------------------------
 CID_82491721_JID_5699_neutraal
 ------------------------------
 Symbolic Z-matrix:
 Charge =  0 Multiplicity = 1

 SCF Done:  E(RB3LYP) =  -670.357409369     A.U. after   15 cycles
 SCF Done:  E(RB3LYP) =  -670.360957007     A.U. after   12 cycles
 SCF Done:  E(RB3LYP) =  -670.361138523     A.U. after   11 cycles
 SCF Done:  E(RB3LYP) =  -670.361150051     A.U. after    9 cycles
 SCF Done:  E(RB3LYP) =  -670.361150799     A.U. after    9 cycles
 SCF Done:  E(RB3LYP) =  -670.361156421     A.U. after    9 cycles
 SCF Done:  E(RB3LYP) =  -670.361156625     A.U. after    8 cycles
 SCF Done:  E(RB3LYP) =  -670.361156705     A.U. after    7 cycles
 SCF Done:  E(RB3LYP) =  -670.361156742     A.U. after    7 cycles
 SCF Done:  E(RB3LYP) =  -670.361156767     A.U. after    7 cycles
 Optimization completed.
    -- Stationary point found.
 Normal termination of Gaussian 16 at Thu Dec 10 16:36:53 2020.

 --------------------------------------------------------------------
 #N Geom=AllCheck Guess=TCheck SCRF=Check GenChk RB3LYP/6-31G(d) Freq
 --------------------------------------------------------------------

 Structure from the checkpoint file:  "JID_5699.chk"
 ------------------------------
 CID_82491721_JID_5699_neutraal
 ------------------------------
 Charge =  0 Multiplicity = 1

 SCF Done:  E(RB3LYP) =  -670.361156767     A.U. after    1 cycles

  Exact polarizability: 199.768  -1.234 158.228   0.001  -0.003  64.813
 Approx polarizability: 302.766  -9.111 257.535   0.006  -0.007  99.518

                      1                      2                      3
                      A                      A                      A
 Frequencies --     57.5841                70.4638                89.3663
 Red. masses --      3.5472                 3.1726                 4.6009
 Frc consts  --      0.0069                 0.0093                 0.0216
 IR Inten    --      0.1362                 8.0234                 3.2195

                      4                      5                      6
                      A                      A                      A
 Frequencies --    108.6259               134.4093               164.5979
 Red. masses --      1.0626                 4.7213                 3.9741
 Frc consts  --      0.0074                 0.0503                 0.0634
 IR Inten    --      0.0611                 0.7377                 0.3540

                      7                      8                      9
                      A                      A                      A
 Frequencies --    193.1777               217.3967               219.9741
 Red. masses --      1.7343                 1.3454                 2.9116
 Frc consts  --      0.0381                 0.0375                 0.0830
 IR Inten    --      0.5687                 0.7014                 1.6835

                     10                     11                     12
                      A                      A                      A
 Frequencies --    251.3803               257.0624               293.5016
 Red. masses --      1.7456                 3.2187                 2.2523
 Frc consts  --      0.0650                 0.1253                 0.1143
 IR Inten    --      2.0972                 5.8739                 3.3971

                     13                     14                     15
                      A                      A                      A
 Frequencies --    330.6267               366.8394               375.9273
 Red. masses --      4.5204                 4.8558                 5.1862
 Frc consts  --      0.2911                 0.3850                 0.4318
 IR Inten    --      5.1273                 5.0458                 2.6422

                     16                     17                     18
                      A                      A                      A
 Frequencies --    425.8933               428.8092               504.6124
 Red. masses --      1.4699                 4.6824                 4.4938
 Frc consts  --      0.1571                 0.5073                 0.6742
 IR Inten    --     76.0943                 0.7483                 5.3234

                     19                     20                     21
                      A                      A                      A
 Frequencies --    531.9504               535.3690               572.8807
 Red. masses --      3.2983                 5.0304                 2.4943
 Frc consts  --      0.5499                 0.8495                 0.4823
 IR Inten    --      4.5902                 1.8564                12.1862

                     22                     23                     24
                      A                      A                      A
 Frequencies --    623.4275               631.2111               652.1051
 Red. masses --      3.8085                 2.7927                 3.8025
 Frc consts  --      0.8721                 0.6556                 0.9527
 IR Inten    --     27.7884                 1.2539                 6.3939

                     25                     26                     27
                      A                      A                      A
 Frequencies --    672.0807               705.6246               767.6845
 Red. masses --      2.7646                 5.5266                 5.6503
 Frc consts  --      0.7357                 1.6213                 1.9619
 IR Inten    --      1.1973                 5.7346                 0.0350

                     28                     29                     30
                      A                      A                      A
 Frequencies --    818.3396               838.1006               858.0799
 Red. masses --      4.9964                 1.3964                 1.3777
 Frc consts  --      1.9714                 0.5779                 0.5977
 IR Inten    --      3.9517                16.6687                15.4077

                     31                     32                     33
                      A                      A                      A
 Frequencies --    867.3097               943.6795               975.3862
 Red. masses --      1.5175                 5.1404                 2.5754
 Frc consts  --      0.6726                 2.6971                 1.4436
 IR Inten    --     12.4784                18.6532                35.4765

                     34                     35                     36
                      A                      A                      A
 Frequencies --    991.4527              1027.7159              1055.8282
 Red. masses --      3.3185                 1.6728                 1.8251
 Frc consts  --      1.9219                 1.0410                 1.1987
 IR Inten    --      1.5002                 9.8466                 4.2875

                     37                     38                     39
                      A                      A                      A
 Frequencies --   1073.3092              1087.4643              1109.4680
 Red. masses --      1.4744                 2.5785                 1.8192
 Frc consts  --      1.0007                 1.7965                 1.3193
 IR Inten    --      2.2703                45.5323                19.6274

                     40                     41                     42
                      A                      A                      A
 Frequencies --   1150.3942              1173.1838              1186.6016
 Red. masses --      1.8790                 2.4594                 1.2697
 Frc consts  --      1.4651                 1.9944                 1.0534
 IR Inten    --     90.4266                69.3911                 0.7512

                     43                     44                     45
                      A                      A                      A
 Frequencies --   1222.0393              1253.2352              1270.7180
 Red. masses --      1.4621                 2.2342                 1.7759
 Frc consts  --      1.2865                 2.0674                 1.6895
 IR Inten    --      1.2612               139.5418                17.0599

                     46                     47                     48
                      A                      A                      A
 Frequencies --   1316.4287              1341.4522              1383.1674
 Red. masses --      3.6669                 2.7444                 3.5927
 Frc consts  --      3.7440                 2.9097                 4.0497
 IR Inten    --     38.6737               104.3964                29.6554

                     49                     50                     51
                      A                      A                      A
 Frequencies --   1394.3515              1415.1591              1441.5977
 Red. masses --      5.4957                 1.6349                 1.2933
 Frc consts  --      6.2953                 1.9291                 1.5836
 IR Inten    --     82.3283                47.3164                 1.6758

                     52                     53                     54
                      A                      A                      A
 Frequencies --   1461.5811              1475.5337              1500.3467
 Red. masses --      2.6384                 2.4951                 1.0698
 Frc consts  --      3.3207                 3.2006                 1.4189
 IR Inten    --     79.6076                61.3885                25.4466

                     55                     56                     57
                      A                      A                      A
 Frequencies --   1504.8691              1506.0686              1514.2972
 Red. masses --      1.3274                 1.0481                 1.0437
 Frc consts  --      1.7711                 1.4006                 1.4101
 IR Inten    --     11.3992                 8.8229                 7.7113

                     58                     59                     60
                      A                      A                      A
 Frequencies --   1521.2237              1528.0291              1536.6079
 Red. masses --      1.0482                 2.2289                 1.2098
 Frc consts  --      1.4292                 3.0662                 1.6831
 IR Inten    --      4.1521                91.2420                 8.5617

                     61                     62                     63
                      A                      A                      A
 Frequencies --   1540.8968              1569.2787              1649.9678
 Red. masses --      1.3589                 4.8029                 5.7144
 Frc consts  --      1.9011                 6.9688                 9.1658
 IR Inten    --      5.8992               211.1642                84.6137

                     64                     65                     66
                      A                      A                      A
 Frequencies --   1681.4571              1755.4754              3019.3394
 Red. masses --      6.9826                10.1593                 1.0352
 Frc consts  --     11.6316                18.4460                 5.5605
 IR Inten    --     59.1509               251.8477                66.6799

                     67                     68                     69
                      A                      A                      A
 Frequencies --   3031.2000              3050.7007              3075.5281
 Red. masses --      1.0397                 1.0376                 1.1064
 Frc consts  --      5.6283                 5.6896                 6.1657
 IR Inten    --     38.0843                 2.7480                42.1162

                     70                     71                     72
                      A                      A                      A
 Frequencies --   3076.9456              3111.4135              3131.7781
 Red. masses --      1.1010                 1.0999                 1.0979
 Frc consts  --      6.1415                 6.2737                 6.3443
 IR Inten    --     29.5163                10.0470                15.3222

                     73                     74                     75
                      A                      A                      A
 Frequencies --   3154.1795              3166.1645              3223.2870
 Red. masses --      1.0990                 1.1017                 1.0889
 Frc consts  --      6.4418                 6.5069                 6.6658
 IR Inten    --     30.1849                18.4626                10.1677

                     76                     77                     78
                      A                      A                      A
 Frequencies --   3246.0243              3292.4006              3668.6271
 Red. masses --      1.0900                 1.0969                 1.0799
 Frc consts  --      6.7667                 7.0058                 8.5637
 IR Inten    --      3.2216                 2.2486                67.2244

 - Thermochemistry -
 -------------------
 Temperature   298.150 Kelvin.  Pressure   1.00000 Atm.
 Atom     1 has atomic number  6 and mass  12.00000

 Molecular mass:   203.09463 amu.
 Principal axes and moments of inertia in atomic units:
                           1         2         3
     Eigenvalues --  1947.821404215.668806129.49992
           X            0.99986   0.01659  -0.00000
           Y           -0.01659   0.99986   0.00000
           Z            0.00000  -0.00000   1.00000
 This molecule is an asymmetric top.
 Rotational symmetry number  1.
 Warning -- assumption of classical behavior for rotation
           may cause significant error
 Rotational temperatures (Kelvin)      0.04447     0.02055     0.01413
 Rotational constants (GHZ):           0.92654     0.42810     0.29444
 Zero-point vibrational energy     600347.5 (Joules/Mol)
                                  143.48650 (Kcal/Mol)
 Warning -- explicit consideration of  21 degrees of freedom as
           vibrations may cause significant error
 Vibrational temperatures:     82.85   101.38   128.58   156.29   193.39
          (Kelvin)            236.82   277.94   312.79   316.49   361.68
                              369.86   422.28   475.70   527.80   540.88
                              612.77   616.96   726.02   765.36   770.28
                              824.25   896.97   908.17   938.23   966.97
                             1015.24  1104.53  1177.41  1205.84  1234.59
                             1247.87  1357.74  1403.36  1426.48  1478.65
                             1519.10  1544.25  1564.62  1596.28  1655.16
                             1687.95  1707.26  1758.24  1803.13  1828.28
                             1894.05  1930.05  1990.07  2006.16  2036.10
                             2074.14  2102.89  2122.96  2158.66  2165.17
                             2166.90  2178.74  2188.70  2198.49  2210.84
                             2217.01  2257.84  2373.94  2419.24  2525.74
                             4344.16  4361.22  4389.28  4425.00  4427.04
                             4476.63  4505.93  4538.16  4555.40  4637.59
                             4670.30  4737.03  5278.34

 Zero-point correction=                           0.228660 (Hartree/Particle)
 Thermal correction to Energy=                    0.242800
 Thermal correction to Enthalpy=                  0.243744
 Thermal correction to Gibbs Free Energy=         0.187917
 Sum of electronic and zero-point Energies=           -670.132496
 Sum of electronic and thermal Energies=              -670.118357
 Sum of electronic and thermal Enthalpies=            -670.117413
 Sum of electronic and thermal Free Energies=         -670.173240

                     E (Thermal)             CV                S
                      KCal/Mol        Cal/Mol-Kelvin    Cal/Mol-Kelvin
 Total                  152.359             53.610            117.497
 Electronic               0.000              0.000              0.000
 Translational            0.889              2.981             41.830
 Rotational               0.889              2.981             32.287
 Vibrational            150.582             47.649             43.380
 Vibration     1          0.596              1.974              4.538
 Vibration     2          0.598              1.968              4.140
 Vibration     3          0.602              1.957              3.674
 Vibration     4          0.606              1.942              3.293
 Vibration     5          0.613              1.919              2.882
 Vibration     6          0.623              1.886              2.496
 Vibration     7          0.635              1.849              2.197
 Vibration     8          0.646              1.815              1.981
 Vibration     9          0.647              1.811              1.959
 Vibration    10          0.663              1.760              1.721
 Vibration    11          0.667              1.751              1.682
 Vibration    12          0.688              1.686              1.454
 Vibration    13          0.713              1.614              1.257
 Vibration    14          0.740              1.540              1.093
 Vibration    15          0.747              1.521              1.056
 Vibration    16          0.788              1.414              0.872
 Vibration    17          0.790              1.408              0.863
 Vibration    18          0.860              1.240              0.647
 Vibration    19          0.887              1.179              0.583
 Vibration    20          0.890              1.172              0.575
 Vibration    21          0.929              1.090              0.499

                           ! Non-Optimized Parameters !
 Normal termination of Gaussian 16 at Thu Dec 10 16:46:32 2020.

 ----------------------------------------------------------------------
 # B3LYP/6-311++G(d,p) empiricaldispersion=gd3bj scf=xqc pop=npa geom=c
 heck
 ----------------------------------------------------------------------

 --------------------------------------
 CID_82491721_JID_5699_Energie_neutraal
 --------------------------------------
 Structure from the checkpoint file:  "JID_5699.chk"
 Charge =  0 Multiplicity = 1

 SCF Done:  E(RB3LYP) =  -670.544353071     A.U. after   15 cycles
 Normal termination of Gaussian 16 at Thu Dec 10 16:50:37 2020.

 ----------------------------------------------------------------------
 # B3LYP/6-311++G(d,p) empiricaldispersion=gd3bj scf=xqc pop=npa geom=c
 heck
 ----------------------------------------------------------------------

 ------------------------------------
 CID_82491721_JID_5699_Energie_kation
 ------------------------------------
 Structure from the checkpoint file:  "JID_5699.chk"
 Charge =  1 Multiplicity = 2

 SCF Done:  E(UB3LYP) =  -670.269851796     A.U. after   23 cycles
 Normal termination of Gaussian 16 at Thu Dec 10 16:59:42 2020.
 Gaussian 16:  ES64L-G16RevA.03 25-Dec-2016

 ----------------------------------------------------------------------
 # B3LYP/6-311++G(d,p) empiricaldispersion=gd3bj scf=xqc pop=npa geom=c
 heck
 ----------------------------------------------------------------------

 -----------------------------------
 CID_82491721_JID_5699_Energie_anion
 -----------------------------------
 Structure from the checkpoint file:  "JID_5699.chk"
 Charge = -1 Multiplicity = 2

                         Standard orientation:
 ---------------------------------------------------------------------
 Center     Atomic      Atomic             Coordinates (Angstroms)
 Number     Number       Type             X           Y           Z
 ---------------------------------------------------------------------
      1          6           0        1.977941    2.939903   -0.000015
      2          6           0        1.441075    1.532068    0.000101
      3          6           0        2.280870    0.418496    0.000154
      4          6           0        1.758844   -0.891838    0.000121
      5          6           0        0.384588   -1.124637    0.000063
      6          6           0       -0.488678   -0.029056    0.000033
      7          6           0        0.067909    1.279129    0.000036
      8          7           0       -0.991559    2.182139   -0.000057
      9          6           0       -2.172029    1.500817   -0.000101
     10          6           0       -1.931619    0.137704   -0.000023
     11          6           0       -3.031555   -0.836080   -0.000021
     12          8           0       -4.201921   -0.466434   -0.000046
     13          6           0       -2.683927   -2.313297    0.000023
     14          8           0        2.542794   -2.016137    0.000221
     15          6           0        3.948413   -1.853794   -0.000323
     16          1           0        1.645550    3.498694   -0.885216
     17          1           0        1.643004    3.499810    0.883516
     18          1           0        3.071418    2.944966    0.001569
     19          1           0        3.352088    0.581291    0.000261
     20          1           0        0.037031   -2.149689    0.000062
     21          1           0       -0.899315    3.185921   -0.000032
     22          1           0       -3.127036    2.005052   -0.000168
     23          1           0       -2.086051   -2.570184   -0.882619
     24          1           0       -2.086194   -2.570151    0.882773
     25          1           0       -3.606176   -2.896963   -0.000035
     26          1           0        4.295602   -1.318725   -0.894753
     27          1           0        4.296323   -1.318857    0.893909
     28          1           0        4.366698   -2.862065   -0.000552
 ---------------------------------------------------------------------

 SCF Done:  E(UB3LYP) =  -670.535719603     A.U. after   33 cycles
 SCF Done:  E(UB3LYP) =  -670.535719603     a.u. after    1 cycles

 The electronic state is 2-A.
 Alpha  occ. eigenvalues --  -19.03002 -18.91977 -14.21074 -10.12054 -10.08925
 Alpha  occ. eigenvalues --  -10.07117 -10.05954 -10.05775 -10.03853 -10.03362
 Alpha  occ. eigenvalues --  -10.03108 -10.02906 -10.02328 -10.01764 -10.00155
 Alpha  occ. eigenvalues --   -0.94528  -0.85699  -0.83475  -0.70954  -0.66026
 Alpha  occ. eigenvalues --   -0.63210  -0.59886  -0.58398  -0.57915  -0.55491
 Alpha  occ. eigenvalues --   -0.47704  -0.46924  -0.45658  -0.40537  -0.39163
 Alpha  occ. eigenvalues --   -0.36405  -0.35994  -0.35609  -0.32928  -0.31375
 Alpha  occ. eigenvalues --   -0.31236  -0.30048  -0.29209  -0.28848  -0.27543
 Alpha  occ. eigenvalues --   -0.27109  -0.26682  -0.25304  -0.24512  -0.24101
 Alpha  occ. eigenvalues --   -0.22800  -0.22403  -0.19969  -0.19689  -0.17215
 Alpha  occ. eigenvalues --   -0.13341  -0.08264  -0.07997  -0.06596   0.06358
 Alpha virt. eigenvalues --    0.06935   0.07762   0.09595   0.10376   0.10436
 Alpha virt. eigenvalues --    0.10853   0.11487   0.12348   0.12438   0.12588
 Alpha virt. eigenvalues --    0.13608   0.14035   0.14490   0.14828   0.15402

  Beta  occ. eigenvalues --  -19.03003 -18.91731 -14.20984 -10.12048 -10.08890
  Beta  occ. eigenvalues --  -10.06834 -10.05971 -10.05837 -10.03594 -10.03373
  Beta  occ. eigenvalues --  -10.03098 -10.02354 -10.02310 -10.01646 -10.00209
  Beta  occ. eigenvalues --   -0.94513  -0.85203  -0.83159  -0.70728  -0.65787
  Beta  occ. eigenvalues --   -0.63107  -0.59694  -0.58283  -0.57511  -0.55362
  Beta  occ. eigenvalues --   -0.47413  -0.46357  -0.45507  -0.40365  -0.39049
  Beta  occ. eigenvalues --   -0.36229  -0.35945  -0.35310  -0.32706  -0.31154
  Beta  occ. eigenvalues --   -0.31050  -0.29893  -0.28714  -0.28668  -0.27451
  Beta  occ. eigenvalues --   -0.26581  -0.26479  -0.25207  -0.24365  -0.23747
  Beta  occ. eigenvalues --   -0.22624  -0.22281  -0.19612  -0.18743  -0.16569
  Beta  occ. eigenvalues --   -0.12696  -0.08049  -0.06916  -0.05450
  Beta virt. eigenvalues --    0.06852   0.07697   0.09465   0.10302   0.10402
  Beta virt. eigenvalues --    0.10756   0.11453   0.12030   0.12244   0.12513
  Beta virt. eigenvalues --    0.13951   0.13963   0.14224   0.14429   0.14662

 Mulliken charges and spin densities:
               1          2
     1  C   -0.542741  -0.056455
     2  C    0.208079   0.145851
     3  C    0.079808   0.050811
     4  C   -0.701280   0.002578
     5  C   -1.277667   0.102968
     6  C    0.946406  -0.006680
     7  C   -0.567759  -0.046766
     8  N   -0.055976   0.018786
     9  C   -0.008670   0.481036
    10  C    1.178989  -0.072357
    11  C   -0.624435   0.181558
    12  O   -0.412593   0.095321
    13  C   -0.425380  -0.034070
    14  O   -0.171854   0.001809
    15  C   -0.299362  -0.016550
    16  H    0.088714   0.056262
    17  H    0.088787   0.055852
    18  H    0.124933   0.000634
    19  H    0.066709  -0.002113
    20  H    0.131332  -0.008274
    21  H    0.263584  -0.002302
    22  H    0.167531  -0.041555
    23  H    0.104796   0.032280
    24  H    0.104759   0.032328
    25  H    0.149438  -0.000582
    26  H    0.119589   0.015072
    27  H    0.119602   0.015043
    28  H    0.144659  -0.000487
 Sum of Mulliken charges =  -1.00000   1.00000

 Dipole moment (field-independent basis, Debye):
    X=              8.0791    Y=              1.4094    Z=              0.0004  Tot=              8.2011
 Quadrupole moment (field-independent basis, Debye-Ang):
   XX=           -140.9059   YY=           -100.2824   ZZ=           -100.4263
   XY=             -5.0435   XZ=             -0.0001   YZ=              0.0069

 Summary of Natural Population Analysis:

                                       Natural Population
                Natural  -----------------------------------------------
    Atom  No    Charge         Core      Valence    Rydberg      Total
 -----------------------------------------------------------------------
      C    1   -0.29054      0.99960     2.28525    0.00569     3.29054
      C    2    0.01809      0.99935     1.97423    0.00834     2.98191
      C    3   -0.16373      0.99952     2.15523    0.00897     3.16373
      C    4    0.15554      0.99940     1.83319    0.01187     2.84446
      C    5   -0.11571      0.99950     2.10754    0.00867     3.11571
      C    6   -0.02577      0.99950     2.01803    0.00825     3.02577
      C    7    0.04990      0.99945     1.94002    0.01063     2.95010
      N    8   -0.26381      0.99966     2.75672    0.00743     3.76381
      C    9    0.15363      0.99958     1.83453    0.01226     2.84637
      C   10   -0.13270      0.99938     2.12161    0.01171     3.13270
      C   11    0.30515      0.99963     1.67593    0.01929     2.69485
      O   12   -0.30150      0.99988     3.29472    0.00691     4.30150
      C   13   -0.33003      0.99964     2.32621    0.00417     3.33003
      O   14   -0.28020      0.99985     3.27075    0.00960     4.28020
      C   15   -0.09844      0.99962     2.09040    0.00842     3.09844
      H   16    0.09768      0.00000     0.40067    0.00165     0.40232
      H   17    0.09765      0.00000     0.40069    0.00165     0.40235
      H   18    0.09648      0.00000     0.40262    0.00089     0.40352
      H   19    0.09198      0.00000     0.40694    0.00108     0.40802
      H   20    0.10386      0.00000     0.39492    0.00121     0.39614
      H   21    0.19105      0.00000     0.30723    0.00172     0.30895
      H   22    0.09353      0.00000     0.40555    0.00092     0.40647
      H   23    0.10302      0.00000     0.39586    0.00113     0.39698
      H   24    0.10302      0.00000     0.39586    0.00113     0.39698
      H   25    0.09904      0.00000     0.39946    0.00150     0.40096
      H   26    0.07891      0.00000     0.41928    0.00181     0.42109
      H   27    0.07890      0.00000     0.41929    0.00181     0.42110
      H   28    0.08511      0.00000     0.41403    0.00086     0.41489
 =======================================================================
   * Total *    0.00010     14.99358    38.84675    0.15957    53.99990

 Normal termination of Gaussian 16 at Thu Dec 10 17:13:16 2020.
