 Gaussian 16, Revision A.03,

 -----------------------------------------------------------
 # opt freq B3LYP/6-31G(d) empiricaldispersion=gd3bj scf=xqc
 -----------------------------------------------------------

 ------------------------------
 CID_153042286_JID_929_neutraal
 ------------------------------
 Symbolic Z-matrix:
 Charge =  0 Multiplicity = 1

 SCF Done:  E(RB3LYP) =  -471.095677711     A.U. after   16 cycles
 SCF Done:  E(RB3LYP) =  -471.099432614     A.U. after   14 cycles
 SCF Done:  E(RB3LYP) =  -471.099879513     A.U. after   13 cycles
 SCF Done:  E(RB3LYP) =  -471.100081487     A.U. after   12 cycles
 SCF Done:  E(RB3LYP) =  -471.100149296     A.U. after   11 cycles
 SCF Done:  E(RB3LYP) =  -471.100197950     A.U. after   11 cycles
 SCF Done:  E(RB3LYP) =  -471.100217316     A.U. after   11 cycles
 SCF Done:  E(RB3LYP) =  -471.100245645     A.U. after   11 cycles
 SCF Done:  E(RB3LYP) =  -471.100259220     A.U. after   11 cycles
 SCF Done:  E(RB3LYP) =  -471.100261577     A.U. after   10 cycles
 SCF Done:  E(RB3LYP) =  -471.100261817     A.U. after    8 cycles
 Optimization completed.
    -- Stationary point found.
 Normal termination of Gaussian 16 at Tue Dec  8 13:39:48 2020.

 --------------------------------------------------------------------
 #N Geom=AllCheck Guess=TCheck SCRF=Check GenChk RB3LYP/6-31G(d) Freq
 --------------------------------------------------------------------

 Structure from the checkpoint file:  "JID_929.chk"
 ------------------------------
 CID_153042286_JID_929_neutraal
 ------------------------------
 Charge =  0 Multiplicity = 1

 SCF Done:  E(RB3LYP) =  -471.100261817     A.U. after    1 cycles

  Exact polarizability: 109.153   2.233  76.877  -0.238  -3.097  45.977
 Approx polarizability: 177.380  -0.225 131.647  -1.827  -3.041  71.078

                      1                      2                      3
                      A                      A                      A
 Frequencies --     66.4674               140.9793               154.8848
 Red. masses --      9.4494                 9.8276                 7.7676
 Frc consts  --      0.0246                 0.1151                 0.1098
 IR Inten    --      4.7320                 0.9372                 3.4865

                      4                      5                      6
                      A                      A                      A
 Frequencies --    254.2299               284.0082               337.8300
 Red. masses --      3.9875                 2.6536                 7.7949
 Frc consts  --      0.1518                 0.1261                 0.5242
 IR Inten    --      5.3157                 5.3768                 2.4840

                      7                      8                      9
                      A                      A                      A
 Frequencies --    386.2822               446.8912               465.8488
 Red. masses --      6.3984                 2.7563                 7.8120
 Frc consts  --      0.5625                 0.3243                 0.9989
 IR Inten    --      9.2251                 5.4244                 5.7544

                     10                     11                     12
                      A                      A                      A
 Frequencies --    504.4549               582.2979               615.4971
 Red. masses --      1.4556                 6.6693                 2.8117
 Frc consts  --      0.2182                 1.3324                 0.6276
 IR Inten    --     79.0336                 4.4806                17.6421

                     13                     14                     15
                      A                      A                      A
 Frequencies --    647.1913               722.6636               765.2998
 Red. masses --      6.5867                 4.2459                 5.9835
 Frc consts  --      1.6255                 1.3065                 2.0647
 IR Inten    --      5.3071                19.1909                 0.3262

                     16                     17                     18
                      A                      A                      A
 Frequencies --    782.1664               846.8470               934.4254
 Red. masses --      5.8509                 2.0125                 3.7995
 Frc consts  --      2.1090                 0.8504                 1.9546
 IR Inten    --     11.0638                39.5688                 9.3106

                     19                     20                     21
                      A                      A                      A
 Frequencies --   1018.6402              1021.3138              1047.6320
 Red. masses --      3.8678                 1.2764                 2.2891
 Frc consts  --      2.3646                 0.7844                 1.4803
 IR Inten    --      8.8785                 4.9975                 6.8008

                     22                     23                     24
                      A                      A                      A
 Frequencies --   1160.9874              1188.0563              1236.2415
 Red. masses --      3.0208                 4.3177                 1.2410
 Frc consts  --      2.3990                 3.5907                 1.1175
 IR Inten    --     70.2514                44.6335                19.0807

                     25                     26                     27
                      A                      A                      A
 Frequencies --   1312.8935              1346.7181              1417.9889
 Red. masses --      1.1838                 1.9150                 1.3256
 Frc consts  --      1.2022                 2.0463                 1.5704
 IR Inten    --      9.0494                30.1488                10.2865

                     28                     29                     30
                      A                      A                      A
 Frequencies --   1446.7911              1484.5474              1524.6694
 Red. masses --      1.6437                 1.9232                 1.1094
 Frc consts  --      2.0272                 2.4973                 1.5195
 IR Inten    --     23.6739                63.1125                 5.4874

                     31                     32                     33
                      A                      A                      A
 Frequencies --   1654.9880              1693.4798              1787.9801
 Red. masses --      9.8107                 7.3696                 8.4441
 Frc consts  --     15.8322                12.4524                15.9049
 IR Inten    --     62.1647                34.0782               326.8876

                     34                     35                     36
                      A                      A                      A
 Frequencies --   2360.8505              3021.5207              3152.3115
 Red. masses --     12.6963                 1.0712                 1.0944
 Frc consts  --     41.6932                 5.7617                 6.4073
 IR Inten    --      2.0398                30.8413                21.0332

                     37                     38                     39
                      A                      A                      A
 Frequencies --   3187.2941              3219.9251              3613.8774
 Red. masses --      1.0882                 1.0932                 1.0775
 Frc consts  --      6.5132                 6.6778                 8.2912
 IR Inten    --      1.1769                 1.0928                41.2370

 - Thermochemistry -
 -------------------
 Temperature   298.150 Kelvin.  Pressure   1.00000 Atm.
 Atom     1 has atomic number  6 and mass  12.00000

 Molecular mass:   135.04326 amu.
 Principal axes and moments of inertia in atomic units:
                           1         2         3
     Eigenvalues --   612.211571967.579212339.72940
           X            0.99991   0.01301  -0.00134
           Y           -0.01304   0.99968  -0.02186
           Z            0.00106   0.02188   0.99976
 This molecule is an asymmetric top.
 Rotational symmetry number  1.
 Warning -- assumption of classical behavior for rotation
           may cause significant error
 Rotational temperatures (Kelvin)      0.14148     0.04402     0.03702
 Rotational constants (GHZ):           2.94790     0.91724     0.77135
 Zero-point vibrational energy     286128.6 (Joules/Mol)
                                   68.38638 (Kcal/Mol)
 Warning -- explicit consideration of  12 degrees of freedom as
           vibrations may cause significant error
 Vibrational temperatures:     95.63   202.84   222.84   365.78   408.62
          (Kelvin)            486.06   555.77   642.98   670.25   725.80
                              837.80   885.56   931.16  1039.75  1101.10
                             1125.36  1218.42  1344.43  1465.60  1469.44
                             1507.31  1670.40  1709.35  1778.68  1888.96
                             1937.63  2040.17  2081.61  2135.93  2193.66
                             2381.16  2436.54  2572.50  3396.74  4347.29
                             4535.47  4585.81  4632.75  5199.56

 Zero-point correction=                           0.108981 (Hartree/Particle)
 Thermal correction to Energy=                    0.117312
 Thermal correction to Enthalpy=                  0.118256
 Thermal correction to Gibbs Free Energy=         0.075422
 Sum of electronic and zero-point Energies=           -470.991281
 Sum of electronic and thermal Energies=              -470.982950
 Sum of electronic and thermal Enthalpies=            -470.982006
 Sum of electronic and thermal Free Energies=         -471.024840

                     E (Thermal)             CV                S
                      KCal/Mol        Cal/Mol-Kelvin    Cal/Mol-Kelvin
 Total                   73.614             30.827             90.152
 Electronic               0.000              0.000              0.000
 Translational            0.889              2.981             40.614
 Rotational               0.889              2.981             29.423
 Vibrational             71.837             24.865             20.116
 Vibration     1          0.598              1.970              4.255
 Vibration     2          0.615              1.912              2.791
 Vibration     3          0.620              1.897              2.611
 Vibration     4          0.665              1.756              1.701
 Vibration     5          0.682              1.703              1.509
 Vibration     6          0.718              1.600              1.222
 Vibration     7          0.755              1.499              1.014
 Vibration     8          0.806              1.368              0.805
 Vibration     9          0.823              1.326              0.749
 Vibration    10          0.860              1.240              0.647
 Vibration    11          0.939              1.070              0.481
 Vibration    12          0.975              0.999              0.424

 Optimization completed.
    -- Stationary point found.
 Normal termination of Gaussian 16 at Tue Dec  8 13:43:25 2020.

 ----------------------------------------------------------------------
 # B3LYP/6-311++G(d,p) empiricaldispersion=gd3bj scf=xqc pop=npa geom=c
 heck
 ----------------------------------------------------------------------

 --------------------------------------
 CID_153042286_JID_929_Energie_neutraal
 --------------------------------------
 Structure from the checkpoint file:  "JID_929.chk"
 Charge =  0 Multiplicity = 1

 SCF Done:  E(RB3LYP) =  -471.235886657     A.U. after   15 cycles
 Normal termination of Gaussian 16 at Tue Dec  8 13:45:37 2020.

 ----------------------------------------------------------------------
 # B3LYP/6-311++G(d,p) empiricaldispersion=gd3bj scf=xqc pop=npa geom=c
 heck
 ----------------------------------------------------------------------

 ------------------------------------
 CID_153042286_JID_929_Energie_kation
 ------------------------------------
 Structure from the checkpoint file:  "JID_929.chk"
 Charge =  1 Multiplicity = 2

 SCF Done:  E(UB3LYP) =  -470.875581841     A.U. after   28 cycles
 Normal termination of Gaussian 16 at Tue Dec  8 13:51:01 2020.
 Gaussian 16:  ES64L-G16RevA.03 25-Dec-2016

 ----------------------------------------------------------------------
 # B3LYP/6-311++G(d,p) empiricaldispersion=gd3bj scf=xqc pop=npa geom=c
 heck
 ----------------------------------------------------------------------

 -----------------------------------
 CID_153042286_JID_929_Energie_anion
 -----------------------------------
 Structure from the checkpoint file:  "JID_929.chk"
 Charge = -1 Multiplicity = 2

                         Standard orientation:
 ---------------------------------------------------------------------
 Center     Atomic      Atomic             Coordinates (Angstroms)
 Number     Number       Type             X           Y           Z
 ---------------------------------------------------------------------
      1          6           0        0.519989    1.621923    0.482186
      2          7           0        1.554151    0.951117   -0.273874
      3          6           0        1.848561   -0.382990   -0.171707
      4          8           0        2.822239   -0.894196   -0.707761
      5          6           0        0.880799   -1.220635    0.598287
      6          6           0       -0.451738   -1.043432    0.675090
      7          6           0       -1.207018    0.102774    0.129840
      8          7           0       -0.830714    1.323659    0.006084
      9          6           0       -2.563456   -0.210049   -0.285295
     10          7           0       -3.642343   -0.505767   -0.597356
     11          1           0        0.595281    1.349770    1.545622
     12          1           0        0.682378    2.695862    0.388843
     13          1           0        2.155927    1.484980   -0.887750
     14          1           0        1.318009   -2.136519    0.984032
     15          1           0       -1.059985   -1.829128    1.116952
 ---------------------------------------------------------------------

 SCF Done:  E(UB3LYP) =  -471.290234037     A.U. after   21 cycles

 The electronic state is 2-A.
 Alpha  occ. eigenvalues --  -18.94535 -14.19937 -14.15799 -14.13690 -10.12913
 Alpha  occ. eigenvalues --  -10.09833 -10.07240 -10.05793 -10.03930 -10.02345
 Alpha  occ. eigenvalues --   -0.89911  -0.81292  -0.76512  -0.74414  -0.64976
 Alpha  occ. eigenvalues --   -0.57922  -0.53161  -0.46165  -0.43487  -0.38130
 Alpha  occ. eigenvalues --   -0.35309  -0.34021  -0.31661  -0.29336  -0.27112
 Alpha  occ. eigenvalues --   -0.26137  -0.24838  -0.23271  -0.22158  -0.19182
 Alpha  occ. eigenvalues --   -0.17003  -0.14980  -0.13464  -0.11858  -0.10438
 Alpha  occ. eigenvalues --    0.01444
 Alpha virt. eigenvalues --    0.09217   0.10447   0.11671   0.11836   0.12541
 Alpha virt. eigenvalues --    0.13650   0.15004   0.15981   0.17228   0.17547
 Alpha virt. eigenvalues --    0.17838   0.19218   0.19462   0.19926   0.20747

  Beta  occ. eigenvalues --  -18.94412 -14.19831 -14.15609 -14.12888 -10.12898
  Beta  occ. eigenvalues --  -10.09862 -10.07084 -10.05815 -10.03871 -10.01958
  Beta  occ. eigenvalues --   -0.89685  -0.80736  -0.76095  -0.73710  -0.64275
  Beta  occ. eigenvalues --   -0.57518  -0.52478  -0.45775  -0.43042  -0.37805
  Beta  occ. eigenvalues --   -0.34879  -0.33560  -0.31400  -0.29033  -0.26825
  Beta  occ. eigenvalues --   -0.25582  -0.24376  -0.22231  -0.21849  -0.19030
  Beta  occ. eigenvalues --   -0.15324  -0.14081  -0.12350  -0.10216  -0.09649
  Beta virt. eigenvalues --    0.08656   0.09256   0.10489   0.11800   0.12325
  Beta virt. eigenvalues --    0.13260   0.13774   0.15045   0.16092   0.17311
  Beta virt. eigenvalues --    0.17648   0.17976   0.19256   0.19639   0.20272

 Mulliken charges and spin densities:
               1          2
     1  C   -0.338203  -0.003651
     2  N   -0.271029   0.028418
     3  C   -0.022540   0.017558
     4  O   -0.418586   0.036879
     5  C   -0.163749   0.269367
     6  C   -0.098608   0.085446
     7  C    0.640219   0.151267
     8  N   -0.108564   0.390049
     9  C   -0.718735  -0.055188
    10  N   -0.343723   0.098312
    11  H    0.130609   0.011613
    12  H    0.133040  -0.005298
    13  H    0.269580   0.001133
    14  H    0.151684  -0.021864
    15  H    0.158605  -0.004040
 Sum of Mulliken charges =  -1.00000   1.00000

 Dipole moment (field-independent basis, Debye):
    X=              3.3533    Y=              1.9462    Z=              2.3944  Tot=              4.5569
 Quadrupole moment (field-independent basis, Debye-Ang):
   XX=           -107.8370   YY=            -65.7275   ZZ=            -64.3619
   XY=              7.7302   XZ=             -1.7882   YZ=             -3.0572

 Summary of Natural Population Analysis:

                                       Natural Population
                Natural  -----------------------------------------------
    Atom  No    Charge         Core      Valence    Rydberg      Total
 -----------------------------------------------------------------------
      C    1   -0.01296      0.99964     2.00021    0.01311     3.01296
      N    2   -0.31282      0.99967     2.80039    0.01276     3.81282
      C    3    0.32683      0.99965     1.65189    0.02163     2.67317
      O    4   -0.32440      0.99988     3.31763    0.00689     4.32440
      C    5   -0.05886      0.99950     2.04975    0.00960     3.05886
      C    6   -0.09748      0.99953     2.08957    0.00838     3.09748
      C    7    0.05337      0.99946     1.92898    0.01819     2.94663
      N    8   -0.09175      0.99965     2.58047    0.01162     3.59175
      C    9    0.15163      0.99963     1.82913    0.01960     2.84837
      N   10   -0.18390      0.99979     2.67291    0.01121     3.68390
      H   11    0.08618      0.00000     0.41161    0.00221     0.41382
      H   12    0.08643      0.00000     0.41239    0.00118     0.41357
      H   13    0.18728      0.00000     0.31095    0.00177     0.31272
      H   14    0.09365      0.00000     0.40525    0.00110     0.40635
      H   15    0.09680      0.00000     0.40212    0.00108     0.40320
 =======================================================================
   * Total *    0.00000      9.99640    24.86326    0.14034    35.00000

 Normal termination of Gaussian 16 at Tue Dec  8 13:54:02 2020.
