 Gaussian 16, Revision A.03,

 -----------------------------------------------------------
 # opt freq B3LYP/6-31G(d) empiricaldispersion=gd3bj scf=xqc
 -----------------------------------------------------------

 ------------------------------
 CID_140335698_JID_200_neutraal
 ------------------------------
 Symbolic Z-matrix:
 Charge =  0 Multiplicity = 1

 SCF Done:  E(RB3LYP) =  -493.328260145     A.U. after   15 cycles
 SCF Done:  E(RB3LYP) =  -493.331259586     A.U. after   13 cycles
 SCF Done:  E(RB3LYP) =  -493.331469300     A.U. after   11 cycles
 SCF Done:  E(RB3LYP) =  -493.331532533     A.U. after   11 cycles
 SCF Done:  E(RB3LYP) =  -493.331548322     A.U. after   11 cycles
 SCF Done:  E(RB3LYP) =  -493.331550634     A.U. after   10 cycles
 SCF Done:  E(RB3LYP) =  -493.331553499     A.U. after    9 cycles
 SCF Done:  E(RB3LYP) =  -493.331555734     A.U. after    9 cycles
 SCF Done:  E(RB3LYP) =  -493.331557696     A.U. after   10 cycles
 SCF Done:  E(RB3LYP) =  -493.331559750     A.U. after    9 cycles
 SCF Done:  E(RB3LYP) =  -493.332222837     A.U. after   10 cycles
 SCF Done:  E(RB3LYP) =  -493.332222888     A.U. after    8 cycles
 SCF Done:  E(RB3LYP) =  -493.332223012     A.U. after    8 cycles
 SCF Done:  E(RB3LYP) =  -493.332223031     A.U. after    7 cycles
 SCF Done:  E(RB3LYP) =  -493.332223040     A.U. after    7 cycles
 Optimization completed.
    -- Stationary point found.
 Normal termination of Gaussian 16 at Tue Dec  8 10:31:01 2020.

 --------------------------------------------------------------------
 #N Geom=AllCheck Guess=TCheck SCRF=Check GenChk RB3LYP/6-31G(d) Freq
 --------------------------------------------------------------------

 Structure from the checkpoint file:  "JID_200.chk"
 ------------------------------
 CID_140335698_JID_200_neutraal
 ------------------------------
 Charge =  0 Multiplicity = 1

 SCF Done:  E(RB3LYP) =  -493.332223040     A.U. after    1 cycles

  Exact polarizability:  88.401  13.011  87.759  -2.914   2.224  56.418
 Approx polarizability: 127.302  29.919 151.286  -1.684   6.041  80.493

                      1                      2                      3
                      A                      A                      A
 Frequencies --     23.2088                29.1533               142.3896
 Red. masses --      2.7829                 4.1893                 5.8510
 Frc consts  --      0.0009                 0.0021                 0.0699
 IR Inten    --      0.8350                 1.2833                 2.9382

                      4                      5                      6
                      A                      A                      A
 Frequencies --    158.5857               216.6362               246.7878
 Red. masses --      5.3554                 5.1762                 7.3537
 Frc consts  --      0.0794                 0.1431                 0.2639
 IR Inten    --      4.6271                 0.3689                 1.5694

                      7                      8                      9
                      A                      A                      A
 Frequencies --    293.2499               363.1343               433.8032
 Red. masses --      2.1793                 4.2147                 2.0996
 Frc consts  --      0.1104                 0.3275                 0.2328
 IR Inten    --     10.3052                 3.4120                47.8529

                     10                     11                     12
                      A                      A                      A
 Frequencies --    505.1677               551.9078               597.3842
 Red. masses --      1.9393                 9.7321                 6.0245
 Frc consts  --      0.2916                 1.7466                 1.2667
 IR Inten    --     78.4332                 8.1202                 0.3869

                     13                     14                     15
                      A                      A                      A
 Frequencies --    602.3084               661.0076               674.2429
 Red. masses --      3.0608                 4.3865                 4.5210
 Frc consts  --      0.6542                 1.1292                 1.2109
 IR Inten    --      7.6541                 0.7332                 0.9615

                     16                     17                     18
                      A                      A                      A
 Frequencies --    771.7679               874.6453               941.6135
 Red. masses --      3.3391                 1.8186                 2.4044
 Frc consts  --      1.1718                 0.8197                 1.2560
 IR Inten    --     13.7472                 5.3711                19.2622

                     19                     20                     21
                      A                      A                      A
 Frequencies --    949.6507               978.4173              1030.1343
 Red. masses --      2.8234                 2.9342                 6.5677
 Frc consts  --      1.5002                 1.6550                 4.1063
 IR Inten    --      5.7896                32.9998               186.7055

                     22                     23                     24
                      A                      A                      A
 Frequencies --   1038.9455              1061.7939              1091.6529
 Red. masses --      2.4742                 2.6210                 2.1684
 Frc consts  --      1.5735                 1.7410                 1.5225
 IR Inten    --     25.4578                 5.5050                 9.0631

                     25                     26                     27
                      A                      A                      A
 Frequencies --   1133.0998              1214.3160              1248.0857
 Red. masses --      5.4752                 1.4088                 1.2644
 Frc consts  --      4.1418                 1.2240                 1.1605
 IR Inten    --     80.4985                10.3041                15.9814

                     28                     29                     30
                      A                      A                      A
 Frequencies --   1282.3095              1289.3189              1320.9062
 Red. masses --      1.6157                 1.7520                 1.2567
 Frc consts  --      1.5653                 1.7160                 1.2919
 IR Inten    --     29.9407                16.5313                 0.7893

                     31                     32                     33
                      A                      A                      A
 Frequencies --   1333.0372              1339.5407              1379.9666
 Red. masses --      1.2556                 1.3543                 1.2371
 Frc consts  --      1.3146                 1.4318                 1.3880
 IR Inten    --     14.2354                 8.0061                 5.8738

                     34                     35                     36
                      A                      A                      A
 Frequencies --   1417.1695              1439.0042              1522.8561
 Red. masses --      1.2951                 1.3714                 1.0892
 Frc consts  --      1.5325                 1.6731                 1.4882
 IR Inten    --     22.4108                43.8376                 4.2006

                     37                     38                     39
                      A                      A                      A
 Frequencies --   1533.7964              1550.7881              1689.0769
 Red. masses --      1.0820                 1.1047                 6.3750
 Frc consts  --      1.4997                 1.5653                10.7158
 IR Inten    --      0.2692                 2.1165                 4.8344

                     40                     41                     42
                      A                      A                      A
 Frequencies --   2352.8849              2997.5936              3012.9207
 Red. masses --     12.6836                 1.0714                 1.0719
 Frc consts  --     41.3707                 5.6719                 5.7331
 IR Inten    --      5.7110                39.2068                54.3145

                     43                     44                     45
                      A                      A                      A
 Frequencies --   3090.5573              3128.1210              3134.8480
 Red. masses --      1.0604                 1.0978                 1.0935
 Frc consts  --      5.9675                 6.3293                 6.3313
 IR Inten    --     15.2668                17.3429                14.1742

                     46                     47                     48
                      A                      A                      A
 Frequencies --   3139.2565              3156.1597              3748.6258
 Red. masses --      1.1013                 1.0891                 1.0678
 Frc consts  --      6.3945                 6.3922                 8.8403
 IR Inten    --     27.4705                12.2678               121.1680

 - Thermochemistry -
 -------------------
 Temperature   298.150 Kelvin.  Pressure   1.00000 Atm.
 Atom     1 has atomic number  6 and mass  12.00000

 Molecular mass:   140.05858 amu.
 Principal axes and moments of inertia in atomic units:
                           1         2         3
     Eigenvalues --   957.536641706.700462251.45271
           X            0.99931   0.03518  -0.01161
           Y           -0.03529   0.99933  -0.00930
           Z            0.01128   0.00971   0.99989
 This molecule is an asymmetric top.
 Rotational symmetry number  1.
 Warning -- assumption of classical behavior for rotation
           may cause significant error
 Rotational temperatures (Kelvin)      0.09045     0.05075     0.03847
 Rotational constants (GHZ):           1.88478     1.05744     0.80159
 Zero-point vibrational energy     374980.4 (Joules/Mol)
                                   89.62247 (Kcal/Mol)
 Warning -- explicit consideration of  13 degrees of freedom as
           vibrations may cause significant error
 Vibrational temperatures:     33.39    41.95   204.87   228.17   311.69
          (Kelvin)            355.07   421.92   522.47   624.15   726.82
                              794.07   859.50   866.59   951.04   970.09
                             1110.40  1258.42  1354.77  1366.34  1407.72
                             1482.13  1494.81  1527.68  1570.65  1630.28
                             1747.13  1795.72  1844.96  1855.04  1900.49
                             1917.94  1927.30  1985.46  2038.99  2070.41
                             2191.05  2206.79  2231.24  2430.20  3385.28
                             4312.87  4334.92  4446.62  4500.67  4510.35
                             4516.69  4541.01  5393.44

 Zero-point correction=                           0.142822 (Hartree/Particle)
 Thermal correction to Energy=                    0.152311
 Thermal correction to Enthalpy=                  0.153255
 Thermal correction to Gibbs Free Energy=         0.106089
 Sum of electronic and zero-point Energies=           -493.189401
 Sum of electronic and thermal Energies=              -493.179912
 Sum of electronic and thermal Enthalpies=            -493.178968
 Sum of electronic and thermal Free Energies=         -493.226134

                     E (Thermal)             CV                S
                      KCal/Mol        Cal/Mol-Kelvin    Cal/Mol-Kelvin
 Total                   95.576             33.854             99.269
 Electronic               0.000              0.000              0.000
 Translational            0.889              2.981             40.722
 Rotational               0.889              2.981             29.688
 Vibrational             93.799             27.892             28.859
 Vibration     1          0.593              1.985              6.339
 Vibration     2          0.593              1.984              5.886
 Vibration     3          0.616              1.911              2.772
 Vibration     4          0.621              1.893              2.567
 Vibration     5          0.645              1.816              1.987
 Vibration     6          0.661              1.768              1.753
 Vibration     7          0.688              1.686              1.455
 Vibration     8          0.737              1.548              1.109
 Vibration     9          0.795              1.397              0.846
 Vibration    10          0.860              1.239              0.645
 Vibration    11          0.907              1.136              0.540
 Vibration    12          0.955              1.037              0.454
 Vibration    13          0.961              1.027              0.446

 Optimization completed.
    -- Stationary point found.
 Normal termination of Gaussian 16 at Tue Dec  8 10:34:04 2020.

 ----------------------------------------------------------------------
 # B3LYP/6-311++G(d,p) empiricaldispersion=gd3bj scf=xqc pop=npa geom=c
 heck
 ----------------------------------------------------------------------

 --------------------------------------
 CID_140335698_JID_200_Energie_neutraal
 --------------------------------------
 Structure from the checkpoint file:  "JID_200.chk"
 Charge =  0 Multiplicity = 1

 SCF Done:  E(RB3LYP) =  -493.481345417     A.U. after   14 cycles
 Normal termination of Gaussian 16 at Tue Dec  8 10:37:38 2020.

 ----------------------------------------------------------------------
 # B3LYP/6-311++G(d,p) empiricaldispersion=gd3bj scf=xqc pop=npa geom=c
 heck
 ----------------------------------------------------------------------

 ------------------------------------
 CID_140335698_JID_200_Energie_kation
 ------------------------------------
 Structure from the checkpoint file:  "JID_200.chk"
 Charge =  1 Multiplicity = 2

 SCF Done:  E(UB3LYP) =  -493.127933001     A.U. after   23 cycles
 Normal termination of Gaussian 16 at Tue Dec  8 10:42:04 2020.
 Gaussian 16:  ES64L-G16RevA.03 25-Dec-2016

 ----------------------------------------------------------------------
 # B3LYP/6-311++G(d,p) empiricaldispersion=gd3bj scf=xqc pop=npa geom=c
 heck
 ----------------------------------------------------------------------

 -----------------------------------
 CID_140335698_JID_200_Energie_anion
 -----------------------------------
 Structure from the checkpoint file:  "JID_200.chk"
 Charge = -1 Multiplicity = 2

                         Standard orientation:
 ---------------------------------------------------------------------
 Center     Atomic      Atomic             Coordinates (Angstroms)
 Number     Number       Type             X           Y           Z
 ---------------------------------------------------------------------
      1          6           0        1.150894   -0.010393   -1.249828
      2          6           0        2.427591    0.176350   -0.407686
      3          8           0        2.329132   -0.783485    0.639317
      4          6           0        0.983505   -0.729604    1.070509
      5          6           0        0.135900   -0.615343   -0.233320
      6          6           0       -1.102233    0.217785   -0.032920
      7          7           0       -2.327368   -0.181344    0.014439
      8          8           0       -2.432749   -1.554162   -0.157813
      9          6           0       -0.927431    1.633555    0.163760
     10          7           0       -0.691324    2.761889    0.313995
     11          1           0        0.806393    0.932076   -1.684209
     12          1           0        1.315781   -0.717409   -2.066645
     13          1           0        3.352528   -0.018410   -0.954963
     14          1           0        2.467056    1.194466    0.009727
     15          1           0        0.815737    0.148993    1.714527
     16          1           0        0.764724   -1.634103    1.641855
     17          1           0       -0.179283   -1.607263   -0.554265
     18          1           0       -3.392508   -1.695093   -0.120180
 ---------------------------------------------------------------------

 SCF Done:  E(UB3LYP) =  -493.485178639     A.U. after   33 cycles
 SCF Done:  E(UB3LYP) =  -493.485178639     a.u. after    1 cycles

 The electronic state is 2-A.
 Alpha  occ. eigenvalues --  -19.00587 -18.99984 -14.15575 -14.11940 -10.09335
 Alpha  occ. eigenvalues --  -10.08087 -10.04224 -10.04015 -10.02653 -10.02256
 Alpha  occ. eigenvalues --   -0.92785  -0.92089  -0.73155  -0.69613  -0.64457
 Alpha  occ. eigenvalues --   -0.61094  -0.49648  -0.47626  -0.45875  -0.38047
 Alpha  occ. eigenvalues --   -0.37118  -0.33913  -0.32729  -0.31655  -0.28716
 Alpha  occ. eigenvalues --   -0.27791  -0.26627  -0.23348  -0.22580  -0.20957
 Alpha  occ. eigenvalues --   -0.20605  -0.18953  -0.17935  -0.16175  -0.13887
 Alpha  occ. eigenvalues --   -0.11056  -0.09883   0.06651
 Alpha virt. eigenvalues --    0.08693   0.09888   0.11062   0.11312   0.12814
 Alpha virt. eigenvalues --    0.13918   0.14347   0.15947   0.16730   0.16936
 Alpha virt. eigenvalues --    0.18047   0.19585   0.19650   0.20756   0.21365

  Beta  occ. eigenvalues --  -19.00459 -18.99966 -14.14479 -14.11583 -10.09329
  Beta  occ. eigenvalues --  -10.08025 -10.04255 -10.03968 -10.02388 -10.02223
  Beta  occ. eigenvalues --   -0.92139  -0.91999  -0.72535  -0.68800  -0.64123
  Beta  occ. eigenvalues --   -0.60935  -0.48726  -0.47528  -0.45606  -0.37974
  Beta  occ. eigenvalues --   -0.36897  -0.33688  -0.32501  -0.31160  -0.28528
  Beta  occ. eigenvalues --   -0.27693  -0.24495  -0.23125  -0.22295  -0.20563
  Beta  occ. eigenvalues --   -0.20278  -0.18426  -0.16667  -0.15948  -0.13824
  Beta  occ. eigenvalues --   -0.09920  -0.06783
  Beta virt. eigenvalues --    0.08723   0.09818   0.11029   0.11312   0.12701
  Beta virt. eigenvalues --    0.13814   0.14216   0.15820   0.15997   0.16616
  Beta virt. eigenvalues --    0.16925   0.18094   0.19585   0.19716   0.20737

 Mulliken charges and spin densities:
               1          2
     1  C   -0.139589  -0.162399
     2  C   -0.331940  -0.003355
     3  O   -0.151579   0.008969
     4  C   -0.443882  -0.061226
     5  C    0.018010   0.002429
     6  C    0.397257   0.276521
     7  N   -0.395483   0.467321
     8  O   -0.127494   0.025995
     9  C   -0.427671  -0.045362
    10  N   -0.424170   0.194465
    11  H    0.171399   0.007465
    12  H   -0.008845   0.123266
    13  H    0.100964   0.039520
    14  H    0.137781  -0.002608
    15  H    0.191603  -0.014964
    16  H    0.027891   0.130389
    17  H    0.178050  -0.003099
    18  H    0.227699   0.016672
 Sum of Mulliken charges =  -1.00000   1.00000

 Dipole moment (field-independent basis, Debye):
    X=              2.8812    Y=             -4.4251    Z=             -1.1375  Tot=              5.4016
 Quadrupole moment (field-independent basis, Debye-Ang):
   XX=            -78.8948   YY=            -87.7038   ZZ=            -68.1978
   XY=              9.5567   XZ=             -1.4498   YZ=             -1.6933

 Summary of Natural Population Analysis:

                                       Natural Population
                Natural  -----------------------------------------------
    Atom  No    Charge         Core      Valence    Rydberg      Total
 -----------------------------------------------------------------------
      C    1   -0.19994      0.99963     2.19129    0.00902     3.19994
      C    2   -0.01609      0.99961     2.00311    0.01337     3.01609
      O    3   -0.30344      0.99989     3.29506    0.00848     4.30344
      C    4   -0.00245      0.99960     1.99011    0.01275     3.00245
      C    5   -0.14275      0.99958     2.12966    0.01351     3.14275
      C    6    0.03714      0.99948     1.94336    0.02002     2.96286
      N    7    0.08276      0.99959     2.39919    0.01846     3.41724
      O    8   -0.29223      0.99990     3.28506    0.00728     4.29223
      C    9    0.14379      0.99962     1.83546    0.02114     2.85621
      N   10   -0.17809      0.99979     2.66654    0.01177     3.67809
      H   11    0.10840      0.00000     0.39046    0.00114     0.39160
      H   12    0.09309      0.00000     0.40535    0.00156     0.40691
      H   13    0.08335      0.00000     0.41555    0.00110     0.41665
      H   14    0.08055      0.00000     0.41835    0.00111     0.41945
      H   15    0.08146      0.00000     0.41700    0.00154     0.41854
      H   16    0.08656      0.00000     0.41206    0.00138     0.41344
      H   17    0.11289      0.00000     0.38625    0.00085     0.38711
      H   18    0.22502      0.00000     0.27129    0.00369     0.27498
 =======================================================================
   * Total *    0.00000      9.99668    26.85515    0.14816    37.00000

 Normal termination of Gaussian 16 at Tue Dec  8 10:49:07 2020.
