 Gaussian 16, Revision A.03,

 -----------------------------------------------------------
 # opt freq B3LYP/6-31G(d) empiricaldispersion=gd3bj scf=xqc
 -----------------------------------------------------------

 -------------------------------
 CID_117579019_JID_9632_neutraal
 -------------------------------
 Symbolic Z-matrix:
 Charge =  0 Multiplicity = 1

 SCF Done:  E(RB3LYP) =  -876.962401795     A.U. after   14 cycles
 SCF Done:  E(RB3LYP) =  -876.970618609     A.U. after   13 cycles
 SCF Done:  E(RB3LYP) =  -876.974255129     A.U. after   12 cycles
 SCF Done:  E(RB3LYP) =  -876.976412785     A.U. after   15 cycles
 SCF Done:  E(RB3LYP) =  -876.978064458     A.U. after   12 cycles
 SCF Done:  E(RB3LYP) =  -876.978589321     A.U. after   11 cycles
 SCF Done:  E(RB3LYP) =  -876.979425943     A.U. after   12 cycles
 SCF Done:  E(RB3LYP) =  -876.980199908     A.U. after   13 cycles
 SCF Done:  E(RB3LYP) =  -876.981032398     A.U. after   11 cycles
 SCF Done:  E(RB3LYP) =  -876.982147567     A.U. after   12 cycles
 SCF Done:  E(RB3LYP) =  -876.982449664     A.U. after    9 cycles
 SCF Done:  E(RB3LYP) =  -876.982450083     A.U. after    9 cycles
 SCF Done:  E(RB3LYP) =  -876.982450116     A.U. after    8 cycles
 SCF Done:  E(RB3LYP) =  -876.982450125     A.U. after    6 cycles
 SCF Done:  E(RB3LYP) =  -876.982450130     A.U. after    6 cycles
 Optimization completed.
    -- Stationary point found.
 Normal termination of Gaussian 16 at Sun Dec 13 21:07:49 2020.

 --------------------------------------------------------------------
 #N Geom=AllCheck Guess=TCheck SCRF=Check GenChk RB3LYP/6-31G(d) Freq
 --------------------------------------------------------------------

 Structure from the checkpoint file:  "JID_9632.chk"
 -------------------------------
 CID_117579019_JID_9632_neutraal
 -------------------------------
 Charge =  0 Multiplicity = 1

 SCF Done:  E(RB3LYP) =  -876.982450130     A.U. after    1 cycles

  Exact polarizability: 243.545  -7.077 170.533  -4.431   0.526 113.225
 Approx polarizability: 305.422 -10.861 248.834 -12.257   1.840 178.054

                      1                      2                      3
                      A                      A                      A
 Frequencies --     19.3893                21.4811                29.7394
 Red. masses --      2.5723                 1.3070                 4.9621
 Frc consts  --      0.0006                 0.0004                 0.0026
 IR Inten    --      0.1236                 0.7209                 1.6231

                      4                      5                      6
                      A                      A                      A
 Frequencies --     51.2130                62.9427                76.3143
 Red. masses --      3.5427                 2.9299                 2.5455
 Frc consts  --      0.0055                 0.0068                 0.0087
 IR Inten    --      0.1064                 2.1454                 1.1777

                      7                      8                      9
                      A                      A                      A
 Frequencies --     85.1003               106.6448               120.7441
 Red. masses --      2.1552                 2.7069                 2.4152
 Frc consts  --      0.0092                 0.0181                 0.0207
 IR Inten    --      1.6108                 0.5059                 0.2029

                     10                     11                     12
                      A                      A                      A
 Frequencies --    136.8537               153.2309               155.6432
 Red. masses --      1.1703                 1.7030                 2.2511
 Frc consts  --      0.0129                 0.0236                 0.0321
 IR Inten    --      0.1902                 1.6872                 4.2327

                     13                     14                     15
                      A                      A                      A
 Frequencies --    159.3583               195.4198               214.3126
 Red. masses --      1.7255                 3.3313                 2.9720
 Frc consts  --      0.0258                 0.0750                 0.0804
 IR Inten    --      1.3280                 2.9027                 0.4328

                     16                     17                     18
                      A                      A                      A
 Frequencies --    222.6941               242.0047               248.2904
 Red. masses --      4.1102                 3.5747                 3.3547
 Frc consts  --      0.1201                 0.1234                 0.1218
 IR Inten    --      0.9935                 1.8731                 4.9670

                     19                     20                     21
                      A                      A                      A
 Frequencies --    260.7766               283.5080               333.3120
 Red. masses --      2.8602                 4.4011                 2.9962
 Frc consts  --      0.1146                 0.2084                 0.1961
 IR Inten    --      6.5245                 3.8802                 5.0952

                     22                     23                     24
                      A                      A                      A
 Frequencies --    348.2950               401.6522               444.8749
 Red. masses --      3.5949                 3.3394                 4.0310
 Frc consts  --      0.2569                 0.3174                 0.4700
 IR Inten    --      7.4158                 1.1473                 1.3932

                     25                     26                     27
                      A                      A                      A
 Frequencies --    451.1291               544.9781               550.4886
 Red. masses --      4.4834                 3.1495                 3.0582
 Frc consts  --      0.5376                 0.5511                 0.5460
 IR Inten    --     11.5981                 2.9566                 4.2890

                     28                     29                     30
                      A                      A                      A
 Frequencies --    601.3400               608.0704               613.3370
 Red. masses --      4.5834                 3.2819                 3.4757
 Frc consts  --      0.9765                 0.7150                 0.7703
 IR Inten    --      6.1231                 3.2071                 5.2099

                     31                     32                     33
                      A                      A                      A
 Frequencies --    701.4739               715.3608               746.0052
 Red. masses --     10.6247                 3.1954                 1.6278
 Frc consts  --      3.0803                 0.9635                 0.5337
 IR Inten    --      0.2784                 5.7666                 3.9905

                     34                     35                     36
                      A                      A                      A
 Frequencies --    751.7288               755.7471               807.0353
 Red. masses --      4.5734                 5.8723                 6.1954
 Frc consts  --      1.5227                 1.9761                 2.3774
 IR Inten    --      2.2296                10.1703                39.8976

                     37                     38                     39
                      A                      A                      A
 Frequencies --    849.0511               866.0594               890.9120
 Red. masses --      2.8900                 4.1936                 2.0131
 Frc consts  --      1.2275                 1.8532                 0.9414
 IR Inten    --      5.4472                 7.4090                10.5939

                     40                     41                     42
                      A                      A                      A
 Frequencies --    930.5193               939.8777               979.6356
 Red. masses --      3.8464                 2.3574                 1.3217
 Frc consts  --      1.9623                 1.2270                 0.7473
 IR Inten    --      1.4311                10.6398                 2.1748

                     43                     44                     45
                      A                      A                      A
 Frequencies --    994.0073              1006.4142              1021.8680
 Red. masses --      7.6005                 2.2262                 1.6986
 Frc consts  --      4.4246                 1.3285                 1.0450
 IR Inten    --     18.0646                 7.0968                18.9679

                     46                     47                     48
                      A                      A                      A
 Frequencies --   1059.2807              1070.8451              1075.4649
 Red. masses --      2.6670                 5.4169                 1.6255
 Frc consts  --      1.7631                 3.6598                 1.1077
 IR Inten    --     43.5174                55.5910                 3.5292

                     49                     50                     51
                      A                      A                      A
 Frequencies --   1090.5185              1097.5480              1128.0219
 Red. masses --      3.4965                 1.4557                 2.0196
 Frc consts  --      2.4499                 1.0332                 1.5141
 IR Inten    --      7.2159                25.7182                70.6700

                     52                     53                     54
                      A                      A                      A
 Frequencies --   1141.8741              1145.7929              1176.9093
 Red. masses --      1.2497                 2.2073                 1.3574
 Frc consts  --      0.9600                 1.7074                 1.1077
 IR Inten    --      1.9926                15.0938                47.3041

                     55                     56                     57
                      A                      A                      A
 Frequencies --   1186.8301              1200.5626              1218.8010
 Red. masses --      1.2757                 1.3421                 1.4417
 Frc consts  --      1.0587                 1.1397                 1.2618
 IR Inten    --      0.9801                27.7894                14.4650

                     58                     59                     60
                      A                      A                      A
 Frequencies --   1220.5515              1233.3569              1246.8824
 Red. masses --      1.7204                 2.2374                 1.5663
 Frc consts  --      1.5100                 2.0052                 1.4347
 IR Inten    --     13.1892                76.6962                36.3333

                     61                     62                     63
                      A                      A                      A
 Frequencies --   1274.7094              1279.4430              1301.8017
 Red. masses --      1.5882                 3.4121                 4.5614
 Frc consts  --      1.5204                 3.2909                 4.5544
 IR Inten    --      3.1915                38.8380               397.7266

                     64                     65                     66
                      A                      A                      A
 Frequencies --   1317.2951              1322.9119              1339.4596
 Red. masses --      1.4093                 1.8995                 2.2794
 Frc consts  --      1.4409                 1.9586                 2.4096
 IR Inten    --      4.1853                 5.2300                 3.1087

                     67                     68                     69
                      A                      A                      A
 Frequencies --   1366.8403              1376.1474              1394.5485
 Red. masses --      1.2880                 1.9789                 1.8127
 Frc consts  --      1.4178                 2.2080                 2.0771
 IR Inten    --      0.4719                82.3443                73.2067

                     70                     71                     72
                      A                      A                      A
 Frequencies --   1403.3109              1413.9056              1452.1824
 Red. masses --      1.6914                 1.5834                 2.4714
 Frc consts  --      1.9625                 1.8651                 3.0706
 IR Inten    --    107.5484                26.3537                49.9205

                     73                     74                     75
                      A                      A                      A
 Frequencies --   1453.9763              1478.2841              1493.1065
 Red. masses --      1.3642                 1.4082                 1.2252
 Frc consts  --      1.6992                 1.8132                 1.6093
 IR Inten    --     65.4644                30.1793                 8.1436

                     76                     77                     78
                      A                      A                      A
 Frequencies --   1494.6909              1509.2368              1512.9345
 Red. masses --      1.3557                 1.0466                 1.0480
 Frc consts  --      1.7845                 1.4045                 1.4133
 IR Inten    --      4.3623                 5.2756                 5.6624

                     79                     80                     81
                      A                      A                      A
 Frequencies --   1517.9574              1521.4335              1524.8100
 Red. masses --      1.0563                 1.1395                 1.0694
 Frc consts  --      1.4341                 1.5541                 1.4650
 IR Inten    --     16.0659                49.4114                11.4983

                     82                     83                     84
                      A                      A                      A
 Frequencies --   1525.5546              1532.8770              1540.0683
 Red. masses --      1.0905                 1.2066                 1.2608
 Frc consts  --      1.4953                 1.6704                 1.7619
 IR Inten    --     35.4495                44.8693               110.7200

                     85                     86                     87
                      A                      A                      A
 Frequencies --   1547.1393              1551.4545              1559.9188
 Red. masses --      1.5088                 1.0905                 1.2616
 Frc consts  --      2.1279                 1.5465                 1.8087
 IR Inten    --     67.3997                15.0446                83.4976

                     88                     89                     90
                      A                      A                      A
 Frequencies --   1578.4345              1596.1771              1642.5742
 Red. masses --      2.5888                 5.2775                 5.1870
 Frc consts  --      3.8002                 7.9222                 8.2456
 IR Inten    --    267.6174                47.2389              1236.7368

                     91                     92                     93
                      A                      A                      A
 Frequencies --   1830.0001              3001.6227              3003.8557
 Red. masses --     10.9710                 1.0685                 1.0505
 Frc consts  --     21.6471                 5.6719                 5.5847
 IR Inten    --    246.1528                40.4260                53.7769

                     94                     95                     96
                      A                      A                      A
 Frequencies --   3014.0732              3055.4225              3059.1231
 Red. masses --      1.0531                 1.0911                 1.0719
 Frc consts  --      5.6366                 6.0012                 5.9100
 IR Inten    --    123.8351                27.6725                26.6163

                     97                     98                     99
                      A                      A                      A
 Frequencies --   3061.0043              3076.8561              3080.0972
 Red. masses --      1.0378                 1.0295                 1.0881
 Frc consts  --      5.7292                 5.7426                 6.0818
 IR Inten    --     16.7755                36.1047                40.9917

                    100                    101                    102
                      A                      A                      A
 Frequencies --   3080.8875              3088.4837              3101.9749
 Red. masses --      1.0922                 1.0623                 1.0840
 Frc consts  --      6.1081                 5.9701                 6.1453
 IR Inten    --     40.2086                22.4296                 8.3290

                    103                    104                    105
                      A                      A                      A
 Frequencies --   3116.9571              3133.9824              3139.6111
 Red. masses --      1.1002                 1.0982                 1.1054
 Frc consts  --      6.2977                 6.3549                 6.4197
 IR Inten    --     14.7282                 9.2613                28.5787

                    106                    107                    108
                      A                      A                      A
 Frequencies --   3142.7853              3151.6741              3165.5449
 Red. masses --      1.0987                 1.1075                 1.1020
 Frc consts  --      6.3938                 6.4816                 6.5063
 IR Inten    --     23.5770                19.7315                14.3821

                    109                    110                    111
                      A                      A                      A
 Frequencies --   3184.3078              3199.3579              3262.9686
 Red. masses --      1.1072                 1.0948                 1.0896
 Frc consts  --      6.6149                 6.6023                 6.8351
 IR Inten    --     15.6706                 1.7131                 7.8222

 - Thermochemistry -
 -------------------
 Temperature   298.150 Kelvin.  Pressure   1.00000 Atm.
 Atom     1 has atomic number  6 and mass  12.00000

 Molecular mass:   264.15863 amu.
 Principal axes and moments of inertia in atomic units:
                           1         2         3
     Eigenvalues --  2123.95302********************
           X            0.99998  -0.00527   0.00411
           Y            0.00527   0.99999  -0.00011
           Z           -0.00411   0.00014   0.99999
 This molecule is an asymmetric top.
 Rotational symmetry number  1.
 Warning -- assumption of classical behavior for rotation
           may cause significant error
 Rotational temperatures (Kelvin)      0.04078     0.00753     0.00667
 Rotational constants (GHZ):           0.84971     0.15692     0.13894
 Zero-point vibrational energy     871873.4 (Joules/Mol)
                                  208.38274 (Kcal/Mol)
 Warning -- explicit consideration of  30 degrees of freedom as
           vibrations may cause significant error
 Vibrational temperatures:     27.90    30.91    42.79    73.68    90.56
          (Kelvin)            109.80   122.44   153.44   173.72   196.90
                              220.47   223.94   229.28   281.17   308.35
                              320.41   348.19   357.23   375.20   407.90
                              479.56   501.12   577.89   640.08   649.07
                              784.10   792.03   865.19   874.88   882.46
                             1009.26  1029.24  1073.34  1081.57  1087.35
                             1161.14  1221.60  1246.07  1281.82  1338.81
                             1352.27  1409.48  1430.15  1448.01  1470.24
                             1524.07  1540.71  1547.35  1569.01  1579.13
                             1622.97  1642.90  1648.54  1693.31  1707.58
                             1727.34  1753.58  1756.10  1774.53  1793.99
                             1834.02  1840.83  1873.00  1895.29  1903.38
                             1927.18  1966.58  1979.97  2006.44  2019.05
                             2034.29  2089.37  2091.95  2126.92  2148.25
                             2150.53  2171.46  2176.78  2184.00  2189.00
                             2193.86  2194.93  2205.47  2215.81  2225.99
                             2232.20  2244.38  2271.02  2296.54  2363.30
                             2632.96  4318.67  4321.88  4336.58  4396.07
                             4401.40  4404.10  4426.91  4431.57  4432.71
                             4443.64  4463.05  4484.61  4509.10  4517.20
                             4521.77  4534.56  4554.51  4581.51  4603.16
                             4694.68

 Zero-point correction=                           0.332079 (Hartree/Particle)
 Thermal correction to Energy=                    0.352221
 Thermal correction to Enthalpy=                  0.353165
 Thermal correction to Gibbs Free Energy=         0.280095
 Sum of electronic and zero-point Energies=           -876.650371
 Sum of electronic and thermal Energies=              -876.630229
 Sum of electronic and thermal Enthalpies=            -876.629285
 Sum of electronic and thermal Free Energies=         -876.702355

                     E (Thermal)             CV                S
                      KCal/Mol        Cal/Mol-Kelvin    Cal/Mol-Kelvin
 Total                  221.022             71.347            153.789
 Electronic               0.000              0.000              0.000
 Translational            0.889              2.981             42.613
 Rotational               0.889              2.981             34.117
 Vibrational            219.245             65.385             77.059
 Vibration     1          0.593              1.986              6.696
 Vibration     2          0.593              1.985              6.492
 Vibration     3          0.594              1.984              5.847
 Vibration     4          0.595              1.977              4.770
 Vibration     5          0.597              1.972              4.363
 Vibration     6          0.599              1.965              3.983
 Vibration     7          0.601              1.960              3.770
 Vibration     8          0.606              1.944              3.329
 Vibration     9          0.609              1.932              3.088
 Vibration    10          0.614              1.917              2.847
 Vibration    11          0.619              1.899              2.632
 Vibration    12          0.620              1.896              2.602
 Vibration    13          0.621              1.892              2.557
 Vibration    14          0.636              1.846              2.176
 Vibration    15          0.644              1.819              2.007
 Vibration    16          0.648              1.807              1.937
 Vibration    17          0.658              1.776              1.788
 Vibration    18          0.662              1.766              1.743
 Vibration    19          0.669              1.744              1.657
 Vibration    20          0.682              1.704              1.512
 Vibration    21          0.715              1.609              1.244
 Vibration    22          0.726              1.579              1.174
 Vibration    23          0.767              1.467              0.957
 Vibration    24          0.804              1.372              0.811
 Vibration    25          0.810              1.358              0.792
 Vibration    26          0.900              1.151              0.555
 Vibration    27          0.906              1.139              0.543
 Vibration    28          0.960              1.029              0.447
 Vibration    29          0.967              1.015              0.436
 Vibration    30          0.973              1.004              0.427

 Optimization completed.
    -- Stationary point found.
 Normal termination of Gaussian 16 at Sun Dec 13 21:24:37 2020.

 ----------------------------------------------------------------------
 # B3LYP/6-311++G(d,p) empiricaldispersion=gd3bj scf=xqc pop=npa geom=c
 heck
 ----------------------------------------------------------------------

 ---------------------------------------
 CID_117579019_JID_9632_Energie_neutraal
 ---------------------------------------
 Structure from the checkpoint file:  "JID_9632.chk"
 Charge =  0 Multiplicity = 1

 SCF Done:  E(RB3LYP) =  -877.222363106     A.U. after   15 cycles
 Normal termination of Gaussian 16 at Sun Dec 13 21:32:27 2020.

 ----------------------------------------------------------------------
 # B3LYP/6-311++G(d,p) empiricaldispersion=gd3bj scf=xqc pop=npa geom=c
 heck
 ----------------------------------------------------------------------

 -------------------------------------
 CID_117579019_JID_9632_Energie_kation
 -------------------------------------
 Structure from the checkpoint file:  "JID_9632.chk"
 Charge =  1 Multiplicity = 2

 SCF Done:  E(UB3LYP) =  -876.953728222     A.U. after   23 cycles
 Normal termination of Gaussian 16 at Sun Dec 13 21:48:53 2020.
 Gaussian 16:  ES64L-G16RevA.03 25-Dec-2016

 ----------------------------------------------------------------------
 # B3LYP/6-311++G(d,p) empiricaldispersion=gd3bj scf=xqc pop=npa geom=c
 heck
 ----------------------------------------------------------------------

 ------------------------------------
 CID_117579019_JID_9632_Energie_anion
 ------------------------------------
 Structure from the checkpoint file:  "JID_9632.chk"
 Charge = -1 Multiplicity = 2

                         Standard orientation:
 ---------------------------------------------------------------------
 Center     Atomic      Atomic             Coordinates (Angstroms)
 Number     Number       Type             X           Y           Z
 ---------------------------------------------------------------------
      1          6           0        2.251763    3.406886    0.120953
      2          6           0        2.111198    1.907067    0.082492
      3          7           0        0.861263    1.432932    0.123289
      4          6           0        0.737300    0.088150    0.087032
      5          6           0        1.851530   -0.765284    0.015546
      6          6           0        3.112595   -0.150643   -0.013571
      7          7           0        3.237856    1.198559    0.010116
      8          7           0        4.274404   -0.881800   -0.051379
      9          6           0        4.218606   -2.324197   -0.170813
     10          6           0        5.552436   -0.241756   -0.320526
     11          7           0       -0.535099   -0.398571    0.118615
     12          6           0       -0.868539   -1.815662    0.079642
     13          6           0       -2.399262   -1.820691   -0.019295
     14          6           0       -2.803585   -0.521424    0.710284
     15          6           0       -1.704263    0.465647    0.271315
     16          6           0       -4.212281   -0.059321    0.411271
     17          8           0       -5.089242    0.081581    1.235044
     18          8           0       -4.388111    0.175061   -0.910067
     19          6           0       -5.701620    0.619786   -1.283061
     20          1           0        1.697193    3.860224   -0.707890
     21          1           0        1.821741    3.802353    1.048022
     22          1           0        3.303138    3.692696    0.057881
     23          1           0        1.732311   -1.837602   -0.019026
     24          1           0        3.809952   -2.653144   -1.139237
     25          1           0        5.230393   -2.723791   -0.072505
     26          1           0        3.605822   -2.760213    0.626241
     27          1           0        5.862418   -0.381905   -1.367270
     28          1           0        5.454926    0.823601   -0.122750
     29          1           0        6.324821   -0.668905    0.329350
     30          1           0       -0.517972   -2.328939    0.988544
     31          1           0       -0.401261   -2.311597   -0.780281
     32          1           0       -2.711459   -1.759599   -1.066033
     33          1           0       -2.848433   -2.713435    0.423888
     34          1           0       -2.751867   -0.672458    1.792148
     35          1           0       -1.964625    0.954564   -0.675199
     36          1           0       -1.510823    1.246890    1.008917
     37          1           0       -6.449636   -0.131683   -1.017360
     38          1           0       -5.945815    1.556890   -0.776351
     39          1           0       -5.666239    0.763737   -2.362991
 ---------------------------------------------------------------------

 SCF Done:  E(UB3LYP) =  -877.213134831     A.U. after   33 cycles
 SCF Done:  E(UB3LYP) =  -877.213134831     a.u. after    1 cycles

 The electronic state is 2-A.
 Alpha  occ. eigenvalues --  -19.09193 -19.03620 -14.24764 -14.24739 -14.19908
 Alpha  occ. eigenvalues --  -14.19749 -10.22401 -10.15544 -10.15532 -10.14715
 Alpha  occ. eigenvalues --  -10.14470 -10.12138 -10.12137 -10.11286 -10.10814
 Alpha  occ. eigenvalues --  -10.10538 -10.09792 -10.07767 -10.07060  -1.03196
 Alpha  occ. eigenvalues --   -0.94466  -0.90456  -0.87978  -0.84678  -0.77611
 Alpha  occ. eigenvalues --   -0.73228  -0.69135  -0.66917  -0.64679  -0.64153
 Alpha  occ. eigenvalues --   -0.61954  -0.60255  -0.56654  -0.54219  -0.50182
 Alpha  occ. eigenvalues --   -0.48915  -0.48816  -0.45291  -0.44055  -0.43070
 Alpha  occ. eigenvalues --   -0.41477  -0.40627  -0.39696  -0.38294  -0.37876
 Alpha  occ. eigenvalues --   -0.36863  -0.35617  -0.35261  -0.34603  -0.34108
 Alpha  occ. eigenvalues --   -0.33494  -0.32692  -0.32410  -0.31608  -0.31427
 Alpha  occ. eigenvalues --   -0.30743  -0.30278  -0.29491  -0.29442  -0.29130
 Alpha  occ. eigenvalues --   -0.28298  -0.26864  -0.25973  -0.24220  -0.23213
 Alpha  occ. eigenvalues --   -0.20305  -0.20016  -0.19957  -0.15920  -0.13326
 Alpha  occ. eigenvalues --   -0.12005   0.03633
 Alpha virt. eigenvalues --    0.04928   0.06126   0.06914   0.07237   0.07598
 Alpha virt. eigenvalues --    0.07896   0.07927   0.08470   0.08634   0.08834
 Alpha virt. eigenvalues --    0.09136   0.09713   0.09971   0.10785   0.10910

  Beta  occ. eigenvalues --  -19.09187 -19.03616 -14.24762 -14.24740 -14.19906
  Beta  occ. eigenvalues --  -14.19747 -10.22400 -10.15544 -10.15529 -10.14716
  Beta  occ. eigenvalues --  -10.14433 -10.12130 -10.12109 -10.11281 -10.10766
  Beta  occ. eigenvalues --  -10.10516 -10.09773 -10.07764 -10.07051  -1.03187
  Beta  occ. eigenvalues --   -0.94457  -0.90451  -0.87970  -0.84669  -0.77602
  Beta  occ. eigenvalues --   -0.73216  -0.69122  -0.66884  -0.64642  -0.64115
  Beta  occ. eigenvalues --   -0.61921  -0.60222  -0.56631  -0.54176  -0.50147
  Beta  occ. eigenvalues --   -0.48878  -0.48781  -0.45263  -0.44039  -0.43054
  Beta  occ. eigenvalues --   -0.41453  -0.40605  -0.39672  -0.38270  -0.37846
  Beta  occ. eigenvalues --   -0.36840  -0.35590  -0.35244  -0.34582  -0.34085
  Beta  occ. eigenvalues --   -0.33473  -0.32668  -0.32390  -0.31584  -0.31397
  Beta  occ. eigenvalues --   -0.30722  -0.30261  -0.29467  -0.29416  -0.29095
  Beta  occ. eigenvalues --   -0.28267  -0.26845  -0.25948  -0.24206  -0.23199
  Beta  occ. eigenvalues --   -0.20296  -0.20009  -0.19948  -0.15915  -0.13315
  Beta  occ. eigenvalues --   -0.11990
  Beta virt. eigenvalues --    0.05609   0.05942   0.06806   0.06983   0.07315
  Beta virt. eigenvalues --    0.07809   0.08103   0.08323   0.08784   0.08913
  Beta virt. eigenvalues --    0.09278   0.09550   0.09973   0.10242   0.10875

 Mulliken charges and spin densities:
               1          2
     1  C   -0.125290  -0.215454
     2  C   -0.325367   0.052893
     3  N   -0.148744   0.014204
     4  C    0.633042  -0.472647
     5  C   -0.171424   0.110133
     6  C   -0.964192   0.715888
     7  N   -0.163054   0.023917
     8  N   -0.182907   0.205307
     9  C    0.888031  -1.275679
    10  C    0.101434  -0.461220
    11  N    0.028843   0.105461
    12  C    0.733889  -0.598034
    13  C   -0.088050  -1.000373
    14  C    0.404700   0.052444
    15  C    0.109826  -0.616014
    16  C   -0.929165   0.515866
    17  O   -0.222111   0.001609
    18  O   -0.111109   0.046298
    19  C    0.618049  -0.861321
    20  H    0.119709   0.034065
    21  H    0.129908   0.021883
    22  H    0.127563   0.010802
    23  H    0.339583  -0.150254
    24  H   -0.186648   0.368335
    25  H   -0.530986   0.688799
    26  H   -0.433058   0.597539
    27  H   -0.073718   0.223677
    28  H    0.157455   0.032405
    29  H   -0.050772   0.192102
    30  H   -0.084069   0.278459
    31  H   -0.301057   0.453518
    32  H    0.118249   0.089645
    33  H   -0.251665   0.437013
    34  H    0.139348   0.117730
    35  H    0.151203   0.087025
    36  H    0.158888   0.050972
    37  H   -0.183773   0.360098
    38  H   -0.109202   0.283164
    39  H   -0.323359   0.479745
 Sum of Mulliken charges =  -1.00000   1.00000

 Dipole moment (field-independent basis, Debye):
    X=             -0.0927    Y=              4.9081    Z=              0.8893  Tot=              4.9889
 Quadrupole moment (field-independent basis, Debye-Ang):
   XX=           -236.9461   YY=           -165.2648   ZZ=           -148.8704
   XY=             17.2141   XZ=             -1.6257   YZ=              0.7750

 Summary of Natural Population Analysis:

                                       Natural Population
                Natural  -----------------------------------------------
    Atom  No    Charge         Core      Valence    Rydberg      Total
 -----------------------------------------------------------------------
      C    1   -0.30018      0.99963     2.29524    0.00531     3.30018
      C    2    0.23196      0.99964     1.75178    0.01662     2.76804
      N    3   -0.29972      0.99964     2.79073    0.00935     3.79972
      C    4    0.22903      0.99953     1.75741    0.01403     2.77097
      C    5   -0.20197      0.99949     2.19531    0.00716     3.20197
      C    6    0.22629      0.99952     1.75968    0.01451     2.77371
      N    7   -0.30044      0.99964     2.79154    0.00927     3.80044
      N    8   -0.24327      0.99965     2.73283    0.01079     3.74327
      C    9   -0.17716      0.99964     2.16914    0.00838     3.17716
      C   10   -0.17631      0.99964     2.16876    0.00791     3.17631
      N   11   -0.24482      0.99963     2.73544    0.00974     3.74482
      C   12   -0.08108      0.99963     2.07100    0.01046     3.08108
      C   13   -0.18719      0.99962     2.17908    0.00849     3.18719
      C   14   -0.15769      0.99954     2.14736    0.01078     3.15769
      C   15   -0.07246      0.99961     2.06363    0.00922     3.07246
      C   16    0.41443      0.99965     1.56123    0.02470     2.58557
      O   17   -0.30252      0.99987     3.29693    0.00572     4.30252
      O   18   -0.27936      0.99986     3.27106    0.00844     4.27936
      C   19   -0.10278      0.99960     2.09487    0.00831     3.10278
      H   20    0.10548      0.00000     0.39347    0.00105     0.39452
      H   21    0.10480      0.00000     0.39415    0.00105     0.39520
      H   22    0.10412      0.00000     0.39505    0.00083     0.39588
      H   23    0.11326      0.00000     0.38489    0.00184     0.38674
      H   24    0.09475      0.00000     0.40347    0.00178     0.40525
      H   25    0.10135      0.00000     0.39710    0.00155     0.39865
      H   26    0.10054      0.00000     0.39772    0.00174     0.39946
      H   27    0.08825      0.00000     0.41070    0.00105     0.41175
      H   28    0.11601      0.00000     0.38264    0.00135     0.38399
      H   29    0.09219      0.00000     0.40685    0.00097     0.40781
      H   30    0.09478      0.00000     0.40364    0.00158     0.40522
      H   31    0.10216      0.00000     0.39623    0.00161     0.39784
      H   32    0.10580      0.00000     0.39242    0.00178     0.39420
      H   33    0.10674      0.00000     0.39214    0.00112     0.39326
      H   34    0.11073      0.00000     0.38812    0.00115     0.38927
      H   35    0.09989      0.00000     0.39839    0.00172     0.40011
      H   36    0.10811      0.00000     0.39059    0.00130     0.39189
      H   37    0.09166      0.00000     0.40659    0.00175     0.40834
      H   38    0.09087      0.00000     0.40749    0.00164     0.40913
      H   39    0.09376      0.00000     0.40460    0.00164     0.40624
 =======================================================================
   * Total *    0.00000     18.99302    51.77930    0.22768    71.00000

 Normal termination of Gaussian 16 at Sun Dec 13 22:11:54 2020.
