 Gaussian 16, Revision A.03,

 -----------------------------------------------------------
 # opt freq B3LYP/6-31G(d) empiricaldispersion=gd3bj scf=xqc
 -----------------------------------------------------------

 ------------------------------
 CID_83967835_JID_8048_neutraal
 ------------------------------
 Symbolic Z-matrix:
 Charge =  0 Multiplicity = 1

 SCF Done:  E(RB3LYP) =  -835.252424700     A.U. after   15 cycles
 SCF Done:  E(RB3LYP) =  -835.255236171     A.U. after   13 cycles
 SCF Done:  E(RB3LYP) =  -835.261393630     A.U. after   13 cycles
 SCF Done:  E(RB3LYP) =  -835.262753590     A.U. after   12 cycles
 SCF Done:  E(RB3LYP) =  -835.263196763     A.U. after   12 cycles
 SCF Done:  E(RB3LYP) =  -835.263800661     A.U. after   12 cycles
 SCF Done:  E(RB3LYP) =  -835.264396032     A.U. after   12 cycles
 SCF Done:  E(RB3LYP) =  -835.264696026     A.U. after   12 cycles
 SCF Done:  E(RB3LYP) =  -835.264832709     A.U. after   11 cycles
 SCF Done:  E(RB3LYP) =  -835.264921759     A.U. after   11 cycles
 SCF Done:  E(RB3LYP) =  -835.265110321     A.U. after   10 cycles
 SCF Done:  E(RB3LYP) =  -835.265110835     A.U. after   10 cycles
 SCF Done:  E(RB3LYP) =  -835.265111953     A.U. after   10 cycles
 SCF Done:  E(RB3LYP) =  -835.265112217     A.U. after    8 cycles
 Optimization completed.
    -- Stationary point found.
 Normal termination of Gaussian 16 at Fri Dec 11 18:47:48 2020.

 --------------------------------------------------------------------
 #N Geom=AllCheck Guess=TCheck SCRF=Check GenChk RB3LYP/6-31G(d) Freq
 --------------------------------------------------------------------

 Structure from the checkpoint file:  "JID_8048.chk"
 ------------------------------
 CID_83967835_JID_8048_neutraal
 ------------------------------
 Charge =  0 Multiplicity = 1

 SCF Done:  E(RB3LYP) =  -835.265112217     A.U. after    1 cycles

  Exact polarizability: 185.172 -22.850 147.175   1.066  15.391 111.307
 Approx polarizability: 238.886 -43.323 247.997  -0.476  39.788 190.499

                      1                      2                      3
                      A                      A                      A
 Frequencies --     25.2029                30.4591                39.6200
 Red. masses --      3.8864                 6.5317                 4.1299
 Frc consts  --      0.0015                 0.0036                 0.0038
 IR Inten    --      0.2753                 0.2771                 0.3162

                      4                      5                      6
                      A                      A                      A
 Frequencies --     59.1465                71.1703                94.2207
 Red. masses --      5.5891                 5.0635                 5.4122
 Frc consts  --      0.0115                 0.0151                 0.0283
 IR Inten    --      1.8527                 0.6827                 0.2656

                      7                      8                      9
                      A                      A                      A
 Frequencies --    108.1446               145.1397               180.3541
 Red. masses --      5.1356                 8.3150                 5.9486
 Frc consts  --      0.0354                 0.1032                 0.1140
 IR Inten    --      1.9801                 3.6980                 5.7022

                     10                     11                     12
                      A                      A                      A
 Frequencies --    228.1710               244.1433               288.7024
 Red. masses --      4.1866                 5.6996                 2.7675
 Frc consts  --      0.1284                 0.2002                 0.1359
 IR Inten    --      0.1292                 5.6067                 4.6372

                     13                     14                     15
                      A                      A                      A
 Frequencies --    333.6007               344.1292               413.9258
 Red. masses --      5.8639                 5.5469                 2.7433
 Frc consts  --      0.3845                 0.3870                 0.2769
 IR Inten    --     11.6312                 4.4764                 9.2707

                     16                     17                     18
                      A                      A                      A
 Frequencies --    422.9806               437.4875               445.5322
 Red. masses --      3.1189                 2.4493                 1.3775
 Frc consts  --      0.3288                 0.2762                 0.1611
 IR Inten    --     10.9712                19.0627               134.4340

                     19                     20                     21
                      A                      A                      A
 Frequencies --    502.3574               533.4516               537.2757
 Red. masses --      3.5308                 2.0183                 1.2039
 Frc consts  --      0.5250                 0.3384                 0.2048
 IR Inten    --     10.6514                59.7729               140.2808

                     22                     23                     24
                      A                      A                      A
 Frequencies --    560.0041               576.5143               610.5775
 Red. masses --      4.4799                 1.4681                 6.5733
 Frc consts  --      0.8278                 0.2875                 1.4438
 IR Inten    --      7.5210                77.4537                28.9421

                     25                     26                     27
                      A                      A                      A
 Frequencies --    634.2581               642.7681               686.5281
 Red. masses --      6.3769                 4.2804                 4.7831
 Frc consts  --      1.5114                 1.0419                 1.3282
 IR Inten    --      0.6590                 5.3802                10.8912

                     28                     29                     30
                      A                      A                      A
 Frequencies --    699.9601               717.0332               722.2932
 Red. masses --      4.7228                 2.0488                 3.2552
 Frc consts  --      1.3633                 0.6206                 1.0006
 IR Inten    --      2.6674                19.5397                28.3124

                     31                     32                     33
                      A                      A                      A
 Frequencies --    751.3092               769.4394               822.1839
 Red. masses --      6.3883                 2.4182                 2.2652
 Frc consts  --      2.1246                 0.8435                 0.9022
 IR Inten    --     16.8114                23.6477                17.2901

                     34                     35                     36
                      A                      A                      A
 Frequencies --    835.2732               839.3671               859.4028
 Red. masses --      1.4140                 2.7037                 1.2522
 Frc consts  --      0.5812                 1.1223                 0.5449
 IR Inten    --     36.4394                10.8074                 0.0259

                     37                     38                     39
                      A                      A                      A
 Frequencies --    866.5182               930.2695               945.5298
 Red. masses --      4.1311                 1.4971                 2.4572
 Frc consts  --      1.8276                 0.7633                 1.2943
 IR Inten    --      0.2410                 0.5261                12.6431

                     40                     41                     42
                      A                      A                      A
 Frequencies --    970.2114               977.8199              1001.0683
 Red. masses --      1.3526                 2.3948                 1.2643
 Frc consts  --      0.7501                 1.3491                 0.7465
 IR Inten    --      0.1042                20.6910                 0.2440

                     43                     44                     45
                      A                      A                      A
 Frequencies --   1022.0691              1022.6501              1059.0640
 Red. masses --      5.4807                 4.3417                 2.3508
 Frc consts  --      3.3733                 2.6752                 1.5535
 IR Inten    --      7.6926                 6.0406                 1.6400

                     46                     47                     48
                      A                      A                      A
 Frequencies --   1077.0444              1097.3545              1128.1286
 Red. masses --      2.4611                 2.0509                 1.6662
 Frc consts  --      1.6821                 1.4551                 1.2494
 IR Inten    --     14.3473                11.2715                 1.7901

                     49                     50                     51
                      A                      A                      A
 Frequencies --   1158.3300              1175.5612              1189.7189
 Red. masses --      2.4031                 1.8609                 1.4289
 Frc consts  --      1.8997                 1.5152                 1.1916
 IR Inten    --     33.6202               110.1914                21.9190

                     52                     53                     54
                      A                      A                      A
 Frequencies --   1196.5441              1213.6951              1215.5706
 Red. masses --      1.1007                 1.8812                 1.1766
 Frc consts  --      0.9285                 1.6327                 1.0244
 IR Inten    --      0.0591                60.6863                 0.6920

                     55                     56                     57
                      A                      A                      A
 Frequencies --   1227.1558              1249.0037              1286.1411
 Red. masses --      2.2920                 1.3489                 1.7934
 Frc consts  --      2.0336                 1.2398                 1.7478
 IR Inten    --      1.4547                18.0110                15.9137

                     58                     59                     60
                      A                      A                      A
 Frequencies --   1328.0898              1335.9933              1370.5512
 Red. masses --      1.8030                 1.5291                 2.3959
 Frc consts  --      1.8737                 1.6081                 2.6516
 IR Inten    --      6.8130                27.6915                 2.1806

                     61                     62                     63
                      A                      A                      A
 Frequencies --   1384.0516              1393.4399              1409.3956
 Red. masses --      1.4324                 1.6055                 1.5956
 Frc consts  --      1.6166                 1.8366                 1.8674
 IR Inten    --     25.4490                41.9710               118.6833

                     64                     65                     66
                      A                      A                      A
 Frequencies --   1421.9816              1454.0284              1462.5114
 Red. masses --      1.8325                 2.3792                 3.5002
 Frc consts  --      2.1832                 2.9637                 4.4111
 IR Inten    --     22.2616               114.7868               199.8118

                     67                     68                     69
                      A                      A                      A
 Frequencies --   1505.7094              1510.2448              1519.6205
 Red. masses --      2.1996                 1.1227                 1.1068
 Frc consts  --      2.9382                 1.5087                 1.5059
 IR Inten    --     16.5872                14.4232                17.6008

                     70                     71                     72
                      A                      A                      A
 Frequencies --   1548.0632              1651.2667              1666.5673
 Red. masses --      2.2058                 5.6213                 5.4560
 Frc consts  --      3.1145                 9.0307                 8.9283
 IR Inten    --      8.8685                 0.3246                 5.2664

                     73                     74                     75
                      A                      A                      A
 Frequencies --   1679.5606              1738.6631              1809.7702
 Red. masses --      1.3321                 4.4280                11.6275
 Frc consts  --      2.2140                 7.8865                22.4380
 IR Inten    --     94.9537               223.0197               531.4131

                     76                     77                     78
                      A                      A                      A
 Frequencies --   1882.6180              3065.3832              3074.9690
 Red. masses --     10.9619                 1.0846                 1.0624
 Frc consts  --     22.8908                 6.0047                 5.9189
 IR Inten    --    294.1321                12.5000                 9.0477

                     79                     80                     81
                      A                      A                      A
 Frequencies --   3098.2965              3124.6713              3161.6748
 Red. masses --      1.0632                 1.1037                 1.1027
 Frc consts  --      6.0134                 6.3492                 6.4946
 IR Inten    --     12.3506                16.5952                 2.6175

                     82                     83                     84
                      A                      A                      A
 Frequencies --   3187.5154              3192.5802              3200.0482
 Red. masses --      1.0853                 1.0875                 1.0907
 Frc consts  --      6.4967                 6.5308                 6.5808
 IR Inten    --      2.4870                 0.1739                10.0446

                     85                     86                     87
                      A                      A                      A
 Frequencies --   3207.9926              3216.9516              3475.1174
 Red. masses --      1.0944                 1.0982                 1.0752
 Frc consts  --      6.6358                 6.6958                 7.6505
 IR Inten    --     27.4866                16.6418                 2.2148

                     88                     89                     90
                      A                      A                      A
 Frequencies --   3533.2441              3649.7615              3666.4079
 Red. masses --      1.0503                 1.0788                 1.0997
 Frc consts  --      7.7253                 8.4665                 8.7101
 IR Inten    --    177.9810                54.0130               103.0150

 - Thermochemistry -
 -------------------
 Temperature   298.150 Kelvin.  Pressure   1.00000 Atm.
 Atom     1 has atomic number  6 and mass  12.00000

 Molecular mass:   246.11168 amu.
 Principal axes and moments of inertia in atomic units:
                           1         2         3
     Eigenvalues --  2274.178497812.464559140.70222
           X            0.99999  -0.00416   0.00117
           Y            0.00415   0.99997   0.00686
           Z           -0.00120  -0.00685   0.99998
 This molecule is an asymmetric top.
 Rotational symmetry number  1.
 Warning -- assumption of classical behavior for rotation
           may cause significant error
 Rotational temperatures (Kelvin)      0.03809     0.01109     0.00948
 Rotational constants (GHZ):           0.79358     0.23101     0.19744
 Zero-point vibrational energy     682758.6 (Joules/Mol)
                                  163.18321 (Kcal/Mol)
 Warning -- explicit consideration of  24 degrees of freedom as
           vibrations may cause significant error
 Vibrational temperatures:     36.26    43.82    57.00    85.10   102.40
          (Kelvin)            135.56   155.60   208.82   259.49   328.29
                              351.27   415.38   479.98   495.13   595.55
                              608.57   629.45   641.02   722.78   767.52
                              773.02   805.72   829.48   878.48   912.56
                              924.80   987.76  1007.09  1031.65  1039.22
                             1080.97  1107.05  1182.94  1201.77  1207.66
                             1236.49  1246.73  1338.45  1360.41  1395.92
                             1406.86  1440.31  1470.53  1471.37  1523.76
                             1549.63  1578.85  1623.13  1666.58  1691.37
                             1711.74  1721.56  1746.24  1748.93  1765.60
                             1797.04  1850.47  1910.82  1922.20  1971.92
                             1991.34  2004.85  2027.81  2045.91  2092.02
                             2104.23  2166.38  2172.91  2186.40  2227.32
                             2375.80  2397.82  2416.51  2501.55  2603.86
                             2708.67  4410.40  4424.19  4457.76  4495.71
                             4548.94  4586.12  4593.41  4604.16  4615.59
                             4628.48  4999.92  5083.55  5251.19  5275.14

 Zero-point correction=                           0.260049 (Hartree/Particle)
 Thermal correction to Energy=                    0.276134
 Thermal correction to Enthalpy=                  0.277078
 Thermal correction to Gibbs Free Energy=         0.213974
 Sum of electronic and zero-point Energies=           -835.005063
 Sum of electronic and thermal Energies=              -834.988979
 Sum of electronic and thermal Enthalpies=            -834.988034
 Sum of electronic and thermal Free Energies=         -835.051138

                     E (Thermal)             CV                S
                      KCal/Mol        Cal/Mol-Kelvin    Cal/Mol-Kelvin
 Total                  173.276             61.103            132.812
 Electronic               0.000              0.000              0.000
 Translational            0.889              2.981             42.403
 Rotational               0.889              2.981             33.451
 Vibrational            171.499             55.142             56.959
 Vibration     1          0.593              1.985              6.175
 Vibration     2          0.594              1.984              5.799
 Vibration     3          0.594              1.981              5.278
 Vibration     4          0.597              1.974              4.485
 Vibration     5          0.598              1.968              4.121
 Vibration     6          0.603              1.953              3.570
 Vibration     7          0.606              1.943              3.302
 Vibration     8          0.617              1.908              2.735
 Vibration     9          0.629              1.866              2.325
 Vibration    10          0.651              1.798              1.893
 Vibration    11          0.659              1.772              1.772
 Vibration    12          0.685              1.695              1.482
 Vibration    13          0.715              1.608              1.243
 Vibration    14          0.723              1.587              1.193
 Vibration    15          0.778              1.440              0.913
 Vibration    16          0.785              1.420              0.882
 Vibration    17          0.798              1.388              0.835
 Vibration    18          0.805              1.371              0.809
 Vibration    19          0.858              1.245              0.652
 Vibration    20          0.888              1.176              0.580
 Vibration    21          0.892              1.168              0.571
 Vibration    22          0.916              1.118              0.524
 Vibration    23          0.933              1.082              0.492
 Vibration    24          0.970              1.009              0.432

                           ! Non-Optimized Parameters !
 Normal termination of Gaussian 16 at Fri Dec 11 18:58:55 2020.

 ----------------------------------------------------------------------
 # B3LYP/6-311++G(d,p) empiricaldispersion=gd3bj scf=xqc pop=npa geom=c
 heck
 ----------------------------------------------------------------------

 --------------------------------------
 CID_83967835_JID_8048_Energie_neutraal
 --------------------------------------
 Structure from the checkpoint file:  "JID_8048.chk"
 Charge =  0 Multiplicity = 1

 SCF Done:  E(RB3LYP) =  -835.512179853     A.U. after   16 cycles
 Normal termination of Gaussian 16 at Fri Dec 11 19:04:35 2020.

 ----------------------------------------------------------------------
 # B3LYP/6-311++G(d,p) empiricaldispersion=gd3bj scf=xqc pop=npa geom=c
 heck
 ----------------------------------------------------------------------

 ------------------------------------
 CID_83967835_JID_8048_Energie_kation
 ------------------------------------
 Structure from the checkpoint file:  "JID_8048.chk"
 Charge =  1 Multiplicity = 2

 SCF Done:  E(UB3LYP) =  -835.203784382     A.U. after   33 cycles
 SCF Done:  E(UB3LYP) =  -835.203784382     a.u. after    1 cycles
 Normal termination of Gaussian 16 at Fri Dec 11 19:21:08 2020.
 Gaussian 16:  ES64L-G16RevA.03 25-Dec-2016

 ----------------------------------------------------------------------
 # B3LYP/6-311++G(d,p) empiricaldispersion=gd3bj scf=xqc pop=npa geom=c
 heck
 ----------------------------------------------------------------------

 -----------------------------------
 CID_83967835_JID_8048_Energie_anion
 -----------------------------------
 Structure from the checkpoint file:  "JID_8048.chk"
 Charge = -1 Multiplicity = 2

                         Standard orientation:
 ---------------------------------------------------------------------
 Center     Atomic      Atomic             Coordinates (Angstroms)
 Number     Number       Type             X           Y           Z
 ---------------------------------------------------------------------
      1          6           0        4.572687   -1.086648    0.941112
      2          6           0        4.114766   -1.700741   -0.225786
      3          6           0        3.007273   -1.186165   -0.897560
      4          6           0        2.348653   -0.055423   -0.406752
      5          6           0        2.803055    0.552218    0.767179
      6          6           0        3.914740    0.040012    1.435786
      7          6           0        1.110505    0.449894   -1.123791
      8          6           0       -0.161884   -0.194914   -0.540611
      9          8           0       -0.446480   -1.379597   -0.561274
     10          7           0       -0.897500    0.817407    0.015463
     11          6           0       -0.298562    2.087062   -0.181270
     12          8           0       -0.724780    3.138002    0.246828
     13          7           0        0.820234    1.861982   -0.945246
     14          6           0       -2.163949    0.625914    0.707249
     15          6           0       -3.333732    0.271574   -0.250485
     16          6           0       -4.065823   -0.984644    0.199080
     17          7           0       -5.219161   -1.028673    0.761916
     18          7           0       -3.365378   -2.140541   -0.051065
     19          1           0        5.438760   -1.484173    1.462051
     20          1           0        4.621967   -2.578303   -0.615803
     21          1           0        2.646804   -1.665634   -1.803429
     22          1           0        2.290769    1.426245    1.158798
     23          1           0        4.264318    0.520851    2.344764
     24          1           0        1.164506    0.184346   -2.186144
     25          1           0        1.525099    2.581558   -1.014307
     26          1           0       -2.018512   -0.169960    1.442536
     27          1           0       -2.355505    1.557590    1.241110
     28          1           0       -4.037615    1.105861   -0.307683
     29          1           0       -2.936349    0.113618   -1.258862
     30          1           0       -5.612862   -0.088613    0.822100
     31          1           0       -2.363045   -2.083560   -0.198600
     32          1           0       -3.711988   -2.967137    0.416660
 ---------------------------------------------------------------------

 SCF Done:  E(UB3LYP) =  -835.511823846     A.U. after   33 cycles
 SCF Done:  E(UB3LYP) =  -835.511823846     a.u. after    1 cycles

 The electronic state is 2-A.
 Alpha  occ. eigenvalues --  -18.99987 -18.99022 -14.25689 -14.24089 -14.22123
 Alpha  occ. eigenvalues --  -14.18364 -10.20398 -10.15730 -10.15351 -10.12748
 Alpha  occ. eigenvalues --  -10.11837 -10.09610 -10.07161 -10.06845 -10.06802
 Alpha  occ. eigenvalues --  -10.06647 -10.06276 -10.05977  -0.97321  -0.93840
 Alpha  occ. eigenvalues --   -0.87338  -0.85350  -0.81657  -0.75579  -0.74996
 Alpha  occ. eigenvalues --   -0.68567  -0.66757  -0.64015  -0.60624  -0.58428
 Alpha  occ. eigenvalues --   -0.53241  -0.50180  -0.49493  -0.48804  -0.47666
 Alpha  occ. eigenvalues --   -0.44336  -0.42282  -0.41083  -0.39992  -0.37836
 Alpha  occ. eigenvalues --   -0.37299  -0.35728  -0.35496  -0.34943  -0.34191
 Alpha  occ. eigenvalues --   -0.33763  -0.32565  -0.32125  -0.31545  -0.31187
 Alpha  occ. eigenvalues --   -0.30447  -0.29127  -0.27132  -0.25918  -0.25568
 Alpha  occ. eigenvalues --   -0.24535  -0.23894  -0.19614  -0.18484  -0.17516
 Alpha  occ. eigenvalues --   -0.16646  -0.16513  -0.15011  -0.14952  -0.13995
 Alpha  occ. eigenvalues --    0.04325
 Alpha virt. eigenvalues --    0.06976   0.07142   0.08036   0.08061   0.08769
 Alpha virt. eigenvalues --    0.08961   0.09282   0.09449   0.09983   0.10267
 Alpha virt. eigenvalues --    0.10484   0.11311   0.11961   0.12880   0.13069

  Beta  occ. eigenvalues --  -18.99934 -18.98810 -14.25699 -14.24074 -14.22119
  Beta  occ. eigenvalues --  -14.18362 -10.20337 -10.15404 -10.15351 -10.12747
  Beta  occ. eigenvalues --  -10.11869 -10.09600 -10.07022 -10.06857 -10.06827
  Beta  occ. eigenvalues --  -10.06591 -10.06166 -10.05886  -0.97162  -0.93479
  Beta  occ. eigenvalues --   -0.87197  -0.85344  -0.81603  -0.75573  -0.74833
  Beta  occ. eigenvalues --   -0.68509  -0.66520  -0.63894  -0.60376  -0.58363
  Beta  occ. eigenvalues --   -0.53044  -0.50063  -0.49401  -0.48666  -0.47545
  Beta  occ. eigenvalues --   -0.44310  -0.42167  -0.40916  -0.39780  -0.37619
  Beta  occ. eigenvalues --   -0.37172  -0.35695  -0.35396  -0.34811  -0.34067
  Beta  occ. eigenvalues --   -0.33676  -0.32395  -0.32048  -0.31448  -0.30943
  Beta  occ. eigenvalues --   -0.30153  -0.28815  -0.26546  -0.25560  -0.25523
  Beta  occ. eigenvalues --   -0.24399  -0.23797  -0.19523  -0.18197  -0.17420
  Beta  occ. eigenvalues --   -0.16430  -0.16231  -0.14910  -0.14684  -0.13442
  Beta virt. eigenvalues --    0.06812   0.07072   0.08262   0.08310   0.08787
  Beta virt. eigenvalues --    0.09016   0.09044   0.09410   0.10069   0.10378
  Beta virt. eigenvalues --    0.10799   0.10957   0.11288   0.11991   0.12892

 Mulliken charges and spin densities:
               1          2
     1  C    0.044214  -0.595274
     2  C    0.293572  -0.368928
     3  C   -0.062244  -0.296593
     4  C    0.273669   0.328792
     5  C   -1.442226   0.866838
     6  C   -0.138320   0.158482
     7  C    1.947594  -1.343586
     8  C   -0.467139  -0.053322
     9  O   -0.365561   0.090707
    10  N    0.115195  -0.028199
    11  C    0.273870  -0.121332
    12  O   -0.386377   0.023152
    13  N   -0.313560   0.015347
    14  C   -0.353254   0.021693
    15  C    0.052386  -0.190327
    16  C   -0.241665  -0.011535
    17  N   -0.373894   0.012062
    18  N   -0.316361   0.007657
    19  H   -0.021500   0.135129
    20  H   -0.154735   0.317272
    21  H   -0.203110   0.356115
    22  H    0.088219   0.085657
    23  H   -0.084029   0.241245
    24  H   -0.760742   1.082335
    25  H    0.180286   0.126062
    26  H    0.203536   0.007106
    27  H    0.165389   0.029163
    28  H    0.145221   0.006666
    29  H    0.170735   0.066889
    30  H    0.156368   0.022035
    31  H    0.340219  -0.011827
    32  H    0.234244   0.020516
 Sum of Mulliken charges =  -1.00000   1.00000

 Dipole moment (field-independent basis, Debye):
    X=             -2.0106    Y=              1.5788    Z=              2.3541  Tot=              3.4752
 Quadrupole moment (field-independent basis, Debye-Ang):
   XX=           -181.7681   YY=           -140.0859   ZZ=           -134.6646
   XY=             -2.6900   XZ=              6.7014   YZ=             -3.2874

 Summary of Natural Population Analysis:

                                       Natural Population
                Natural  -----------------------------------------------
    Atom  No    Charge         Core      Valence    Rydberg      Total
 -----------------------------------------------------------------------
      C    1   -0.09073      0.99956     2.08133    0.00984     3.09073
      C    2   -0.10461      0.99956     2.09551    0.00954     3.10461
      C    3   -0.07845      0.99951     2.06858    0.01036     3.07845
      C    4   -0.00439      0.99948     1.99364    0.01126     3.00439
      C    5   -0.10903      0.99951     2.09981    0.00971     3.10903
      C    6   -0.09409      0.99957     2.08483    0.00970     3.09409
      C    7   -0.05088      0.99954     2.03729    0.01405     3.05088
      C    8    0.39992      0.99964     1.57685    0.02359     2.60008
      O    9   -0.30416      0.99986     3.29894    0.00536     4.30416
      N   10   -0.26718      0.99958     2.75930    0.00830     3.76718
      C   11    0.42236      0.99969     1.55445    0.02350     2.57764
      O   12   -0.32281      0.99987     3.31777    0.00518     4.32281
      N   13   -0.32279      0.99968     2.81393    0.00918     3.82279
      C   14   -0.08755      0.99962     2.07686    0.01107     3.08755
      C   15   -0.22677      0.99957     2.21920    0.00799     3.22677
      C   16    0.22581      0.99967     1.75701    0.01751     2.77419
      N   17   -0.37675      0.99970     2.86829    0.00876     3.87675
      N   18   -0.40953      0.99969     2.90024    0.00960     3.90953
      H   19    0.09518      0.00000     0.40398    0.00084     0.40482
      H   20    0.09792      0.00000     0.40117    0.00091     0.40208
      H   21    0.10471      0.00000     0.39388    0.00142     0.39529
      H   22    0.10037      0.00000     0.39846    0.00117     0.39963
      H   23    0.09605      0.00000     0.40311    0.00084     0.40395
      H   24    0.11808      0.00000     0.37425    0.00767     0.38192
      H   25    0.19898      0.00000     0.29871    0.00231     0.30102
      H   26    0.10303      0.00000     0.39565    0.00131     0.39697
      H   27    0.11272      0.00000     0.38595    0.00133     0.38728
      H   28    0.10231      0.00000     0.39637    0.00132     0.39769
      H   29    0.11435      0.00000     0.38422    0.00144     0.38565
      H   30    0.15961      0.00000     0.33801    0.00238     0.34039
      H   31    0.21074      0.00000     0.28731    0.00195     0.28926
      H   32    0.18755      0.00000     0.31036    0.00209     0.31245
 =======================================================================
   * Total *    0.00000     17.99331    46.77524    0.23145    65.00000

 Normal termination of Gaussian 16 at Fri Dec 11 19:37:54 2020.
