 Gaussian 16, Revision A.03,

 -----------------------------------------------------------
 # opt freq B3LYP/6-31G(d) empiricaldispersion=gd3bj scf=xqc
 -----------------------------------------------------------

 -------------------------------
 CID_127699717_JID_8271_neutraal
 -------------------------------
 Symbolic Z-matrix:
 Charge =  0 Multiplicity = 1

 SCF Done:  E(RB3LYP) =  -806.718670627     A.U. after   14 cycles
 SCF Done:  E(RB3LYP) =  -806.730387017     A.U. after   12 cycles
 SCF Done:  E(RB3LYP) =  -806.730912038     A.U. after   12 cycles
 SCF Done:  E(RB3LYP) =  -806.731746433     A.U. after   12 cycles
 SCF Done:  E(RB3LYP) =  -806.731966081     A.U. after   11 cycles
 SCF Done:  E(RB3LYP) =  -806.732106186     A.U. after   11 cycles
 SCF Done:  E(RB3LYP) =  -806.732169500     A.U. after   10 cycles
 SCF Done:  E(RB3LYP) =  -806.732237662     A.U. after   11 cycles
 SCF Done:  E(RB3LYP) =  -806.732291025     A.U. after   10 cycles
 SCF Done:  E(RB3LYP) =  -806.732315545     A.U. after   10 cycles
 SCF Done:  E(RB3LYP) =  -806.732353095     A.U. after    7 cycles
 SCF Done:  E(RB3LYP) =  -806.732353154     A.U. after    7 cycles
 SCF Done:  E(RB3LYP) =  -806.732353177     A.U. after    6 cycles
 SCF Done:  E(RB3LYP) =  -806.732353158     A.U. after    6 cycles
 Optimization completed.
    -- Stationary point found.
 Normal termination of Gaussian 16 at Fri Dec 11 19:59:18 2020.

 --------------------------------------------------------------------
 #N Geom=AllCheck Guess=TCheck SCRF=Check GenChk RB3LYP/6-31G(d) Freq
 --------------------------------------------------------------------

 Structure from the checkpoint file:  "JID_8271.chk"
 -------------------------------
 CID_127699717_JID_8271_neutraal
 -------------------------------
 Charge =  0 Multiplicity = 1

 SCF Done:  E(RB3LYP) =  -806.732353157     A.U. after    1 cycles

  Exact polarizability: 192.919   4.851 143.237  -3.591   7.645 136.696
 Approx polarizability: 240.927  14.302 207.839   0.444  13.911 219.591

                      1                      2                      3
                      A                      A                      A
 Frequencies --     22.7383                32.3743                48.3295
 Red. masses --      3.9553                 3.6953                 3.4736
 Frc consts  --      0.0012                 0.0023                 0.0048
 IR Inten    --      0.2747                 0.0753                 0.1917

                      4                      5                      6
                      A                      A                      A
 Frequencies --     56.7364                71.3177               106.4817
 Red. masses --      5.6341                 2.3457                 3.4098
 Frc consts  --      0.0107                 0.0070                 0.0228
 IR Inten    --      2.7555                 0.4078                 0.5358

                      7                      8                      9
                      A                      A                      A
 Frequencies --    116.6933               194.7746               202.8391
 Red. masses --      3.7669                 3.8277                 3.1572
 Frc consts  --      0.0302                 0.0856                 0.0765
 IR Inten    --      1.3053                 1.5974                 0.2301

                     10                     11                     12
                      A                      A                      A
 Frequencies --    225.8294               242.3255               271.6999
 Red. masses --      3.1324                 2.8365                 2.1137
 Frc consts  --      0.0941                 0.0981                 0.0919
 IR Inten    --      3.4343                 5.9381                 0.9648

                     13                     14                     15
                      A                      A                      A
 Frequencies --    322.0406               338.4841               358.2460
 Red. masses --      3.1402                 2.7757                 3.7458
 Frc consts  --      0.1919                 0.1874                 0.2832
 IR Inten    --      3.0911                 4.2760                 1.2064

                     16                     17                     18
                      A                      A                      A
 Frequencies --    390.9002               404.2938               421.9726
 Red. masses --      2.6968                 2.2634                 2.3759
 Frc consts  --      0.2428                 0.2180                 0.2493
 IR Inten    --      3.2732                 4.1576                 4.3302

                     19                     20                     21
                      A                      A                      A
 Frequencies --    449.4937               475.8052               486.5563
 Red. masses --      2.4404                 3.2316                 2.8489
 Frc consts  --      0.2905                 0.4311                 0.3974
 IR Inten    --      2.6538                 0.3132                 4.9911

                     22                     23                     24
                      A                      A                      A
 Frequencies --    532.7482               569.0958               586.3599
 Red. masses --      3.0815                 3.4515                 2.9849
 Frc consts  --      0.5153                 0.6586                 0.6047
 IR Inten    --     18.6675                 1.0220                24.8977

                     25                     26                     27
                      A                      A                      A
 Frequencies --    616.4319               681.6210               716.8803
 Red. masses --      3.0855                 1.8794                 1.9593
 Frc consts  --      0.6908                 0.5145                 0.5932
 IR Inten    --     12.0467                 1.6682                 9.4208

                     28                     29                     30
                      A                      A                      A
 Frequencies --    731.2821               740.3529               760.5412
 Red. masses --      1.8106                 2.0594                 2.1937
 Frc consts  --      0.5705                 0.6651                 0.7476
 IR Inten    --     10.7544                 5.9964                20.7851

                     31                     32                     33
                      A                      A                      A
 Frequencies --    780.0899               805.7636               818.7699
 Red. masses --      1.5219                 2.3260                 3.8286
 Frc consts  --      0.5457                 0.8898                 1.5122
 IR Inten    --      3.7763                 3.5203                49.8800

                     34                     35                     36
                      A                      A                      A
 Frequencies --    853.5142               863.5944               874.9550
 Red. masses --      2.9521                 2.3097                 2.3018
 Frc consts  --      1.2671                 1.0149                 1.0382
 IR Inten    --     22.3934                 6.1542                 7.0576

                     37                     38                     39
                      A                      A                      A
 Frequencies --    880.5279               907.7029               913.0855
 Red. masses --      1.5007                 2.0043                 2.0630
 Frc consts  --      0.6855                 0.9730                 1.0134
 IR Inten    --     16.2056                16.1859                12.9917

                     40                     41                     42
                      A                      A                      A
 Frequencies --    942.3114               953.0203               954.3148
 Red. masses --      2.3726                 2.1274                 2.4163
 Frc consts  --      1.2412                 1.1384                 1.2966
 IR Inten    --      1.7877                 5.6656                 2.4267

                     43                     44                     45
                      A                      A                      A
 Frequencies --    976.2295              1003.0700              1006.3036
 Red. masses --      2.5325                 1.2770                 2.3743
 Frc consts  --      1.4220                 0.7570                 1.4166
 IR Inten    --      1.7949                 4.0512                 2.6349

                     46                     47                     48
                      A                      A                      A
 Frequencies --   1019.3500              1024.8054              1064.5689
 Red. masses --      1.7160                 3.2613                 1.1664
 Frc consts  --      1.0505                 2.0180                 0.7788
 IR Inten    --     14.9459                 2.0822                 3.4581

                     49                     50                     51
                      A                      A                      A
 Frequencies --   1073.8174              1080.9369              1113.7812
 Red. masses --      1.7777                 2.2378                 2.2395
 Frc consts  --      1.2078                 1.5405                 1.6368
 IR Inten    --      3.4507                52.4174                13.7456

                     52                     53                     54
                      A                      A                      A
 Frequencies --   1116.4797              1123.3711              1129.3791
 Red. masses --      2.0046                 2.6206                 2.8917
 Frc consts  --      1.4723                 1.9485                 2.1731
 IR Inten    --      1.9241                17.5540                92.6063

                     55                     56                     57
                      A                      A                      A
 Frequencies --   1158.1346              1171.2197              1172.1438
 Red. masses --      2.9724                 1.1719                 2.2245
 Frc consts  --      2.3489                 0.9472                 1.8007
 IR Inten    --     29.3493                 6.7778                16.2686

                     58                     59                     60
                      A                      A                      A
 Frequencies --   1200.5006              1210.7715              1220.4708
 Red. masses --      1.3333                 1.9181                 1.3058
 Frc consts  --      1.1321                 1.6567                 1.1460
 IR Inten    --     29.9726                 6.7713                 1.6230

                     61                     62                     63
                      A                      A                      A
 Frequencies --   1235.4297              1268.3124              1269.6856
 Red. masses --      2.1081                 1.2366                 1.7607
 Frc consts  --      1.8958                 1.1721                 1.6723
 IR Inten    --      6.2593                 0.8319                25.1623

                     64                     65                     66
                      A                      A                      A
 Frequencies --   1271.7808              1282.6773              1292.3547
 Red. masses --      1.2586                 1.8535                 1.2172
 Frc consts  --      1.1994                 1.7967                 1.1978
 IR Inten    --      2.3687                86.4266                11.4612

                     67                     68                     69
                      A                      A                      A
 Frequencies --   1293.2534              1304.4603              1321.0342
 Red. masses --      1.4600                 1.3872                 1.4500
 Frc consts  --      1.4387                 1.3908                 1.4909
 IR Inten    --      5.5961               107.4354                68.4006

                     70                     71                     72
                      A                      A                      A
 Frequencies --   1331.4137              1346.5613              1366.4254
 Red. masses --      1.7554                 1.3092                 1.4310
 Frc consts  --      1.8334                 1.3986                 1.5742
 IR Inten    --     47.4225                 8.0971                 2.1530

                     73                     74                     75
                      A                      A                      A
 Frequencies --   1375.2470              1382.2759              1393.0023
 Red. masses --      1.4711                 1.4841                 1.5507
 Frc consts  --      1.6393                 1.6707                 1.7729
 IR Inten    --      0.9591                18.8148                 0.0751

                     76                     77                     78
                      A                      A                      A
 Frequencies --   1410.9146              1415.4707              1430.5065
 Red. masses --      1.4907                 1.5292                 1.3780
 Frc consts  --      1.7484                 1.8051                 1.6614
 IR Inten    --      3.0432                 3.4329                 7.7327

                     79                     80                     81
                      A                      A                      A
 Frequencies --   1436.8137              1455.6912              1491.8169
 Red. masses --      1.5183                 2.0108                 1.0969
 Frc consts  --      1.8468                 2.5105                 1.4383
 IR Inten    --     23.2137               297.2319                 1.4063

                     82                     83                     84
                      A                      A                      A
 Frequencies --   1492.9360              1501.6391              1503.1391
 Red. masses --      1.7080                 1.0902                 1.0891
 Frc consts  --      2.2430                 1.4484                 1.4498
 IR Inten    --     72.1699                 0.6485                 2.9658

                     85                     86                     87
                      A                      A                      A
 Frequencies --   1514.5795              1519.6001              1520.0131
 Red. masses --      1.0851                 1.0924                 1.0933
 Frc consts  --      1.4666                 1.4862                 1.4883
 IR Inten    --     11.4707                 2.1826                 5.3472

                     88                     89                     90
                      A                      A                      A
 Frequencies --   1529.3543              1531.6975              1532.0665
 Red. masses --      1.1255                 1.1071                 1.1021
 Frc consts  --      1.5511                 1.5303                 1.5242
 IR Inten    --      6.2588                11.6226                 6.3708

                     91                     92                     93
                      A                      A                      A
 Frequencies --   1736.2406              1774.5578              3000.6777
 Red. masses --      6.4642                 7.9234                 1.0731
 Frc consts  --     11.4811                14.7009                 5.6929
 IR Inten    --      4.2394               328.7489                19.3169

                     94                     95                     96
                      A                      A                      A
 Frequencies --   3005.0275              3008.6827              3014.4425
 Red. masses --      1.0729                 1.0702                 1.0702
 Frc consts  --      5.7081                 5.7077                 5.7297
 IR Inten    --     38.5529                31.9109                90.3269

                     97                     98                     99
                      A                      A                      A
 Frequencies --   3037.4570              3048.6858              3061.9597
 Red. masses --      1.0689                 1.0707                 1.0816
 Frc consts  --      5.8106                 5.8631                 5.9749
 IR Inten    --     13.8674                 8.9725                47.6907

                    100                    101                    102
                      A                      A                      A
 Frequencies --   3073.7008              3074.8192              3078.0144
 Red. masses --      1.0832                 1.0596                 1.0601
 Frc consts  --      6.0296                 5.9024                 5.9177
 IR Inten    --     40.7860                51.3602                17.9392

                    103                    104                    105
                      A                      A                      A
 Frequencies --   3087.2430              3094.3099              3100.0259
 Red. masses --      1.0608                 1.1013                 1.0971
 Frc consts  --      5.9567                 6.2125                 6.2117
 IR Inten    --     37.0466                39.0954                30.9810

                    106                    107                    108
                      A                      A                      A
 Frequencies --   3112.4635              3122.2119              3134.3104
 Red. masses --      1.0955                 1.1076                 1.1068
 Frc consts  --      6.2528                 6.3617                 6.4065
 IR Inten    --     47.4398                 3.9547                10.7574

                    109                    110                    111
                      A                      A                      A
 Frequencies --   3145.6191              3156.4621              3162.1537
 Red. masses --      1.1075                 1.0851                 1.0910
 Frc consts  --      6.4566                 6.3700                 6.4273
 IR Inten    --     42.5647                13.6050                 7.0832

                    112                    113                    114
                      A                      A                      A
 Frequencies --   3169.6371              3181.9945              3558.9092
 Red. masses --      1.0892                 1.0960                 1.0745
 Frc consts  --      6.4476                 6.5384                 8.0188
 IR Inten    --     14.9723                35.3145                12.5633

 - Thermochemistry -
 -------------------
 Temperature   298.150 Kelvin.  Pressure   1.00000 Atm.
 Atom     1 has atomic number  6 and mass  12.00000

 Molecular mass:   250.16813 amu.
 Principal axes and moments of inertia in atomic units:
                           1         2         3
     Eigenvalues --  2236.090657529.723787838.65968
           X            0.99999   0.00093  -0.00387
           Y           -0.00062   0.99686   0.07916
           Z            0.00393  -0.07915   0.99685
 This molecule is an asymmetric top.
 Rotational symmetry number  1.
 Warning -- assumption of classical behavior for rotation
           may cause significant error
 Rotational temperatures (Kelvin)      0.03873     0.01150     0.01105
 Rotational constants (GHZ):           0.80710     0.23968     0.23024
 Zero-point vibrational energy     930383.6 (Joules/Mol)
                                  222.36701 (Kcal/Mol)
 Warning -- explicit consideration of  25 degrees of freedom as
           vibrations may cause significant error
 Vibrational temperatures:     32.72    46.58    69.54    81.63   102.61
          (Kelvin)            153.20   167.90   280.24   291.84   324.92
                              348.65   390.92   463.34   487.00   515.44
                              562.42   581.69   607.12   646.72   684.58
                              700.05   766.51   818.80   843.64   886.91
                              980.70  1031.43  1052.15  1065.20  1094.25
                             1122.38  1159.31  1178.03  1228.02  1242.52
                             1258.87  1266.88  1305.98  1313.73  1355.78
                             1371.18  1373.05  1404.58  1443.19  1447.85
                             1466.62  1474.47  1531.68  1544.98  1555.23
                             1602.48  1606.37  1616.28  1624.92  1666.30
                             1685.12  1686.45  1727.25  1742.03  1755.99
                             1777.51  1824.82  1826.79  1829.81  1845.49
                             1859.41  1860.70  1876.83  1900.67  1915.61
                             1937.40  1965.98  1978.67  1988.79  2004.22
                             2029.99  2036.55  2058.18  2067.25  2094.41
                             2146.39  2148.00  2160.52  2162.68  2179.14
                             2186.37  2186.96  2200.40  2203.77  2204.30
                             2498.06  2553.19  4317.31  4323.56  4328.82
                             4337.11  4370.22  4386.38  4405.48  4422.37
                             4423.98  4428.58  4441.85  4452.02  4460.25
                             4478.14  4492.17  4509.57  4525.84  4541.44
                             4549.63  4560.40  4578.18  5120.48

 Zero-point correction=                           0.354364 (Hartree/Particle)
 Thermal correction to Energy=                    0.370845
 Thermal correction to Enthalpy=                  0.371789
 Thermal correction to Gibbs Free Energy=         0.308570
 Sum of electronic and zero-point Energies=           -806.377989
 Sum of electronic and thermal Energies=              -806.361509
 Sum of electronic and thermal Enthalpies=            -806.360564
 Sum of electronic and thermal Free Energies=         -806.423783

                     E (Thermal)             CV                S
                      KCal/Mol        Cal/Mol-Kelvin    Cal/Mol-Kelvin
 Total                  232.708             64.948            133.055
 Electronic               0.000              0.000              0.000
 Translational            0.889              2.981             42.451
 Rotational               0.889              2.981             33.245
 Vibrational            230.931             58.986             57.358
 Vibration     1          0.593              1.985              6.379
 Vibration     2          0.594              1.983              5.678
 Vibration     3          0.595              1.978              4.885
 Vibration     4          0.596              1.975              4.568
 Vibration     5          0.598              1.968              4.117
 Vibration     6          0.605              1.944              3.332
 Vibration     7          0.608              1.936              3.154
 Vibration     8          0.635              1.847              2.182
 Vibration     9          0.639              1.836              2.107
 Vibration    10          0.650              1.802              1.912
 Vibration    11          0.659              1.775              1.786
 Vibration    12          0.675              1.725              1.585
 Vibration    13          0.707              1.631              1.300
 Vibration    14          0.719              1.599              1.219
 Vibration    15          0.733              1.558              1.130
 Vibration    16          0.759              1.490              0.997
 Vibration    17          0.769              1.461              0.947
 Vibration    18          0.784              1.422              0.885
 Vibration    19          0.808              1.362              0.797
 Vibration    20          0.832              1.304              0.721
 Vibration    21          0.843              1.280              0.693
 Vibration    22          0.888              1.178              0.581
 Vibration    23          0.925              1.098              0.506
 Vibration    24          0.943              1.061              0.474
 Vibration    25          0.976              0.997              0.422

 Optimization completed.
    -- Stationary point found.
 Normal termination of Gaussian 16 at Fri Dec 11 20:17:49 2020.

 ----------------------------------------------------------------------
 # B3LYP/6-311++G(d,p) empiricaldispersion=gd3bj scf=xqc pop=npa geom=c
 heck
 ----------------------------------------------------------------------

 ---------------------------------------
 CID_127699717_JID_8271_Energie_neutraal
 ---------------------------------------
 Structure from the checkpoint file:  "JID_8271.chk"
 Charge =  0 Multiplicity = 1

 SCF Done:  E(RB3LYP) =  -806.958171183     A.U. after   14 cycles
 Normal termination of Gaussian 16 at Fri Dec 11 20:26:07 2020.

 ----------------------------------------------------------------------
 # B3LYP/6-311++G(d,p) empiricaldispersion=gd3bj scf=xqc pop=npa geom=c
 heck
 ----------------------------------------------------------------------

 -------------------------------------
 CID_127699717_JID_8271_Energie_kation
 -------------------------------------
 Structure from the checkpoint file:  "JID_8271.chk"
 Charge =  1 Multiplicity = 2

 SCF Done:  E(UB3LYP) =  -806.655862045     A.U. after   33 cycles
 SCF Done:  E(UB3LYP) =  -806.655864561     a.u. after    3 cycles
 Normal termination of Gaussian 16 at Fri Dec 11 21:38:53 2020.
 Gaussian 16:  ES64L-G16RevA.03 25-Dec-2016

 ----------------------------------------------------------------------
 # B3LYP/6-311++G(d,p) empiricaldispersion=gd3bj scf=xqc pop=npa geom=c
 heck
 ----------------------------------------------------------------------

 ------------------------------------
 CID_127699717_JID_8271_Energie_anion
 ------------------------------------
 Structure from the checkpoint file:  "JID_8271.chk"
 Charge = -1 Multiplicity = 2

                         Standard orientation:
 ---------------------------------------------------------------------
 Center     Atomic      Atomic             Coordinates (Angstroms)
 Number     Number       Type             X           Y           Z
 ---------------------------------------------------------------------
      1          6           0        3.043799    1.622479    0.565960
      2          6           0        4.381205    1.387810   -0.149182
      3          6           0        4.452511    0.026577   -0.792450
      4          6           0        3.393478   -0.765831   -0.984142
      5          6           0        1.993941   -0.382836   -0.570481
      6          6           0        1.882639    1.129039   -0.300352
      7          7           0        1.630275   -1.225008    0.599653
      8          6           0        0.437537   -0.963470    1.292850
      9          8           0        0.426591   -0.692757    2.489527
     10          7           0       -0.706838   -1.011385    0.526168
     11          6           0       -0.900654   -1.884113   -0.626473
     12          6           0       -1.718146   -1.131191   -1.670995
     13          8           0       -2.941643   -0.664080   -1.117579
     14          6           0       -2.758607    0.174459    0.030753
     15          6           0       -1.966858   -0.562403    1.102798
     16          6           0       -4.137544    0.749501    0.419884
     17          6           0       -3.776899    2.065922   -0.318789
     18          6           0       -2.293124    1.611161   -0.356298
     19          1           0        2.922235    2.684299    0.806488
     20          1           0        3.031804    1.082902    1.521665
     21          1           0        4.532825    2.156198   -0.923884
     22          1           0        5.218551    1.508101    0.550816
     23          1           0        5.434151   -0.311167   -1.122231
     24          1           0        3.516506   -1.751534   -1.428096
     25          1           0        1.309303   -0.637002   -1.386172
     26          1           0        0.917157    1.347276    0.167844
     27          1           0        1.895464    1.653042   -1.266120
     28          1           0        2.381318   -1.224845    1.282656
     29          1           0        0.060903   -2.212086   -1.019370
     30          1           0       -1.459614   -2.779310   -0.310734
     31          1           0       -1.124080   -0.291691   -2.064699
     32          1           0       -1.992160   -1.786093   -2.503324
     33          1           0       -2.554167   -1.421293    1.465248
     34          1           0       -1.747742    0.082266    1.953821
     35          1           0       -4.990054    0.175247    0.048541
     36          1           0       -4.233770    0.880255    1.502823
     37          1           0       -3.992659    3.001376    0.204518
     38          1           0       -4.219408    2.110644   -1.317220
     39          1           0       -1.685486    2.069295    0.430593
     40          1           0       -1.764397    1.710937   -1.308004
 ---------------------------------------------------------------------

 SCF Done:  E(UB3LYP) =  -806.946569707     A.U. after   33 cycles
 SCF Done:  E(UB3LYP) =  -806.946569707     a.u. after    1 cycles

 The electronic state is 2-A.
 Alpha  occ. eigenvalues --  -19.04216 -18.99654 -14.25024 -14.22912 -10.20182
 Alpha  occ. eigenvalues --  -10.14409 -10.13044 -10.11960 -10.11889 -10.11489
 Alpha  occ. eigenvalues --  -10.08638 -10.08523 -10.08034 -10.07995 -10.07744
 Alpha  occ. eigenvalues --  -10.07418 -10.07194 -10.07081  -0.96424  -0.95490
 Alpha  occ. eigenvalues --   -0.85255  -0.82197  -0.76220  -0.73355  -0.67405
 Alpha  occ. eigenvalues --   -0.65400  -0.64844  -0.62618  -0.58797  -0.56810
 Alpha  occ. eigenvalues --   -0.53976  -0.53245  -0.51362  -0.47610  -0.45539
 Alpha  occ. eigenvalues --   -0.43634  -0.43170  -0.41269  -0.40754  -0.39804
 Alpha  occ. eigenvalues --   -0.39108  -0.37188  -0.36650  -0.36253  -0.35611
 Alpha  occ. eigenvalues --   -0.34962  -0.33569  -0.33282  -0.32104  -0.31457
 Alpha  occ. eigenvalues --   -0.30724  -0.30359  -0.29744  -0.29139  -0.28751
 Alpha  occ. eigenvalues --   -0.26853  -0.25541  -0.24469  -0.24366  -0.24022
 Alpha  occ. eigenvalues --   -0.23377  -0.22202  -0.21763  -0.19615  -0.18440
 Alpha  occ. eigenvalues --   -0.16592  -0.15428  -0.14979   0.04066
 Alpha virt. eigenvalues --    0.05978   0.06282   0.07215   0.07551   0.08062
 Alpha virt. eigenvalues --    0.08456   0.08983   0.09163   0.09326   0.09752
 Alpha virt. eigenvalues --    0.10055   0.10891   0.11048   0.11433   0.11796

  Beta  occ. eigenvalues --  -19.04213 -18.99652 -14.25024 -14.22908 -10.20179
  Beta  occ. eigenvalues --  -10.14410 -10.13017 -10.11943 -10.11878 -10.11486
  Beta  occ. eigenvalues --  -10.08633 -10.08511 -10.08015 -10.07982 -10.07720
  Beta  occ. eigenvalues --  -10.07402 -10.07180 -10.07063  -0.96418  -0.95483
  Beta  occ. eigenvalues --   -0.85249  -0.82185  -0.76208  -0.73323  -0.67379
  Beta  occ. eigenvalues --   -0.65364  -0.64808  -0.62600  -0.58766  -0.56774
  Beta  occ. eigenvalues --   -0.53940  -0.53202  -0.51314  -0.47585  -0.45506
  Beta  occ. eigenvalues --   -0.43607  -0.43137  -0.41234  -0.40700  -0.39781
  Beta  occ. eigenvalues --   -0.39090  -0.37168  -0.36622  -0.36225  -0.35586
  Beta  occ. eigenvalues --   -0.34945  -0.33541  -0.33259  -0.32072  -0.31428
  Beta  occ. eigenvalues --   -0.30702  -0.30326  -0.29720  -0.29118  -0.28724
  Beta  occ. eigenvalues --   -0.26833  -0.25522  -0.24435  -0.24344  -0.24001
  Beta  occ. eigenvalues --   -0.23340  -0.22167  -0.21748  -0.19607  -0.18428
  Beta  occ. eigenvalues --   -0.16571  -0.15414  -0.14971
  Beta virt. eigenvalues --    0.06023   0.06599   0.07067   0.07539   0.08038
  Beta virt. eigenvalues --    0.08466   0.08727   0.09282   0.09478   0.09581
  Beta virt. eigenvalues --    0.09992   0.10405   0.11126   0.11191   0.11500

 Mulliken charges and spin densities:
               1          2
     1  C   -0.740614   0.440399
     2  C    0.790366  -1.618418
     3  C    1.266929  -1.292491
     4  C   -1.276474   1.257624
     5  C    1.455766  -1.690362
     6  C   -0.518882   0.259753
     7  N   -0.087382   0.097459
     8  C   -0.000778  -0.131192
     9  O   -0.296447   0.006156
    10  N    0.122382   0.030727
    11  C   -0.059008  -0.102808
    12  C    0.683728  -0.838982
    13  O   -0.032146   0.013495
    14  C   -1.023028   1.018393
    15  C    0.070281  -0.597807
    16  C   -0.341050  -0.181614
    17  C   -0.032345  -0.271231
    18  C    0.497596  -0.673988
    19  H   -0.222835   0.389962
    20  H    0.064331   0.107386
    21  H   -0.112377   0.276500
    22  H   -0.166897   0.330697
    23  H   -0.428180   0.610891
    24  H   -0.693604   0.889094
    25  H    0.375062  -0.240904
    26  H    0.149412   0.020917
    27  H   -0.477035   0.671527
    28  H    0.311470  -0.050025
    29  H   -0.136605   0.340670
    30  H    0.059696   0.119936
    31  H   -0.106893   0.239486
    32  H   -0.573124   0.783384
    33  H    0.127454   0.049712
    34  H    0.144234   0.078074
    35  H    0.068342   0.083837
    36  H    0.106309   0.020637
    37  H   -0.109299   0.264275
    38  H    0.070009   0.069568
    39  H    0.058033   0.076626
    40  H    0.013602   0.142636
 Sum of Mulliken charges =  -1.00000   1.00000

 Dipole moment (field-independent basis, Debye):
    X=             -5.5115    Y=             -0.4624    Z=              3.5403  Tot=              6.5668
 Quadrupole moment (field-independent basis, Debye-Ang):
   XX=           -192.5502   YY=           -156.8280   ZZ=           -159.9572
   XY=             -2.4448   XZ=              2.6147   YZ=             -4.4694

 Summary of Natural Population Analysis:

                                       Natural Population
                Natural  -----------------------------------------------
    Atom  No    Charge         Core      Valence    Rydberg      Total
 -----------------------------------------------------------------------
      C    1   -0.19177      0.99963     2.18284    0.00930     3.19177
      C    2   -0.20868      0.99962     2.20032    0.00874     3.20868
      C    3   -0.07909      0.99952     2.06956    0.01001     3.07909
      C    4   -0.10286      0.99951     2.09127    0.01208     3.10286
      C    5   -0.02768      0.99955     2.01387    0.01426     3.02768
      C    6   -0.19619      0.99961     2.18695    0.00963     3.19619
      N    7   -0.34175      0.99968     2.83228    0.00979     3.84175
      C    8    0.41757      0.99966     1.55927    0.02351     2.58243
      O    9   -0.33366      0.99988     3.32913    0.00466     4.33366
      N   10   -0.27197      0.99963     2.76229    0.01005     3.77197
      C   11   -0.09653      0.99961     2.08651    0.01041     3.09653
      C   12   -0.01562      0.99956     2.00284    0.01323     3.01562
      O   13   -0.30668      0.99987     3.29683    0.00998     4.30668
      C   14    0.13467      0.99949     1.84785    0.01798     2.86533
      C   15   -0.09556      0.99954     2.08574    0.01029     3.09556
      C   16   -0.19128      0.99959     2.18406    0.00763     3.19128
      C   17   -0.18937      0.99965     2.18236    0.00736     3.18937
      C   18   -0.20128      0.99959     2.19205    0.00964     3.20128
      H   19    0.10200      0.00000     0.39699    0.00101     0.39800
      H   20    0.09571      0.00000     0.40293    0.00137     0.40429
      H   21    0.10438      0.00000     0.39397    0.00165     0.39562
      H   22    0.10287      0.00000     0.39597    0.00115     0.39713
      H   23    0.09863      0.00000     0.39997    0.00140     0.40137
      H   24    0.10282      0.00000     0.39562    0.00156     0.39718
      H   25    0.10060      0.00000     0.39641    0.00299     0.39940
      H   26    0.10239      0.00000     0.39578    0.00183     0.39761
      H   27    0.10170      0.00000     0.39659    0.00172     0.39830
      H   28    0.19050      0.00000     0.30726    0.00223     0.30950
      H   29    0.11371      0.00000     0.38447    0.00181     0.38629
      H   30    0.09080      0.00000     0.40795    0.00124     0.40920
      H   31    0.08330      0.00000     0.41445    0.00225     0.41670
      H   32    0.09555      0.00000     0.40297    0.00148     0.40445
      H   33    0.09286      0.00000     0.40590    0.00124     0.40714
      H   34    0.11711      0.00000     0.38173    0.00116     0.38289
      H   35    0.10429      0.00000     0.39455    0.00116     0.39571
      H   36    0.09817      0.00000     0.40085    0.00098     0.40183
      H   37    0.09523      0.00000     0.40358    0.00120     0.40477
      H   38    0.09883      0.00000     0.39977    0.00140     0.40117
      H   39    0.10141      0.00000     0.39716    0.00143     0.39859
      H   40    0.10486      0.00000     0.39382    0.00132     0.39514
 =======================================================================
   * Total *   -0.00000     17.99318    49.77472    0.23210    68.00000

 Normal termination of Gaussian 16 at Fri Dec 11 22:08:30 2020.
