 Gaussian 16, Revision A.03,

 -----------------------------------------------------------
 # opt freq B3LYP/6-31G(d) empiricaldispersion=gd3bj scf=xqc
 -----------------------------------------------------------

 ------------------------------
 CID_87446497_JID_6065_neutraal
 ------------------------------
 Symbolic Z-matrix:
 Charge =  0 Multiplicity = 1

 SCF Done:  E(RB3LYP) =  -823.458436212     A.U. after   15 cycles
 SCF Done:  E(RB3LYP) =  -823.462180889     A.U. after   12 cycles
 SCF Done:  E(RB3LYP) =  -823.462285471     A.U. after   13 cycles
 SCF Done:  E(RB3LYP) =  -823.463080314     A.U. after   12 cycles
 SCF Done:  E(RB3LYP) =  -823.463690221     A.U. after   11 cycles
 SCF Done:  E(RB3LYP) =  -823.463866679     A.U. after   12 cycles
 SCF Done:  E(RB3LYP) =  -823.463674807     A.U. after   12 cycles
 SCF Done:  E(RB3LYP) =  -823.463946860     A.U. after   12 cycles
 SCF Done:  E(RB3LYP) =  -823.464168014     A.U. after   11 cycles
 SCF Done:  E(RB3LYP) =  -823.464245700     A.U. after   10 cycles
 SCF Done:  E(RB3LYP) =  -823.464295984     A.U. after    8 cycles
 SCF Done:  E(RB3LYP) =  -823.464296337     A.U. after    8 cycles
 SCF Done:  E(RB3LYP) =  -823.464296509     A.U. after    8 cycles
 SCF Done:  E(RB3LYP) =  -823.464296585     A.U. after    7 cycles
 SCF Done:  E(RB3LYP) =  -823.464296627     A.U. after    6 cycles
 Optimization completed.
    -- Stationary point found.
 Normal termination of Gaussian 16 at Thu Dec 10 21:21:25 2020.

 --------------------------------------------------------------------
 #N Geom=AllCheck Guess=TCheck SCRF=Check GenChk RB3LYP/6-31G(d) Freq
 --------------------------------------------------------------------

 Structure from the checkpoint file:  "JID_6065.chk"
 ------------------------------
 CID_87446497_JID_6065_neutraal
 ------------------------------
 Charge =  0 Multiplicity = 1

 SCF Done:  E(RB3LYP) =  -823.464296627     A.U. after    1 cycles

  Exact polarizability: 155.135   0.957 106.728   4.181  -4.168 115.506
 Approx polarizability: 195.473   0.411 145.455  11.757  -5.507 182.132

                      1                      2                      3
                      A                      A                      A
 Frequencies --     29.1628                40.1536                49.8953
 Red. masses --     10.8097                 3.3756                 4.9138
 Frc consts  --      0.0054                 0.0032                 0.0072
 IR Inten    --      1.1408                 0.1121                 1.5198

                      4                      5                      6
                      A                      A                      A
 Frequencies --     67.7485                75.5308                83.6430
 Red. masses --      4.3920                 4.0660                 3.6845
 Frc consts  --      0.0119                 0.0137                 0.0152
 IR Inten    --      0.1021                 0.8300                 0.4539

                      7                      8                      9
                      A                      A                      A
 Frequencies --    102.4534               121.3803               136.3978
 Red. masses --      3.3384                 2.2469                 3.4068
 Frc consts  --      0.0206                 0.0195                 0.0373
 IR Inten    --      3.0154                 5.6053                 0.5412

                     10                     11                     12
                      A                      A                      A
 Frequencies --    166.6776               179.4086               207.6199
 Red. masses --      4.1438                 1.6103                 3.4369
 Frc consts  --      0.0678                 0.0305                 0.0873
 IR Inten    --      0.1668                 1.7912                 4.7311

                     13                     14                     15
                      A                      A                      A
 Frequencies --    215.7148               258.4502               269.2312
 Red. masses --      1.0865                 1.5146                 1.7542
 Frc consts  --      0.0298                 0.0596                 0.0749
 IR Inten    --      0.5861                 1.6996                 2.9167

                     16                     17                     18
                      A                      A                      A
 Frequencies --    281.6053               293.9657               324.2481
 Red. masses --      1.0665                 6.3682                 3.1690
 Frc consts  --      0.0498                 0.3242                 0.1963
 IR Inten    --      0.2135                 1.9392                 5.8059

                     19                     20                     21
                      A                      A                      A
 Frequencies --    353.7957               370.8803               387.9838
 Red. masses --      2.5204                 3.1222                 2.9245
 Frc consts  --      0.1859                 0.2530                 0.2594
 IR Inten    --      1.9838                 4.4164                 2.2954

                     22                     23                     24
                      A                      A                      A
 Frequencies --    431.3300               440.7508               463.7176
 Red. masses --      2.5764                 2.5001                 2.9733
 Frc consts  --      0.2824                 0.2862                 0.3767
 IR Inten    --      1.3959                 4.2314                 3.2187

                     25                     26                     27
                      A                      A                      A
 Frequencies --    475.9154               513.5203               530.9178
 Red. masses --      2.6910                 2.2245                 3.3208
 Frc consts  --      0.3591                 0.3456                 0.5515
 IR Inten    --      7.1831                 8.8864                17.9428

                     28                     29                     30
                      A                      A                      A
 Frequencies --    582.0998               633.4335               669.1658
 Red. masses --      3.7105                 2.4449                 1.6249
 Frc consts  --      0.7408                 0.5780                 0.4287
 IR Inten    --     58.3104                 9.4925               135.8643

                     31                     32                     33
                      A                      A                      A
 Frequencies --    689.9822               755.6415               771.9077
 Red. masses --      1.3818                 4.1081                 7.3833
 Frc consts  --      0.3876                 1.3821                 2.5920
 IR Inten    --     79.9908                30.9406                16.9824

                     34                     35                     36
                      A                      A                      A
 Frequencies --    798.4402               839.6833               867.3426
 Red. masses --      3.9416                 4.3295                 3.8489
 Frc consts  --      1.4805                 1.7985                 1.7059
 IR Inten    --     18.9779                 8.3496                11.8136

                     37                     38                     39
                      A                      A                      A
 Frequencies --    891.7642               937.2872               938.7810
 Red. masses --      2.3351                 1.7587                 1.6325
 Frc consts  --      1.0941                 0.9103                 0.8477
 IR Inten    --     13.9540                 0.6275                 0.0750

                     40                     41                     42
                      A                      A                      A
 Frequencies --    945.0246               965.0866               985.9783
 Red. masses --      1.8890                 4.0987                 1.1987
 Frc consts  --      0.9939                 2.2492                 0.6866
 IR Inten    --      0.6027                 9.1323                 0.3205

                     43                     44                     45
                      A                      A                      A
 Frequencies --   1023.8097              1056.8238              1068.4314
 Red. masses --      2.2660                 3.0284                 1.4026
 Frc consts  --      1.3994                 1.9928                 0.9434
 IR Inten    --     25.2557               112.5243                 0.4401

                     46                     47                     48
                      A                      A                      A
 Frequencies --   1079.3524              1095.5007              1138.8086
 Red. masses --      1.7097                 2.6176                 2.6091
 Frc consts  --      1.1736                 1.8509                 1.9936
 IR Inten    --     32.6669                76.0843                23.3515

                     49                     50                     51
                      A                      A                      A
 Frequencies --   1179.9081              1197.0879              1209.9982
 Red. masses --      3.8115                 1.2679                 2.3898
 Frc consts  --      3.1264                 1.0705                 2.0615
 IR Inten    --    110.8043                 4.2593                94.3291

                     52                     53                     54
                      A                      A                      A
 Frequencies --   1226.4804              1233.7555              1263.8098
 Red. masses --      2.2510                 1.6974                 1.3194
 Frc consts  --      1.9950                 1.5223                 1.2416
 IR Inten    --    267.3084                72.2231                 2.5247

                     55                     56                     57
                      A                      A                      A
 Frequencies --   1288.7269              1298.4161              1308.7174
 Red. masses --      2.6977                 2.5423                 1.5574
 Frc consts  --      2.6398                 2.5253                 1.5716
 IR Inten    --     21.6288                45.5299                 4.3630

                     58                     59                     60
                      A                      A                      A
 Frequencies --   1326.2713              1346.9566              1371.9374
 Red. masses --      1.2788                 1.6445                 1.3241
 Frc consts  --      1.3253                 1.7579                 1.4684
 IR Inten    --     23.3516                59.0368                41.9915

                     61                     62                     63
                      A                      A                      A
 Frequencies --   1396.1918              1410.3372              1423.4287
 Red. masses --      2.4614                 2.1001                 1.2829
 Frc consts  --      2.8269                 2.4611                 1.5315
 IR Inten    --    131.7191               221.8196                16.6281

                     64                     65                     66
                      A                      A                      A
 Frequencies --   1427.5081              1435.1176              1451.6166
 Red. masses --      1.3338                 1.3555                 1.2376
 Frc consts  --      1.6014                 1.6449                 1.5365
 IR Inten    --     43.0464                43.8057                29.9854

                     67                     68                     69
                      A                      A                      A
 Frequencies --   1486.5614              1497.2420              1499.7498
 Red. masses --      1.0927                 1.2169                 1.0511
 Frc consts  --      1.4227                 1.6072                 1.3930
 IR Inten    --     14.1948                15.2057                 3.5320

                     70                     71                     72
                      A                      A                      A
 Frequencies --   1507.1383              1520.2623              1521.1675
 Red. masses --      1.2514                 1.0751                 1.0481
 Frc consts  --      1.6747                 1.4640                 1.4290
 IR Inten    --     36.3467                 1.7446                 0.5147

                     73                     74                     75
                      A                      A                      A
 Frequencies --   1522.9607              1523.7575              1531.1490
 Red. masses --      1.0743                 1.0698                 1.0893
 Frc consts  --      1.4681                 1.4635                 1.5046
 IR Inten    --      7.7023                11.6001                10.5143

                     76                     77                     78
                      A                      A                      A
 Frequencies --   1536.9575              1542.1471              1560.2851
 Red. masses --      1.0557                 1.0722                 1.0563
 Frc consts  --      1.4694                 1.5024                 1.5151
 IR Inten    --      0.1846                 3.0821                19.8932

                     79                     80                     81
                      A                      A                      A
 Frequencies --   1798.2369              1858.7481              3009.4565
 Red. masses --      8.4195                 9.5894                 1.0465
 Frc consts  --     16.0410                19.5201                 5.5842
 IR Inten    --    438.4185               267.5080                39.8482

                     82                     83                     84
                      A                      A                      A
 Frequencies --   3020.7765              3057.2267              3060.4020
 Red. masses --      1.0530                 1.0361                 1.0374
 Frc consts  --      5.6611                 5.7054                 5.7245
 IR Inten    --     73.2402                11.6917                22.9959

                     85                     86                     87
                      A                      A                      A
 Frequencies --   3066.6654              3068.1801              3076.6780
 Red. masses --      1.1052                 1.0379                 1.0647
 Frc consts  --      6.1239                 5.7568                 5.9380
 IR Inten    --     30.4363                18.5595                 5.1994

                     88                     89                     90
                      A                      A                      A
 Frequencies --   3084.8936              3120.6534              3130.6794
 Red. masses --      1.0978                 1.1023                 1.1024
 Frc consts  --      6.1554                 6.3247                 6.3660
 IR Inten    --     32.6413                12.7396                 1.5342

                     91                     92                     93
                      A                      A                      A
 Frequencies --   3134.0671              3138.2345              3139.9941
 Red. masses --      1.1031                 1.1022                 1.0960
 Frc consts  --      6.3836                 6.3954                 6.3670
 IR Inten    --     29.9638                61.6332                 1.6735

                     94                     95                     96
                      A                      A                      A
 Frequencies --   3144.8781              3145.7548              3168.0002
 Red. masses --      1.0905                 1.0987                 1.1011
 Frc consts  --      6.3545                 6.4061                 6.5110
 IR Inten    --     10.7164                21.8496                 5.9498

                     97                     98                     99
                      A                      A                      A
 Frequencies --   3178.9316              3613.6497              3682.7694
 Red. masses --      1.0989                 1.0757                 1.0642
 Frc consts  --      6.5429                 8.2762                 8.5036
 IR Inten    --      6.4302                60.4893                56.4628

 - Thermochemistry -
 -------------------
 Temperature   298.150 Kelvin.  Pressure   1.00000 Atm.
 Atom     1 has atomic number  6 and mass  12.00000

 Molecular mass:   233.12632 amu.
 Principal axes and moments of inertia in atomic units:
                           1         2         3
     Eigenvalues --  1914.389696362.917276709.31263
           X            0.99995   0.00655  -0.00690
           Y           -0.00714   0.99611  -0.08780
           Z            0.00630   0.08785   0.99611
 This molecule is an asymmetric top.
 Rotational symmetry number  1.
 Warning -- assumption of classical behavior for rotation
           may cause significant error
 Rotational temperatures (Kelvin)      0.04524     0.01361     0.01291
 Rotational constants (GHZ):           0.94272     0.28363     0.26899
 Zero-point vibrational energy     785653.2 (Joules/Mol)
                                  187.77563 (Kcal/Mol)
 Warning -- explicit consideration of  28 degrees of freedom as
           vibrations may cause significant error
 Vibrational temperatures:     41.96    57.77    71.79    97.48   108.67
          (Kelvin)            120.34   147.41   174.64   196.25   239.81
                              258.13   298.72   310.37   371.85   387.36
                              405.17   422.95   466.52   509.03   533.61
                              558.22   620.59   634.14   667.19   684.74
                              738.84   763.87   837.51   911.37   962.78
                              992.73  1087.20  1110.60  1148.78  1208.12
                             1247.91  1283.05  1348.55  1350.70  1359.68
                             1388.54  1418.60  1473.03  1520.53  1537.23
                             1552.95  1576.18  1638.49  1697.62  1722.34
                             1740.92  1764.63  1775.10  1818.34  1854.19
                             1868.13  1882.95  1908.21  1937.97  1973.91
                             2008.81  2029.16  2048.00  2053.87  2064.81
                             2088.55  2138.83  2154.20  2157.81  2168.44
                             2187.32  2188.62  2191.20  2192.35  2202.98
                             2211.34  2218.81  2244.90  2587.26  2674.32
                             4329.94  4346.22  4398.67  4403.24  4412.25
                             4414.43  4426.65  4438.47  4489.92  4504.35
                             4509.22  4515.22  4517.75  4524.78  4526.04
                             4558.05  4573.77  5199.24  5298.68

 Zero-point correction=                           0.299240 (Hartree/Particle)
 Thermal correction to Energy=                    0.317687
 Thermal correction to Enthalpy=                  0.318632
 Thermal correction to Gibbs Free Energy=         0.251812
 Sum of electronic and zero-point Energies=           -823.165057
 Sum of electronic and thermal Energies=              -823.146609
 Sum of electronic and thermal Enthalpies=            -823.145665
 Sum of electronic and thermal Free Energies=         -823.212485

                     E (Thermal)             CV                S
                      KCal/Mol        Cal/Mol-Kelvin    Cal/Mol-Kelvin
 Total                  199.352             66.817            140.634
 Electronic               0.000              0.000              0.000
 Translational            0.889              2.981             42.241
 Rotational               0.889              2.981             32.769
 Vibrational            197.574             60.856             65.624
 Vibration     1          0.593              1.984              5.886
 Vibration     2          0.594              1.981              5.251
 Vibration     3          0.595              1.978              4.822
 Vibration     4          0.598              1.970              4.218
 Vibration     5          0.599              1.965              4.004
 Vibration     6          0.601              1.960              3.804
 Vibration     7          0.605              1.947              3.407
 Vibration     8          0.609              1.931              3.078
 Vibration     9          0.614              1.917              2.854
 Vibration    10          0.624              1.883              2.473
 Vibration    11          0.629              1.868              2.335
 Vibration    12          0.641              1.829              2.065
 Vibration    13          0.645              1.817              1.995
 Vibration    14          0.667              1.748              1.672
 Vibration    15          0.674              1.730              1.601
 Vibration    16          0.681              1.708              1.524
 Vibration    17          0.689              1.685              1.451
 Vibration    18          0.709              1.627              1.289
 Vibration    19          0.730              1.567              1.149
 Vibration    20          0.743              1.532              1.076
 Vibration    21          0.756              1.496              1.008
 Vibration    22          0.792              1.402              0.854
 Vibration    23          0.801              1.381              0.824
 Vibration    24          0.821              1.331              0.755
 Vibration    25          0.833              1.303              0.721
 Vibration    26          0.869              1.220              0.625
 Vibration    27          0.886              1.182              0.585
 Vibration    28          0.939              1.070              0.481

 Optimization completed.
    -- Stationary point found.
 Normal termination of Gaussian 16 at Thu Dec 10 21:34:04 2020.

 ----------------------------------------------------------------------
 # B3LYP/6-311++G(d,p) empiricaldispersion=gd3bj scf=xqc pop=npa geom=c
 heck
 ----------------------------------------------------------------------

 --------------------------------------
 CID_87446497_JID_6065_Energie_neutraal
 --------------------------------------
 Structure from the checkpoint file:  "JID_6065.chk"
 Charge =  0 Multiplicity = 1

 SCF Done:  E(RB3LYP) =  -823.720568763     A.U. after   14 cycles
 Normal termination of Gaussian 16 at Thu Dec 10 21:39:04 2020.

 ----------------------------------------------------------------------
 # B3LYP/6-311++G(d,p) empiricaldispersion=gd3bj scf=xqc pop=npa geom=c
 heck
 ----------------------------------------------------------------------

 ------------------------------------
 CID_87446497_JID_6065_Energie_kation
 ------------------------------------
 Structure from the checkpoint file:  "JID_6065.chk"
 Charge =  1 Multiplicity = 2

 SCF Done:  E(UB3LYP) =  -823.397643111     A.U. after   25 cycles
 Normal termination of Gaussian 16 at Thu Dec 10 21:52:10 2020.
 Gaussian 16:  ES64L-G16RevA.03 25-Dec-2016

 ----------------------------------------------------------------------
 # B3LYP/6-311++G(d,p) empiricaldispersion=gd3bj scf=xqc pop=npa geom=c
 heck
 ----------------------------------------------------------------------

 -----------------------------------
 CID_87446497_JID_6065_Energie_anion
 -----------------------------------
 Structure from the checkpoint file:  "JID_6065.chk"
 Charge = -1 Multiplicity = 2

                         Standard orientation:
 ---------------------------------------------------------------------
 Center     Atomic      Atomic             Coordinates (Angstroms)
 Number     Number       Type             X           Y           Z
 ---------------------------------------------------------------------
      1          6           0       -3.311596   -0.670025    1.758248
      2          6           0       -2.957247   -0.407069    0.294920
      3          6           0       -3.713877   -1.360920   -0.630675
      4          6           0       -3.186595    1.063256   -0.059970
      5          8           0       -1.520504   -0.703193    0.259324
      6          6           0       -0.800428   -0.490002   -0.861474
      7          8           0       -1.247196   -0.281068   -1.979010
      8          7           0        0.546069   -0.589067   -0.605989
      9          6           0        1.148647   -0.263774    0.678194
     10          6           0        2.427456   -1.086695    0.928850
     11          6           0        3.630345   -0.696047    0.096849
     12          8           0        4.749229   -0.510753    0.513680
     13          8           0        3.327192   -0.580407   -1.228743
     14          6           0        1.412889    1.246116    0.824467
     15          8           0        0.227999    2.002868    0.661974
     16          6           0        0.129804    2.696863   -0.572854
     17          1           0       -4.379028   -0.492656    1.924177
     18          1           0       -2.740952   -0.006641    2.415821
     19          1           0       -3.085427   -1.706610    2.027809
     20          1           0       -4.792544   -1.208311   -0.512666
     21          1           0       -3.439628   -1.188547   -1.671656
     22          1           0       -3.484912   -2.400004   -0.370738
     23          1           0       -2.558432    1.696890    0.573659
     24          1           0       -2.944162    1.253906   -1.106659
     25          1           0       -4.236391    1.324240    0.111952
     26          1           0        1.115277   -0.416107   -1.424705
     27          1           0        0.420508   -0.551097    1.437521
     28          1           0        2.734383   -1.004462    1.974053
     29          1           0        2.201382   -2.139194    0.721880
     30          1           0        4.159241   -0.337675   -1.677427
     31          1           0        1.804328    1.444676    1.831201
     32          1           0        2.177244    1.564759    0.100720
     33          1           0        0.991681    3.363933   -0.723639
     34          1           0        0.043767    2.015836   -1.428621
     35          1           0       -0.778948    3.300741   -0.517878
 ---------------------------------------------------------------------

 SCF Done:  E(UB3LYP) =  -823.710550980     A.U. after   33 cycles
 SCF Done:  E(UB3LYP) =  -823.710550980     a.u. after    1 cycles

 The electronic state is 2-A.
 Alpha  occ. eigenvalues --  -19.07669 -19.06087 -19.03825 -19.02599 -18.99807
 Alpha  occ. eigenvalues --  -14.23519 -10.22296 -10.21705 -10.15273 -10.12972
 Alpha  occ. eigenvalues --  -10.12816 -10.12193 -10.09931 -10.07204 -10.06853
 Alpha  occ. eigenvalues --  -10.06769  -1.01806  -1.00841  -0.95001  -0.93049
 Alpha  occ. eigenvalues --   -0.91953  -0.83600  -0.72375  -0.70282  -0.64381
 Alpha  occ. eigenvalues --   -0.60600  -0.60520  -0.58472  -0.55009  -0.53886
 Alpha  occ. eigenvalues --   -0.50961  -0.45918  -0.42200  -0.41657  -0.41194
 Alpha  occ. eigenvalues --   -0.39888  -0.39355  -0.38578  -0.37546  -0.37020
 Alpha  occ. eigenvalues --   -0.36545  -0.35648  -0.34908  -0.33974  -0.32644
 Alpha  occ. eigenvalues --   -0.32436  -0.31319  -0.30459  -0.30219  -0.29732
 Alpha  occ. eigenvalues --   -0.28846  -0.28010  -0.27378  -0.26639  -0.26140
 Alpha  occ. eigenvalues --   -0.24750  -0.23868  -0.23185  -0.20727  -0.19413
 Alpha  occ. eigenvalues --   -0.19214  -0.17476  -0.15694   0.04078
 Alpha virt. eigenvalues --    0.05687   0.06753   0.07259   0.08016   0.08442
 Alpha virt. eigenvalues --    0.08736   0.09216   0.09812   0.10565   0.11050
 Alpha virt. eigenvalues --    0.11338   0.11542   0.12096   0.12230   0.12793

  Beta  occ. eigenvalues --  -19.07594 -19.06080 -19.03816 -19.02572 -18.99805
  Beta  occ. eigenvalues --  -14.23508 -10.22294 -10.21688 -10.15271 -10.12950
  Beta  occ. eigenvalues --  -10.12809 -10.12179 -10.09898 -10.07178 -10.06838
  Beta  occ. eigenvalues --  -10.06754  -1.01703  -1.00832  -0.94985  -0.92960
  Beta  occ. eigenvalues --   -0.91946  -0.83583  -0.72355  -0.70239  -0.64330
  Beta  occ. eigenvalues --   -0.60563  -0.60493  -0.58417  -0.54978  -0.53806
  Beta  occ. eigenvalues --   -0.50849  -0.45888  -0.42178  -0.41618  -0.41144
  Beta  occ. eigenvalues --   -0.39851  -0.39314  -0.38550  -0.37520  -0.36994
  Beta  occ. eigenvalues --   -0.36488  -0.35626  -0.34860  -0.33956  -0.32602
  Beta  occ. eigenvalues --   -0.32409  -0.31281  -0.30425  -0.30186  -0.29708
  Beta  occ. eigenvalues --   -0.28795  -0.27990  -0.27348  -0.26616  -0.26122
  Beta  occ. eigenvalues --   -0.24730  -0.23785  -0.23135  -0.20716  -0.19343
  Beta  occ. eigenvalues --   -0.19204  -0.17464  -0.15677
  Beta virt. eigenvalues --    0.06095   0.07019   0.07261   0.08085   0.08331
  Beta virt. eigenvalues --    0.08773   0.09062   0.09512   0.10226   0.10698
  Beta virt. eigenvalues --    0.11232   0.11505   0.11828   0.12134   0.12387

 Mulliken charges and spin densities:
               1          2
     1  C    0.238730  -0.694713
     2  C   -0.789612   0.914464
     3  C   -0.050878  -0.398628
     4  C    0.084666  -0.653312
     5  O    0.105377  -0.008655
     6  C    0.179434  -0.301581
     7  O   -0.243764   0.006785
     8  N   -0.174826  -0.033161
     9  C   -0.479778   0.667916
    10  C    1.317825  -1.906619
    11  C   -0.567497   0.543622
    12  O   -0.268038   0.032312
    13  O   -0.121550  -0.051539
    14  C    0.169580  -0.777592
    15  O   -0.112947   0.037550
    16  C    0.115460  -0.443062
    17  H   -0.133026   0.272802
    18  H   -0.051658   0.202420
    19  H   -0.117617   0.275944
    20  H   -0.048885   0.197011
    21  H    0.110811   0.072373
    22  H    0.065761   0.077655
    23  H    0.172907  -0.010841
    24  H    0.151170   0.034179
    25  H   -0.133959   0.288797
    26  H    0.470778  -0.111589
    27  H    0.104109   0.190688
    28  H   -0.183366   0.390003
    29  H   -0.139582   0.362495
    30  H   -0.624212   0.959319
    31  H   -0.177223   0.341839
    32  H    0.175666   0.022554
    33  H   -0.149521   0.283248
    34  H    0.011618   0.166168
    35  H    0.094046   0.051149
 Sum of Mulliken charges =  -1.00000   1.00000

 Dipole moment (field-independent basis, Debye):
    X=             -4.0985    Y=              1.1770    Z=              0.9668  Tot=              4.3724
 Quadrupole moment (field-independent basis, Debye-Ang):
   XX=           -190.9440   YY=           -128.3871   ZZ=           -140.7203
   XY=              0.7335   XZ=              9.8584   YZ=              0.3528

 Summary of Natural Population Analysis:

                                       Natural Population
                Natural  -----------------------------------------------
    Atom  No    Charge         Core      Valence    Rydberg      Total
 -----------------------------------------------------------------------
      C    1   -0.28958      0.99960     2.28276    0.00722     3.28958
      C    2    0.13495      0.99954     1.85096    0.01455     2.86505
      C    3   -0.30045      0.99960     2.29522    0.00563     3.30045
      C    4   -0.30493      0.99960     2.29848    0.00685     3.30493
      O    5   -0.30104      0.99984     3.29104    0.01016     4.30104
      C    6    0.46932      0.99969     1.50545    0.02555     2.53068
      O    7   -0.33819      0.99987     3.33326    0.00505     4.33819
      N    8   -0.33397      0.99965     2.82350    0.01081     3.83397
      C    9   -0.02382      0.99958     2.01056    0.01368     3.02382
      C   10   -0.24198      0.99955     2.23269    0.00974     3.24198
      C   11    0.40836      0.99972     1.56649    0.02543     2.59164
      O   12   -0.29880      0.99987     3.29255    0.00639     4.29880
      O   13   -0.35680      0.99988     3.34940    0.00753     4.35680
      C   14   -0.01209      0.99954     2.00026    0.01229     3.01209
      O   15   -0.30073      0.99989     3.29120    0.00964     4.30073
      C   16   -0.09839      0.99960     2.09081    0.00798     3.09839
      H   17    0.10124      0.00000     0.39769    0.00106     0.39876
      H   18    0.10479      0.00000     0.39400    0.00121     0.39521
      H   19    0.10377      0.00000     0.39515    0.00108     0.39623
      H   20    0.10026      0.00000     0.39886    0.00088     0.39974
      H   21    0.11579      0.00000     0.38334    0.00088     0.38421
      H   22    0.10175      0.00000     0.39735    0.00089     0.39825
      H   23    0.10763      0.00000     0.39104    0.00133     0.39237
      H   24    0.11197      0.00000     0.38708    0.00094     0.38803
      H   25    0.10131      0.00000     0.39788    0.00081     0.39869
      H   26    0.20461      0.00000     0.29259    0.00279     0.29539
      H   27    0.11512      0.00000     0.38267    0.00221     0.38488
      H   28    0.11575      0.00000     0.38297    0.00128     0.38425
      H   29    0.12290      0.00000     0.37547    0.00163     0.37710
      H   30    0.25049      0.00000     0.22391    0.02560     0.24951
      H   31    0.09126      0.00000     0.40735    0.00138     0.40874
      H   32    0.08425      0.00000     0.41369    0.00207     0.41575
      H   33    0.07871      0.00000     0.42002    0.00127     0.42129
      H   34    0.08731      0.00000     0.41119    0.00150     0.41269
      H   35    0.08921      0.00000     0.40977    0.00102     0.41079
 =======================================================================
   * Total *   -0.00000     15.99501    46.77666    0.22833    63.00000

 Normal termination of Gaussian 16 at Thu Dec 10 22:12:25 2020.
