 Gaussian 16, Revision A.03,

 -----------------------------------------------------------
 # opt freq B3LYP/6-31G(d) empiricaldispersion=gd3bj scf=xqc
 -----------------------------------------------------------

 ------------------------------
 CID_64895016_JID_7907_neutraal
 ------------------------------
 Symbolic Z-matrix:
 Charge =  0 Multiplicity = 1

 SCF Done:  E(RB3LYP) =  -818.189816300     A.U. after   15 cycles
 SCF Done:  E(RB3LYP) =  -818.191277922     A.U. after   14 cycles
 SCF Done:  E(RB3LYP) =  -818.192855806     A.U. after   15 cycles
 SCF Done:  E(RB3LYP) =  -818.196206073     A.U. after   14 cycles
 SCF Done:  E(RB3LYP) =  -818.193079165     A.U. after   13 cycles
 SCF Done:  E(RB3LYP) =  -818.197257547     A.U. after   13 cycles
 SCF Done:  E(RB3LYP) =  -818.198268963     A.U. after   13 cycles
 SCF Done:  E(RB3LYP) =  -818.197466656     A.U. after   13 cycles
 SCF Done:  E(RB3LYP) =  -818.199005887     A.U. after   12 cycles
 SCF Done:  E(RB3LYP) =  -818.199522124     A.U. after   13 cycles
 SCF Done:  E(RB3LYP) =  -818.209704598     A.U. after   10 cycles
 SCF Done:  E(RB3LYP) =  -818.209704861     A.U. after    9 cycles
 SCF Done:  E(RB3LYP) =  -818.209705000     A.U. after    8 cycles
 SCF Done:  E(RB3LYP) =  -818.209705023     A.U. after    7 cycles
 SCF Done:  E(RB3LYP) =  -818.209705058     A.U. after    7 cycles
 Optimization completed.
    -- Stationary point found.
 Normal termination of Gaussian 16 at Fri Dec 11 13:35:50 2020.

 --------------------------------------------------------------------
 #N Geom=AllCheck Guess=TCheck SCRF=Check GenChk RB3LYP/6-31G(d) Freq
 --------------------------------------------------------------------

 Structure from the checkpoint file:  "JID_7907.chk"
 ------------------------------
 CID_64895016_JID_7907_neutraal
 ------------------------------
 Charge =  0 Multiplicity = 1

 SCF Done:  E(RB3LYP) =  -818.209705058     A.U. after    1 cycles

  Exact polarizability: 188.014  -8.515 131.779   9.227  14.171  97.185
 Approx polarizability: 232.545 -17.449 229.239  15.180  37.298 153.480

                      1                      2                      3
                      A                      A                      A
 Frequencies --     18.0282                32.3912                32.4237
 Red. masses --      5.7753                 5.1840                 6.3752
 Frc consts  --      0.0011                 0.0032                 0.0039
 IR Inten    --      0.7498                 0.8810                 0.8759

                      4                      5                      6
                      A                      A                      A
 Frequencies --     58.4875                62.5673                72.8245
 Red. masses --      4.9439                 6.3940                 4.8833
 Frc consts  --      0.0100                 0.0147                 0.0153
 IR Inten    --      0.4896                 3.2456                 1.4033

                      7                      8                      9
                      A                      A                      A
 Frequencies --    112.1269               153.8600               176.2202
 Red. masses --      5.1709                 5.0682                 4.2547
 Frc consts  --      0.0383                 0.0707                 0.0778
 IR Inten    --      1.8612                 0.4651                 2.1667

                     10                     11                     12
                      A                      A                      A
 Frequencies --    207.5397               211.4717               248.3081
 Red. masses --      3.6167                 3.4794                 3.2223
 Frc consts  --      0.0918                 0.0917                 0.1171
 IR Inten    --      2.2159                 3.0483                 9.6716

                     13                     14                     15
                      A                      A                      A
 Frequencies --    283.0331               330.0513               344.5622
 Red. masses --      3.1059                 1.3512                 3.0960
 Frc consts  --      0.1466                 0.0867                 0.2166
 IR Inten    --      1.3232                33.0030                 5.7277

                     16                     17                     18
                      A                      A                      A
 Frequencies --    349.8689               413.7835               415.9480
 Red. masses --      2.9028                 4.6181                 3.5667
 Frc consts  --      0.2093                 0.4659                 0.3636
 IR Inten    --     18.8501                17.2806                 1.0746

                     19                     20                     21
                      A                      A                      A
 Frequencies --    475.8634               496.4924               514.4595
 Red. masses --      2.7436                 1.9064                 3.2156
 Frc consts  --      0.3660                 0.2769                 0.5014
 IR Inten    --      3.9408                15.2082                19.6558

                     22                     23                     24
                      A                      A                      A
 Frequencies --    564.1765               608.6536               618.9745
 Red. masses --      3.3314                 3.9484                 4.5330
 Frc consts  --      0.6248                 0.8618                 1.0233
 IR Inten    --     27.1697                25.2738                 3.7947

                     25                     26                     27
                      A                      A                      A
 Frequencies --    645.6335               666.9277               675.5044
 Red. masses --      4.3503                 1.6548                 1.6001
 Frc consts  --      1.0684                 0.4337                 0.4302
 IR Inten    --      2.8256                47.1626                13.6336

                     28                     29                     30
                      A                      A                      A
 Frequencies --    702.2642               746.1346               748.2713
 Red. masses --      2.2566                 3.2293                 4.3216
 Frc consts  --      0.6557                 1.0592                 1.4257
 IR Inten    --    125.3904                64.6866                 9.6151

                     31                     32                     33
                      A                      A                      A
 Frequencies --    771.2887               807.4615               819.3390
 Red. masses --      1.2256                 3.0852                 3.4491
 Frc consts  --      0.4296                 1.1852                 1.3642
 IR Inten    --     21.6474                13.9509                 0.7438

                     34                     35                     36
                      A                      A                      A
 Frequencies --    853.8718               898.2707               902.9447
 Red. masses --      4.2197                 2.3456                 1.3239
 Frc consts  --      1.8127                 1.1151                 0.6360
 IR Inten    --      3.9011                54.7545                 4.2961

                     37                     38                     39
                      A                      A                      A
 Frequencies --    948.1858               973.0306               981.2355
 Red. masses --      2.0498                 1.3857                 1.9405
 Frc consts  --      1.0858                 0.7730                 1.1008
 IR Inten    --     10.2424                 0.7134               118.0284

                     40                     41                     42
                      A                      A                      A
 Frequencies --   1005.5584              1018.3251              1031.3509
 Red. masses --      1.2933                 6.7368                 2.0112
 Frc consts  --      0.7705                 4.1160                 1.2604
 IR Inten    --      0.0505                 8.5602                 1.9985

                     43                     44                     45
                      A                      A                      A
 Frequencies --   1032.6561              1078.6301              1100.3003
 Red. masses --      1.9197                 2.2793                 1.8881
 Frc consts  --      1.2061                 1.5624                 1.3468
 IR Inten    --      6.6696                 3.3635                74.7907

                     46                     47                     48
                      A                      A                      A
 Frequencies --   1125.3153              1134.5013              1168.3767
 Red. masses --      1.6970                 2.3735                 2.7150
 Frc consts  --      1.2662                 1.7999                 2.1837
 IR Inten    --      2.5564                17.8863                30.6740

                     49                     50                     51
                      A                      A                      A
 Frequencies --   1177.6749              1187.4781              1202.9417
 Red. masses --      2.1603                 1.1440                 1.2643
 Frc consts  --      1.7653                 0.9504                 1.0779
 IR Inten    --    198.3646                 6.3612                52.7137

                     52                     53                     54
                      A                      A                      A
 Frequencies --   1213.7356              1254.4591              1270.5392
 Red. masses --      1.3504                 2.3676                 1.1041
 Frc consts  --      1.1721                 2.1952                 1.0501
 IR Inten    --     65.2632                31.9728                52.0274

                     55                     56                     57
                      A                      A                      A
 Frequencies --   1291.0639              1312.9632              1323.9840
 Red. masses --      1.2487                 4.7954                 1.4994
 Frc consts  --      1.2263                 4.8705                 1.5486
 IR Inten    --      4.9227                 1.4924                21.7441

                     58                     59                     60
                      A                      A                      A
 Frequencies --   1331.7362              1336.8944              1373.1564
 Red. masses --      1.5834                 1.7023                 1.4336
 Frc consts  --      1.6546                 1.7926                 1.5927
 IR Inten    --      1.5690                39.5644                 0.9241

                     61                     62                     63
                      A                      A                      A
 Frequencies --   1400.5058              1420.4187              1429.2733
 Red. masses --      1.6502                 1.4859                 1.9009
 Frc consts  --      1.9071                 1.7663                 2.2879
 IR Inten    --     29.9825                37.7818                89.4291

                     64                     65                     66
                      A                      A                      A
 Frequencies --   1459.2769              1482.6403              1493.3493
 Red. masses --      1.6467                 2.3946                 1.0984
 Frc consts  --      2.0660                 3.1014                 1.4433
 IR Inten    --     10.9534               101.2807                31.0925

                     67                     68                     69
                      A                      A                      A
 Frequencies --   1502.8198              1508.9142              1524.7301
 Red. masses --      1.0960                 2.2004                 1.9042
 Frc consts  --      1.4583                 2.9517                 2.6083
 IR Inten    --     10.4919               113.3876                21.1469

                     70                     71                     72
                      A                      A                      A
 Frequencies --   1543.8549              1634.6882              1657.1563
 Red. masses --      1.1998                 5.9305                 5.4601
 Frc consts  --      1.6849                 9.3372                 8.8343
 IR Inten    --      2.5887                14.5737                61.2135

                     73                     74                     75
                      A                      A                      A
 Frequencies --   1708.1990              1766.2062              1827.0332
 Red. masses --      1.0954                 8.6195                 8.5792
 Frc consts  --      1.8832                15.8422                16.8728
 IR Inten    --     62.8588               439.5403               247.6031

                     76                     77                     78
                      A                      A                      A
 Frequencies --   2982.1142              3021.5745              3064.4313
 Red. masses --      1.0725                 1.0829                 1.0679
 Frc consts  --      5.6197                 5.8251                 5.9087
 IR Inten    --     37.0502                33.8990                16.8077

                     79                     80                     81
                      A                      A                      A
 Frequencies --   3071.2052              3082.3026              3112.5684
 Red. masses --      1.0645                 1.0891                 1.1015
 Frc consts  --      5.9156                 6.0962                 6.2873
 IR Inten    --     25.5456                36.7377                16.3702

                     82                     83                     84
                      A                      A                      A
 Frequencies --   3122.3050              3180.5170              3192.3500
 Red. masses --      1.0929                 1.0890                 1.0879
 Frc consts  --      6.2774                 6.4905                 6.5324
 IR Inten    --      1.6326                20.9016                 3.1825

                     85                     86                     87
                      A                      A                      A
 Frequencies --   3206.2987              3220.6817              3467.7757
 Red. masses --      1.0934                 1.0975                 1.0503
 Frc consts  --      6.6225                 6.7074                 7.4419
 IR Inten    --     18.2842                18.8063                 2.5039

                     88                     89                     90
                      A                      A                      A
 Frequencies --   3550.1876              3554.0989              3684.2861
 Red. masses --      1.0914                 1.0755                 1.0640
 Frc consts  --      8.1047                 8.0042                 8.5091
 IR Inten    --     12.8317               132.8649                45.9158

 - Thermochemistry -
 -------------------
 Temperature   298.150 Kelvin.  Pressure   1.00000 Atm.
 Atom     1 has atomic number  6 and mass  12.00000

 Molecular mass:   237.11134 amu.
 Principal axes and moments of inertia in atomic units:
                           1         2         3
     Eigenvalues --  1417.27480********************
           X            0.99998  -0.00489   0.00324
           Y            0.00484   0.99988   0.01463
           Z           -0.00331  -0.01462   0.99989
 This molecule is an asymmetric top.
 Rotational symmetry number  1.
 Warning -- assumption of classical behavior for rotation
           may cause significant error
 Rotational temperatures (Kelvin)      0.06111     0.00807     0.00769
 Rotational constants (GHZ):           1.27339     0.16805     0.16025
 Zero-point vibrational energy     692553.4 (Joules/Mol)
                                  165.52423 (Kcal/Mol)
 Warning -- explicit consideration of  24 degrees of freedom as
           vibrations may cause significant error
 Vibrational temperatures:     25.94    46.60    46.65    84.15    90.02
          (Kelvin)            104.78   161.33   221.37   253.54   298.60
                              304.26   357.26   407.22   474.87   495.75
                              503.38   595.34   598.46   684.66   714.34
                              740.19   811.72   875.72   890.57   928.92
                              959.56   971.90  1010.40  1073.52  1076.60
                             1109.71  1161.76  1178.85  1228.53  1292.41
                             1299.14  1364.23  1399.97  1411.78  1446.77
                             1465.14  1483.88  1485.76  1551.91  1583.09
                             1619.08  1632.29  1681.03  1694.41  1708.52
                             1730.76  1746.29  1804.89  1828.02  1857.55
                             1889.06  1904.92  1916.07  1923.49  1975.67
                             2015.02  2043.67  2056.41  2099.57  2133.19
                             2148.60  2162.22  2170.99  2193.75  2221.26
                             2351.95  2384.28  2457.72  2541.18  2628.69
                             4290.60  4347.37  4409.03  4418.78  4434.75
                             4478.29  4492.30  4576.05  4593.08  4613.15
                             4633.84  4989.36  5107.93  5113.56  5300.87

 Zero-point correction=                           0.263780 (Hartree/Particle)
 Thermal correction to Energy=                    0.280209
 Thermal correction to Enthalpy=                  0.281153
 Thermal correction to Gibbs Free Energy=         0.216642
 Sum of electronic and zero-point Energies=           -817.945925
 Sum of electronic and thermal Energies=              -817.929496
 Sum of electronic and thermal Enthalpies=            -817.928552
 Sum of electronic and thermal Free Energies=         -817.993063

                     E (Thermal)             CV                S
                      KCal/Mol        Cal/Mol-Kelvin    Cal/Mol-Kelvin
 Total                  175.834             60.697            135.774
 Electronic               0.000              0.000              0.000
 Translational            0.889              2.981             42.292
 Rotational               0.889              2.981             33.505
 Vibrational            174.056             54.735             59.978
 Vibration     1          0.593              1.986              6.840
 Vibration     2          0.594              1.983              5.677
 Vibration     3          0.594              1.983              5.675
 Vibration     4          0.596              1.974              4.508
 Vibration     5          0.597              1.972              4.375
 Vibration     6          0.599              1.967              4.076
 Vibration     7          0.607              1.939              3.232
 Vibration     8          0.619              1.898              2.624
 Vibration     9          0.628              1.872              2.368
 Vibration    10          0.641              1.829              2.065
 Vibration    11          0.643              1.823              2.031
 Vibration    12          0.662              1.766              1.743
 Vibration    13          0.682              1.705              1.515
 Vibration    14          0.713              1.615              1.260
 Vibration    15          0.723              1.586              1.191
 Vibration    16          0.727              1.576              1.167
 Vibration    17          0.777              1.440              0.913
 Vibration    18          0.779              1.436              0.906
 Vibration    19          0.833              1.304              0.721
 Vibration    20          0.852              1.258              0.667
 Vibration    21          0.870              1.218              0.623
 Vibration    22          0.920              1.109              0.516
 Vibration    23          0.968              1.013              0.435
 Vibration    24          0.979              0.992              0.418

                           ! Non-Optimized Parameters !
 Normal termination of Gaussian 16 at Fri Dec 11 13:44:50 2020.

 ----------------------------------------------------------------------
 # B3LYP/6-311++G(d,p) empiricaldispersion=gd3bj scf=xqc pop=npa geom=c
 heck
 ----------------------------------------------------------------------

 --------------------------------------
 CID_64895016_JID_7907_Energie_neutraal
 --------------------------------------
 Structure from the checkpoint file:  "JID_7907.chk"
 Charge =  0 Multiplicity = 1

 SCF Done:  E(RB3LYP) =  -818.459647337     A.U. after   15 cycles
 Normal termination of Gaussian 16 at Fri Dec 11 13:48:40 2020.

 ----------------------------------------------------------------------
 # B3LYP/6-311++G(d,p) empiricaldispersion=gd3bj scf=xqc pop=npa geom=c
 heck
 ----------------------------------------------------------------------

 ------------------------------------
 CID_64895016_JID_7907_Energie_kation
 ------------------------------------
 Structure from the checkpoint file:  "JID_7907.chk"
 Charge =  1 Multiplicity = 2

 SCF Done:  E(UB3LYP) =  -818.148591523     A.U. after   31 cycles
 Normal termination of Gaussian 16 at Fri Dec 11 13:59:04 2020.
 Gaussian 16:  ES64L-G16RevA.03 25-Dec-2016

 ----------------------------------------------------------------------
 # B3LYP/6-311++G(d,p) empiricaldispersion=gd3bj scf=xqc pop=npa geom=c
 heck
 ----------------------------------------------------------------------

 -----------------------------------
 CID_64895016_JID_7907_Energie_anion
 -----------------------------------
 Structure from the checkpoint file:  "JID_7907.chk"
 Charge = -1 Multiplicity = 2

                         Standard orientation:
 ---------------------------------------------------------------------
 Center     Atomic      Atomic             Coordinates (Angstroms)
 Number     Number       Type             X           Y           Z
 ---------------------------------------------------------------------
      1          6           0       -5.054522    1.325686   -0.137738
      2          6           0       -5.501592    0.153760   -0.751470
      3          6           0       -4.618797   -0.918551   -0.838263
      4          7           0       -3.367412   -0.883966   -0.361442
      5          6           0       -2.942398    0.240161    0.225664
      6          6           0       -3.756375    1.371700    0.357649
      7          6           0       -1.530561    0.248948    0.777706
      8          7           0       -0.800828   -0.915323    0.321175
      9          6           0        0.539857   -1.120291    0.352836
     10          8           0        1.045987   -2.156751   -0.076666
     11          6           0        1.394288    0.020481    0.935183
     12          6           0        2.819543   -0.460863    1.267203
     13          6           0        3.722319   -0.725217    0.058487
     14          6           0        4.390319    0.509976   -0.496077
     15          8           0        4.298573    1.644771   -0.069668
     16          8           0        5.162330    0.215050   -1.570078
     17          7           0        1.292502    1.176974    0.027086
     18          1           0       -5.707000    2.189990   -0.052214
     19          1           0       -6.505845    0.074008   -1.154932
     20          1           0       -4.921804   -1.850772   -1.310409
     21          1           0       -3.369610    2.267029    0.836062
     22          1           0       -1.003349    1.156615    0.464265
     23          1           0       -1.592101    0.273047    1.878651
     24          1           0       -1.366645   -1.645363   -0.101420
     25          1           0        0.931142    0.326867    1.884176
     26          1           0        3.294932    0.290344    1.907810
     27          1           0        2.738015   -1.384069    1.849098
     28          1           0        4.529486   -1.417355    0.329478
     29          1           0        3.169410   -1.231329   -0.738581
     30          1           0        5.564250    1.058283   -1.851898
     31          1           0        1.996850    1.863904    0.293016
     32          1           0        1.544840    0.885708   -0.916627
 ---------------------------------------------------------------------

 SCF Done:  E(UB3LYP) =  -818.454447888     A.U. after   33 cycles
 SCF Done:  E(UB3LYP) =  -818.454447888     a.u. after    1 cycles

 The electronic state is 2-A.
 Alpha  occ. eigenvalues --  -19.07318 -19.02368 -18.98400 -14.22638 -14.20246
 Alpha  occ. eigenvalues --  -14.18395 -10.21448 -10.16740 -10.11551 -10.10394
 Alpha  occ. eigenvalues --  -10.10367 -10.08889 -10.08700 -10.07986 -10.06853
 Alpha  occ. eigenvalues --  -10.06383 -10.06229  -1.01614  -0.93446  -0.92661
 Alpha  occ. eigenvalues --   -0.83983  -0.81349  -0.79498  -0.69791  -0.68900
 Alpha  occ. eigenvalues --   -0.66954  -0.62476  -0.59552  -0.55708  -0.52267
 Alpha  occ. eigenvalues --   -0.49915  -0.49599  -0.45438  -0.42808  -0.41406
 Alpha  occ. eigenvalues --   -0.40836  -0.39291  -0.38719  -0.38073  -0.37421
 Alpha  occ. eigenvalues --   -0.36180  -0.35378  -0.34478  -0.33997  -0.32396
 Alpha  occ. eigenvalues --   -0.31879  -0.30834  -0.29614  -0.29031  -0.28566
 Alpha  occ. eigenvalues --   -0.27509  -0.27170  -0.26822  -0.25492  -0.25281
 Alpha  occ. eigenvalues --   -0.23441  -0.19517  -0.18260  -0.16162  -0.15696
 Alpha  occ. eigenvalues --   -0.15276  -0.15145  -0.14118   0.04343
 Alpha virt. eigenvalues --    0.05511   0.06814   0.07173   0.07941   0.08400
 Alpha virt. eigenvalues --    0.08586   0.09344   0.09646   0.09929   0.10547
 Alpha virt. eigenvalues --    0.10931   0.11291   0.11920   0.12640   0.13420

  Beta  occ. eigenvalues --  -19.07259 -19.02350 -18.98378 -14.22647 -14.20229
  Beta  occ. eigenvalues --  -14.18078 -10.21444 -10.16722 -10.11550 -10.10394
  Beta  occ. eigenvalues --  -10.10369 -10.08871 -10.08561 -10.07980 -10.06910
  Beta  occ. eigenvalues --  -10.06163 -10.06069  -1.01539  -0.93409  -0.92596
  Beta  occ. eigenvalues --   -0.83714  -0.81184  -0.79454  -0.69757  -0.68441
  Beta  occ. eigenvalues --   -0.66766  -0.62423  -0.59440  -0.55638  -0.51909
  Beta  occ. eigenvalues --   -0.49721  -0.49453  -0.45390  -0.42774  -0.41289
  Beta  occ. eigenvalues --   -0.40787  -0.39261  -0.38661  -0.38005  -0.37366
  Beta  occ. eigenvalues --   -0.36019  -0.35290  -0.34407  -0.33910  -0.32354
  Beta  occ. eigenvalues --   -0.31830  -0.30772  -0.29562  -0.28758  -0.28336
  Beta  occ. eigenvalues --   -0.27259  -0.26825  -0.26733  -0.25426  -0.25185
  Beta  occ. eigenvalues --   -0.23393  -0.19466  -0.16720  -0.15896  -0.15652
  Beta  occ. eigenvalues --   -0.15220  -0.14787  -0.13718
  Beta virt. eigenvalues --    0.06569   0.06911   0.07558   0.08109   0.08461
  Beta virt. eigenvalues --    0.08534   0.08907   0.09356   0.09673   0.10192
  Beta virt. eigenvalues --    0.10565   0.10908   0.11439   0.11956   0.12553

 Mulliken charges and spin densities:
               1          2
     1  C   -0.455463   0.109306
     2  C    0.045859  -0.035704
     3  C   -0.297543   0.164565
     4  N   -0.050394   0.152305
     5  C   -0.585666  -0.045971
     6  C    0.258035   0.310486
     7  C   -0.268474  -0.215132
     8  N   -0.231863   0.014397
     9  C   -0.051842  -0.153599
    10  O   -0.333861   0.013451
    11  C   -0.189785   0.212990
    12  C    0.089735  -0.467696
    13  C    0.035683  -0.264029
    14  C    0.325288  -0.468700
    15  O   -0.301450   0.013660
    16  O   -0.180125   0.043099
    17  N   -0.311141  -0.034632
    18  H    0.084325   0.021602
    19  H    0.115266   0.027131
    20  H    0.130224   0.000870
    21  H    0.085575   0.081511
    22  H    0.252206  -0.017041
    23  H    0.124040   0.029079
    24  H    0.373482  -0.012289
    25  H    0.108602   0.090226
    26  H    0.044639   0.145401
    27  H    0.210086  -0.035915
    28  H   -0.100693   0.288997
    29  H    0.277284   0.002167
    30  H   -0.541577   0.838054
    31  H    0.213770   0.049709
    32  H    0.125780   0.141703
 Sum of Mulliken charges =  -1.00000   1.00000

 Dipole moment (field-independent basis, Debye):
    X=             -4.7445    Y=             -0.1899    Z=              4.0434  Tot=              6.2366
 Quadrupole moment (field-independent basis, Debye-Ang):
   XX=           -209.4865   YY=           -130.0083   ZZ=           -120.8903
   XY=            -10.7019   XZ=             17.2673   YZ=              2.5403

 Summary of Natural Population Analysis:

                                       Natural Population
                Natural  -----------------------------------------------
    Atom  No    Charge         Core      Valence    Rydberg      Total
 -----------------------------------------------------------------------
      C    1   -0.03536      0.99958     2.02527    0.01051     3.03536
      C    2   -0.14396      0.99957     2.13487    0.00952     3.14396
      C    3    0.05108      0.99960     1.93557    0.01375     2.94892
      N    4   -0.22233      0.99966     2.71123    0.01143     3.72233
      C    5    0.10636      0.99955     1.88108    0.01301     2.89364
      C    6   -0.11385      0.99951     2.10562    0.00871     3.11385
      C    7   -0.10775      0.99958     2.09934    0.00883     3.10775
      N    8   -0.31229      0.99965     2.80378    0.00885     3.81229
      C    9    0.34298      0.99965     1.63477    0.02260     2.65702
      O   10   -0.33373      0.99988     3.32828    0.00557     4.33373
      C   11   -0.04954      0.99957     2.03932    0.01065     3.04954
      C   12   -0.19654      0.99961     2.18790    0.00902     3.19654
      C   13   -0.25254      0.99956     2.24219    0.01079     3.25254
      C   14    0.40889      0.99971     1.56588    0.02552     2.59111
      O   15   -0.31919      0.99987     3.31282    0.00650     4.31919
      O   16   -0.34351      0.99988     3.33674    0.00689     4.34351
      N   17   -0.42325      0.99977     2.91372    0.00976     3.92325
      H   18    0.09170      0.00000     0.40738    0.00092     0.40830
      H   19    0.09674      0.00000     0.40234    0.00092     0.40326
      H   20    0.08218      0.00000     0.41672    0.00110     0.41782
      H   21    0.09735      0.00000     0.40170    0.00095     0.40265
      H   22    0.11974      0.00000     0.37855    0.00172     0.38026
      H   23    0.09151      0.00000     0.40718    0.00131     0.40849
      H   24    0.20823      0.00000     0.28780    0.00397     0.29177
      H   25    0.09581      0.00000     0.40239    0.00179     0.40419
      H   26    0.10266      0.00000     0.39609    0.00125     0.39734
      H   27    0.10680      0.00000     0.39216    0.00104     0.39320
      H   28    0.11715      0.00000     0.38194    0.00091     0.38285
      H   29    0.12891      0.00000     0.36973    0.00136     0.37109
      H   30    0.24509      0.00000     0.22706    0.02785     0.25491
      H   31    0.18633      0.00000     0.31190    0.00177     0.31367
      H   32    0.17432      0.00000     0.32375    0.00193     0.32568
 =======================================================================
   * Total *   -0.00000     16.99421    45.76507    0.24073    63.00000

 Normal termination of Gaussian 16 at Fri Dec 11 14:10:19 2020.
