 Gaussian 16, Revision A.03,

 -----------------------------------------------------------
 # opt freq B3LYP/6-31G(d) empiricaldispersion=gd3bj scf=xqc
 -----------------------------------------------------------

 -------------------------------
 CID_150076477_JID_7172_neutraal
 -------------------------------
 Symbolic Z-matrix:
 Charge =  0 Multiplicity = 1

 SCF Done:  E(RB3LYP) =  -1531.95896104     A.U. after   18 cycles
 SCF Done:  E(RB3LYP) =  -1531.97027455     A.U. after   14 cycles
 SCF Done:  E(RB3LYP) =  -1531.97129634     A.U. after   15 cycles
 SCF Done:  E(RB3LYP) =  -1531.97133375     A.U. after   17 cycles
 SCF Done:  E(RB3LYP) =  -1531.97160338     A.U. after   15 cycles
 SCF Done:  E(RB3LYP) =  -1531.97396768     A.U. after   14 cycles
 SCF Done:  E(RB3LYP) =  -1531.97471252     A.U. after   14 cycles
 SCF Done:  E(RB3LYP) =  -1531.97530458     A.U. after   16 cycles
 SCF Done:  E(RB3LYP) =  -1531.97581673     A.U. after   15 cycles
 SCF Done:  E(RB3LYP) =  -1531.97607835     A.U. after   16 cycles
 SCF Done:  E(RB3LYP) =  -1531.97800386     A.U. after    8 cycles
 SCF Done:  E(RB3LYP) =  -1531.97802053     A.U. after   12 cycles
 SCF Done:  E(RB3LYP) =  -1531.97802351     A.U. after    9 cycles
 SCF Done:  E(RB3LYP) =  -1531.97802531     A.U. after   10 cycles
 SCF Done:  E(RB3LYP) =  -1531.97802596     A.U. after    9 cycles
 SCF Done:  E(RB3LYP) =  -1531.97802610     A.U. after    8 cycles
 Optimization completed.
    -- Stationary point found.
 Normal termination of Gaussian 16 at Sun Dec 13 20:27:31 2020.

 --------------------------------------------------------------------
 #N Geom=AllCheck Guess=TCheck SCRF=Check GenChk RB3LYP/6-31G(d) Freq
 --------------------------------------------------------------------

 Structure from the checkpoint file:  "JID_7172.chk"
 -------------------------------
 CID_150076477_JID_7172_neutraal
 -------------------------------
 Charge =  0 Multiplicity = 1

 SCF Done:  E(RB3LYP) =  -1531.97802610     A.U. after    1 cycles

  Exact polarizability: 204.253   2.702 159.786   0.524   0.817 118.626
 Approx polarizability: 297.267   8.944 280.582  -0.186  -3.960 220.956

                      1                      2                      3
                      A                      A                      A
 Frequencies --     23.9080                28.7932                38.3551
 Red. masses --      6.4948                 9.3654                10.1760
 Frc consts  --      0.0022                 0.0046                 0.0088
 IR Inten    --      2.3595                 0.3693                 2.3040

                      4                      5                      6
                      A                      A                      A
 Frequencies --     52.9149                83.1494               120.9101
 Red. masses --      6.7285                 5.5967                 3.5762
 Frc consts  --      0.0111                 0.0228                 0.0308
 IR Inten    --      1.3981                 0.1793                 0.4944

                      7                      8                      9
                      A                      A                      A
 Frequencies --    126.0303               162.6936               192.3413
 Red. masses --      8.0276                 1.4389                 8.6341
 Frc consts  --      0.0751                 0.0224                 0.1882
 IR Inten    --      0.7279                 0.7638                 1.4214

                     10                     11                     12
                      A                      A                      A
 Frequencies --    202.9736               218.7662               243.0066
 Red. masses --      6.0821                 2.2835                 5.5390
 Frc consts  --      0.1476                 0.0644                 0.1927
 IR Inten    --      4.7134                 1.6666                 8.2204

                     13                     14                     15
                      A                      A                      A
 Frequencies --    252.7716               254.4488               282.3424
 Red. masses --      3.3551                 5.0885                 6.2353
 Frc consts  --      0.1263                 0.1941                 0.2929
 IR Inten    --      1.7229                 5.4215                 0.8067

                     16                     17                     18
                      A                      A                      A
 Frequencies --    322.9069               359.1861               382.6406
 Red. masses --      4.7232                 2.0381                 5.2749
 Frc consts  --      0.2902                 0.1549                 0.4550
 IR Inten    --      2.8282                24.7008                 8.6930

                     19                     20                     21
                      A                      A                      A
 Frequencies --    404.3795               411.7789               445.7931
 Red. masses --      2.8499                 1.7719                 3.6005
 Frc consts  --      0.2746                 0.1770                 0.4216
 IR Inten    --      5.7143                19.2606                24.3943

                     22                     23                     24
                      A                      A                      A
 Frequencies --    481.7480               497.6852               521.9855
 Red. masses --      6.1716                 3.6660                10.8948
 Frc consts  --      0.8439                 0.5350                 1.7490
 IR Inten    --      8.2654                 5.8148                85.9216

                     25                     26                     27
                      A                      A                      A
 Frequencies --    548.3802               578.6977               582.0235
 Red. masses --      4.9414                11.3503                 4.2440
 Frc consts  --      0.8755                 2.2395                 0.8470
 IR Inten    --     10.6471                 9.9422                19.9672

                     28                     29                     30
                      A                      A                      A
 Frequencies --    587.0763               637.9236               640.6569
 Red. masses --      7.0155                 4.2625                 1.6679
 Frc consts  --      1.4246                 1.0220                 0.4033
 IR Inten    --     10.5194                 4.6135               211.7691

                     31                     32                     33
                      A                      A                      A
 Frequencies --    673.5779               706.7928               733.4128
 Red. masses --      3.9404                14.0727                 3.7271
 Frc consts  --      1.0533                 4.1420                 1.1812
 IR Inten    --     17.4651                 2.8525                92.2710

                     34                     35                     36
                      A                      A                      A
 Frequencies --    793.4978               805.7065               841.5131
 Red. masses --      2.3419                 2.0457                 2.8176
 Frc consts  --      0.8688                 0.7824                 1.1756
 IR Inten    --     17.0310                23.9743                 3.4759

                     37                     38                     39
                      A                      A                      A
 Frequencies --    849.0262               897.0361               910.7035
 Red. masses --      1.6048                 2.7425                 2.9059
 Frc consts  --      0.6816                 1.3002                 1.4200
 IR Inten    --     21.6765                11.7916                14.0557

                     40                     41                     42
                      A                      A                      A
 Frequencies --    961.6144               994.3013              1067.9732
 Red. masses --      1.3479                 1.6921                 1.5536
 Frc consts  --      0.7343                 0.9857                 1.0440
 IR Inten    --      0.1585                 4.2989                16.2753

                     43                     44                     45
                      A                      A                      A
 Frequencies --   1087.2811              1095.5032              1120.9835
 Red. masses --      2.1371                 2.1778                 2.5999
 Frc consts  --      1.4886                 1.5399                 1.9249
 IR Inten    --      3.0599                26.7566                53.4800

                     46                     47                     48
                      A                      A                      A
 Frequencies --   1128.9431              1161.7937              1217.7831
 Red. masses --      2.4953                 1.3694                12.5803
 Frc consts  --      1.8738                 1.0890                10.9921
 IR Inten    --     75.3897                64.9806               171.9094

                     49                     50                     51
                      A                      A                      A
 Frequencies --   1247.8310              1268.0727              1281.4522
 Red. masses --      1.6990                 1.8073                 1.3002
 Frc consts  --      1.5587                 1.7123                 1.2579
 IR Inten    --      5.0117                11.6434                14.3000

                     52                     53                     54
                      A                      A                      A
 Frequencies --   1290.9587              1301.9196              1316.8006
 Red. masses --      3.5225                 2.0997                 2.0748
 Frc consts  --      3.4588                 2.0969                 2.1196
 IR Inten    --     30.1488                25.5349                65.9008

                     55                     56                     57
                      A                      A                      A
 Frequencies --   1338.4130              1346.3106              1441.8176
 Red. masses --      2.8189                 2.3498                 1.2259
 Frc consts  --      2.9752                 2.5094                 1.5016
 IR Inten    --     11.3577                63.2524                 3.5259

                     58                     59                     60
                      A                      A                      A
 Frequencies --   1467.1678              1475.2070              1488.9103
 Red. masses --      3.3543                 1.1927                 1.1630
 Frc consts  --      4.2542                 1.5293                 1.5190
 IR Inten    --    110.6969                12.3466                11.4079

                     61                     62                     63
                      A                      A                      A
 Frequencies --   1507.3527              1520.0238              1530.6578
 Red. masses --      2.1155                 1.0461                 1.0519
 Frc consts  --      2.8320                 1.4241                 1.4521
 IR Inten    --      4.3695                 6.7377                 8.2011

                     64                     65                     66
                      A                      A                      A
 Frequencies --   1604.0235              1612.2727              1714.0379
 Red. masses --      5.9317                 6.3230                 1.1674
 Frc consts  --      8.9918                 9.6840                 2.0207
 IR Inten    --      9.3485                 1.5843                78.5368

                     67                     68                     69
                      A                      A                      A
 Frequencies --   2236.7441              3063.2410              3091.7976
 Red. masses --     13.9625                 1.0388                 1.0624
 Frc consts  --     41.1572                 5.7428                 5.9838
 IR Inten    --    555.2323                18.3649                11.3932

                     70                     71                     72
                      A                      A                      A
 Frequencies --   3092.3185              3123.5925              3149.9855
 Red. masses --      1.0619                 1.0980                 1.1041
 Frc consts  --      5.9827                 6.3121                 6.4547
 IR Inten    --      4.0219                31.5400                 1.3592

                     73                     74                     75
                      A                      A                      A
 Frequencies --   3160.1700              3164.8743              3194.2720
 Red. masses --      1.1027                 1.1029                 1.0891
 Frc consts  --      6.4882                 6.5090                 6.5474
 IR Inten    --      3.5020                 5.2121                14.4800

                     76                     77                     78
                      A                      A                      A
 Frequencies --   3219.9087              3541.3328              3657.2156
 Red. masses --      1.0947                 1.0525                 1.0941
 Frc consts  --      6.6870                 7.7768                 8.6222
 IR Inten    --      8.1714                58.0962                37.6203

 - Thermochemistry -
 -------------------
 Temperature   298.150 Kelvin.  Pressure   1.00000 Atm.
 Atom     1 has atomic number  6 and mass  12.00000

 Molecular mass:   273.03542 amu.
 Principal axes and moments of inertia in atomic units:
                           1         2         3
     Eigenvalues --  2413.790148311.649499416.19373
           X            0.99974   0.02280   0.00109
           Y           -0.02279   0.99974  -0.00166
           Z           -0.00112   0.00163   1.00000
 This molecule is an asymmetric top.
 Rotational symmetry number  1.
 Warning -- assumption of classical behavior for rotation
           may cause significant error
 Rotational temperatures (Kelvin)      0.03588     0.01042     0.00920
 Rotational constants (GHZ):           0.74768     0.21713     0.19166
 Zero-point vibrational energy     539410.5 (Joules/Mol)
                                  128.92220 (Kcal/Mol)
 Warning -- explicit consideration of  28 degrees of freedom as
           vibrations may cause significant error
 Vibrational temperatures:     34.40    41.43    55.18    76.13   119.63
          (Kelvin)            173.96   181.33   234.08   276.74   292.03
                              314.76   349.63   363.68   366.10   406.23
                              464.59   516.79   550.53   581.81   592.46
                              641.40   693.13   716.06   751.02   789.00
                              832.62   837.40   844.67   917.83   921.76
                              969.13  1016.92  1055.22  1141.67  1159.23
                             1210.75  1221.56  1290.63  1310.30  1383.55
                             1430.58  1536.58  1564.35  1576.18  1612.85
                             1624.30  1671.56  1752.12  1795.35  1824.47
                             1843.72  1857.40  1873.17  1894.58  1925.68
                             1937.04  2074.45  2110.93  2122.49  2142.21
                             2168.74  2186.98  2202.28  2307.83  2319.70
                             2466.12  3218.18  4407.32  4448.41  4449.16
                             4494.15  4532.13  4546.78  4553.55  4595.84
                             4632.73  5095.19  5261.92

 Zero-point correction=                           0.205451 (Hartree/Particle)
 Thermal correction to Energy=                    0.222773
 Thermal correction to Enthalpy=                  0.223717
 Thermal correction to Gibbs Free Energy=         0.158288
 Sum of electronic and zero-point Energies=          -1531.772575
 Sum of electronic and thermal Energies=             -1531.755253
 Sum of electronic and thermal Enthalpies=           -1531.754309
 Sum of electronic and thermal Free Energies=        -1531.819738

                     E (Thermal)             CV                S
                      KCal/Mol        Cal/Mol-Kelvin    Cal/Mol-Kelvin
 Total                  139.792             63.482            137.707
 Electronic               0.000              0.000              0.000
 Translational            0.889              2.981             42.712
 Rotational               0.889              2.981             33.601
 Vibrational            138.015             57.521             61.393
 Vibration     1          0.593              1.985              6.280
 Vibration     2          0.593              1.984              5.911
 Vibration     3          0.594              1.982              5.342
 Vibration     4          0.596              1.976              4.705
 Vibration     5          0.600              1.961              3.815
 Vibration     6          0.609              1.932              3.086
 Vibration     7          0.611              1.927              3.006
 Vibration     8          0.623              1.888              2.518
 Vibration     9          0.634              1.850              2.205
 Vibration    10          0.639              1.836              2.106
 Vibration    11          0.647              1.812              1.969
 Vibration    12          0.659              1.774              1.781
 Vibration    13          0.664              1.758              1.711
 Vibration    14          0.665              1.755              1.700
 Vibration    15          0.681              1.706              1.519
 Vibration    16          0.708              1.630              1.295
 Vibration    17          0.734              1.556              1.126
 Vibration    18          0.752              1.507              1.029
 Vibration    19          0.770              1.461              0.947
 Vibration    20          0.776              1.445              0.920
 Vibration    21          0.805              1.370              0.809
 Vibration    22          0.838              1.291              0.705
 Vibration    23          0.853              1.255              0.664
 Vibration    24          0.877              1.201              0.605
 Vibration    25          0.904              1.143              0.548
 Vibration    26          0.935              1.077              0.488
 Vibration    27          0.939              1.070              0.482
 Vibration    28          0.944              1.059              0.472

 Optimization completed.
    -- Stationary point found.
 Normal termination of Gaussian 16 at Sun Dec 13 20:38:03 2020.

 ----------------------------------------------------------------------
 # B3LYP/6-311++G(d,p) empiricaldispersion=gd3bj scf=xqc pop=npa geom=c
 heck
 ----------------------------------------------------------------------

 ---------------------------------------
 CID_150076477_JID_7172_Energie_neutraal
 ---------------------------------------
 Structure from the checkpoint file:  "JID_7172.chk"
 Charge =  0 Multiplicity = 1

 SCF Done:  E(RB3LYP) =  -1532.24148642     A.U. after   18 cycles
 Normal termination of Gaussian 16 at Sun Dec 13 20:43:41 2020.

 ----------------------------------------------------------------------
 # B3LYP/6-311++G(d,p) empiricaldispersion=gd3bj scf=xqc pop=npa geom=c
 heck
 ----------------------------------------------------------------------

 -------------------------------------
 CID_150076477_JID_7172_Energie_kation
 -------------------------------------
 Structure from the checkpoint file:  "JID_7172.chk"
 Charge =  1 Multiplicity = 2

 SCF Done:  E(UB3LYP) =  -1531.93114358     A.U. after   29 cycles
 Normal termination of Gaussian 16 at Sun Dec 13 20:57:03 2020.
 Gaussian 16:  ES64L-G16RevA.03 25-Dec-2016

 ----------------------------------------------------------------------
 # B3LYP/6-311++G(d,p) empiricaldispersion=gd3bj scf=xqc pop=npa geom=c
 heck
 ----------------------------------------------------------------------

 ------------------------------------
 CID_150076477_JID_7172_Energie_anion
 ------------------------------------
 Structure from the checkpoint file:  "JID_7172.chk"
 Charge = -1 Multiplicity = 2

                         Standard orientation:
 ---------------------------------------------------------------------
 Center     Atomic      Atomic             Coordinates (Angstroms)
 Number     Number       Type             X           Y           Z
 ---------------------------------------------------------------------
      1          6           0       -2.827812   -2.645276    0.132305
      2          6           0       -2.626662   -1.360517    0.924744
      3         16           0       -3.063837    0.138914   -0.010498
      4          8           0       -4.266231   -0.154155   -0.809484
      5          8           0       -3.035424    1.262260    0.934949
      6          6           0       -1.698251    0.377114   -1.232990
      7          6           0       -0.423778    0.891497   -0.633581
      8          7           0       -0.333737    2.223166   -0.563001
      9          6           0        0.731095    2.779542    0.015279
     10          6           0        1.770575    2.025838    0.553998
     11          6           0        1.693146    0.633952    0.492986
     12          6           0        0.579930    0.025000   -0.132139
     13          7           0        0.468858   -1.353621   -0.198945
     14         16           0        2.945468   -0.323386    1.315599
     15          7           0        3.455140   -1.441998    0.015369
     16          7           0        4.255577   -0.913936   -0.785730
     17          7           0        4.984176   -0.540242   -1.574858
     18          1           0       -3.856653   -2.719072   -0.226967
     19          1           0       -2.609968   -3.508234    0.769353
     20          1           0       -2.164135   -2.702474   -0.737444
     21          1           0       -3.295459   -1.309270    1.789910
     22          1           0       -1.599428   -1.229337    1.273390
     23          1           0       -1.615805   -0.558598   -1.793971
     24          1           0       -2.117887    1.137910   -1.894520
     25          1           0        0.759733    3.865674    0.038781
     26          1           0        2.630041    2.504140    1.011890
     27          1           0       -0.170352   -1.709604   -0.895760
     28          1           0        1.347515   -1.860916   -0.193487
 ---------------------------------------------------------------------

 SCF Done:  E(UB3LYP) =  -1532.28288986     A.U. after   28 cycles

 The electronic state is 2-A.
 Alpha  occ. eigenvalues --  -88.94300 -88.71960 -19.01785 -19.01375 -14.31441
 Alpha  occ. eigenvalues --  -14.22128 -14.21676 -14.21608 -14.17767 -10.12253
 Alpha  occ. eigenvalues --  -10.11369 -10.10859 -10.10368 -10.09657 -10.07967
 Alpha  occ. eigenvalues --  -10.07541 -10.05530  -8.00845  -7.80455  -5.97100
 Alpha  occ. eigenvalues --   -5.96985  -5.96944  -5.76991  -5.76499  -5.75763
 Alpha  occ. eigenvalues --   -1.00735  -0.98719  -0.90519  -0.83870  -0.82433
 Alpha  occ. eigenvalues --   -0.80410  -0.72266  -0.69733  -0.67759  -0.61749
 Alpha  occ. eigenvalues --   -0.60047  -0.58858  -0.51744  -0.50212  -0.47900
 Alpha  occ. eigenvalues --   -0.43688  -0.42007  -0.41554  -0.40018  -0.38534
 Alpha  occ. eigenvalues --   -0.36994  -0.36624  -0.36322  -0.35964  -0.35156
 Alpha  occ. eigenvalues --   -0.34299  -0.33210  -0.32536  -0.31743  -0.30825
 Alpha  occ. eigenvalues --   -0.30378  -0.29263  -0.29140  -0.26508  -0.23833
 Alpha  occ. eigenvalues --   -0.23575  -0.22909  -0.22332  -0.20746  -0.20428
 Alpha  occ. eigenvalues --   -0.19201  -0.15609  -0.14249  -0.12205  -0.11158
 Alpha  occ. eigenvalues --   -0.09870   0.02048
 Alpha virt. eigenvalues --    0.06200   0.07684   0.08201   0.09062   0.09465
 Alpha virt. eigenvalues --    0.09783   0.10401   0.11261   0.11861   0.11938
 Alpha virt. eigenvalues --    0.12773   0.13207   0.13773   0.14142   0.14370

  Beta  occ. eigenvalues --  -88.94297 -88.71772 -19.01782 -19.01372 -14.31160
  Beta  occ. eigenvalues --  -14.21657 -14.21563 -14.21389 -14.17457 -10.12253
  Beta  occ. eigenvalues --  -10.11369 -10.10798 -10.10368 -10.09657 -10.07913
  Beta  occ. eigenvalues --  -10.07575 -10.05398  -8.00841  -7.80266  -5.97098
  Beta  occ. eigenvalues --   -5.96982  -5.96940  -5.76535  -5.76336  -5.75625
  Beta  occ. eigenvalues --   -1.00726  -0.97964  -0.90510  -0.83621  -0.81778
  Beta  occ. eigenvalues --   -0.80163  -0.72252  -0.69507  -0.67487  -0.61602
  Beta  occ. eigenvalues --   -0.59173  -0.58807  -0.51658  -0.49943  -0.47743
  Beta  occ. eigenvalues --   -0.43510  -0.41605  -0.41476  -0.39999  -0.38270
  Beta  occ. eigenvalues --   -0.36958  -0.36200  -0.35772  -0.35311  -0.34703
  Beta  occ. eigenvalues --   -0.33867  -0.33060  -0.32439  -0.31674  -0.30666
  Beta  occ. eigenvalues --   -0.29310  -0.29240  -0.28680  -0.26416  -0.23566
  Beta  occ. eigenvalues --   -0.23291  -0.22474  -0.22158  -0.20692  -0.19950
  Beta  occ. eigenvalues --   -0.18392  -0.14645  -0.13853  -0.11817  -0.10741
  Beta  occ. eigenvalues --   -0.09230
  Beta virt. eigenvalues --    0.06195   0.07708   0.08226   0.09008   0.09201
  Beta virt. eigenvalues --    0.09727   0.09821   0.11087   0.11498   0.11980
  Beta virt. eigenvalues --    0.12203   0.12895   0.13418   0.13786   0.14205

 Mulliken charges and spin densities:
               1          2
     1  C   -0.493958  -0.000689
     2  C   -0.660673  -0.005953
     3  S    0.546066   0.011214
     4  O   -0.201034   0.000258
     5  O   -0.141471  -0.000582
     6  C   -1.128162  -0.007953
     7  C   -0.829478  -0.052493
     8  N    0.150655   0.150017
     9  C   -0.161778   0.012031
    10  C    0.274254   0.006717
    11  C    0.909413   0.077825
    12  C   -0.361611  -0.036753
    13  N   -0.249951   0.011090
    14  S   -0.548461   0.454062
    15  N   -0.433683   0.085972
    16  N    0.370628   0.020285
    17  N   -0.360440   0.270187
    18  H    0.172280   0.000754
    19  H    0.142238   0.000967
    20  H    0.135184   0.000006
    21  H    0.229958  -0.000607
    22  H    0.298133   0.010087
    23  H    0.222537  -0.001260
    24  H    0.272080   0.004403
    25  H    0.147931  -0.000040
    26  H    0.167925  -0.008697
    27  H    0.184764  -0.001193
    28  H    0.346654   0.000344
 Sum of Mulliken charges =  -1.00000   1.00000

 Dipole moment (field-independent basis, Debye):
    X=             -5.4294    Y=             -3.9418    Z=              0.0039  Tot=              6.7094
 Quadrupole moment (field-independent basis, Debye-Ang):
   XX=           -199.1492   YY=           -127.5912   ZZ=           -128.6139
   XY=             17.9410   XZ=              4.1359   YZ=              0.2904

 Summary of Natural Population Analysis:

                                       Natural Population
                Natural  -----------------------------------------------
    Atom  No    Charge         Core      Valence    Rydberg      Total
 -----------------------------------------------------------------------
      C    1   -0.29478      0.99966     2.28931    0.00581     3.29478
      C    2   -0.29719      0.99959     2.28721    0.01039     3.29719
      S    3    1.01343      4.99929     1.89217    0.09510     6.98657
      O    4   -0.47887      0.99991     3.47281    0.00614     4.47887
      O    5   -0.45758      0.99991     3.45153    0.00614     4.45758
      C    6   -0.29268      0.99954     2.28094    0.01220     3.29268
      C    7    0.04562      0.99950     1.93691    0.01798     2.95438
      N    8   -0.18389      0.99967     2.67265    0.01157     3.68389
      C    9   -0.00153      0.99960     1.98753    0.01440     3.00153
      C   10   -0.08563      0.99950     2.07634    0.00980     3.08563
      C   11   -0.09479      0.99939     2.08246    0.01294     3.09479
      C   12    0.07862      0.99939     1.90816    0.01383     2.92138
      N   13   -0.40389      0.99970     2.89334    0.01085     3.90389
      S   14    0.24212      4.99950     2.73549    0.02289     7.75788
      N   15   -0.28692      0.99975     2.76931    0.01785     3.78692
      N   16    0.12648      0.99971     2.35694    0.01688     3.37352
      N   17    0.02151      0.99982     2.46556    0.01311     3.47849
      H   18    0.10824      0.00000     0.39056    0.00120     0.39176
      H   19    0.10329      0.00000     0.39577    0.00094     0.39671
      H   20    0.09588      0.00000     0.40319    0.00093     0.40412
      H   21    0.11196      0.00000     0.38664    0.00141     0.38804
      H   22    0.12801      0.00000     0.37071    0.00128     0.37199
      H   23    0.10356      0.00000     0.39525    0.00119     0.39644
      H   24    0.12915      0.00000     0.36947    0.00138     0.37085
      H   25    0.08390      0.00000     0.41480    0.00131     0.41610
      H   26    0.10209      0.00000     0.39668    0.00122     0.39791
      H   27    0.17710      0.00000     0.32152    0.00138     0.32290
      H   28    0.20679      0.00000     0.29127    0.00194     0.29321
 =======================================================================
   * Total *    0.00000     24.99343    45.69451    0.31206    71.00000

 Normal termination of Gaussian 16 at Sun Dec 13 21:09:50 2020.
