 Gaussian 16, Revision A.03,

 -----------------------------------------------------------
 # opt freq B3LYP/6-31G(d) empiricaldispersion=gd3bj scf=xqc
 -----------------------------------------------------------

 -------------------------------
 CID_65080420_JID_10174_neutraal
 -------------------------------
 Symbolic Z-matrix:
 Charge =  0 Multiplicity = 1

 SCF Done:  E(RB3LYP) =  -825.987322375     A.U. after   14 cycles
 SCF Done:  E(RB3LYP) =  -825.990848814     A.U. after   12 cycles
 SCF Done:  E(RB3LYP) =  -825.991410327     A.U. after   12 cycles
 SCF Done:  E(RB3LYP) =  -825.991654780     A.U. after   12 cycles
 SCF Done:  E(RB3LYP) =  -825.991767126     A.U. after   11 cycles
 SCF Done:  E(RB3LYP) =  -825.991876455     A.U. after   12 cycles
 SCF Done:  E(RB3LYP) =  -825.991911865     A.U. after   10 cycles
 SCF Done:  E(RB3LYP) =  -825.991919909     A.U. after    9 cycles
 SCF Done:  E(RB3LYP) =  -825.991923403     A.U. after    8 cycles
 SCF Done:  E(RB3LYP) =  -825.991925496     A.U. after    8 cycles
 SCF Done:  E(RB3LYP) =  -825.991925857     A.U. after    7 cycles
 Optimization completed.
    -- Stationary point found.
 Normal termination of Gaussian 16 at Sat Dec 12 14:59:17 2020.

 --------------------------------------------------------------------
 #N Geom=AllCheck Guess=TCheck SCRF=Check GenChk RB3LYP/6-31G(d) Freq
 --------------------------------------------------------------------

 Structure from the checkpoint file:  "JID_10174.chk"
 -------------------------------
 CID_65080420_JID_10174_neutraal
 -------------------------------
 Charge =  0 Multiplicity = 1

 SCF Done:  E(RB3LYP) =  -825.991925857     A.U. after    1 cycles

  Exact polarizability: 267.787 -13.157 215.430  -0.003  -3.855 113.835
 Approx polarizability: 359.049 -19.695 340.432   2.100 -13.309 181.201

                      1                      2                      3
                      A                      A                      A
 Frequencies --     25.5009                29.0748                33.9932
 Red. masses --      3.9347                 3.6876                 3.9034
 Frc consts  --      0.0015                 0.0018                 0.0027
 IR Inten    --      0.0318                 1.7137                 0.3653

                      4                      5                      6
                      A                      A                      A
 Frequencies --     58.0209                72.0541               109.6276
 Red. masses --      4.5018                 4.3736                 4.1335
 Frc consts  --      0.0089                 0.0134                 0.0293
 IR Inten    --      0.0505                 2.7961                 1.0515

                      7                      8                      9
                      A                      A                      A
 Frequencies --    129.6885               147.3261               187.9309
 Red. masses --      2.3727                 4.3262                 2.6400
 Frc consts  --      0.0235                 0.0553                 0.0549
 IR Inten    --      2.5891                 4.1977                 0.1330

                     10                     11                     12
                      A                      A                      A
 Frequencies --    218.3590               237.8713               251.0733
 Red. masses --      3.3881                 1.1612                 2.3358
 Frc consts  --      0.0952                 0.0387                 0.0868
 IR Inten    --      1.0441                 0.4632                17.9486

                     13                     14                     15
                      A                      A                      A
 Frequencies --    265.0607               288.9723               298.0216
 Red. masses --      2.0120                 2.4712                 4.4182
 Frc consts  --      0.0833                 0.1216                 0.2312
 IR Inten    --     68.3253                 5.1303                 1.9544

                     16                     17                     18
                      A                      A                      A
 Frequencies --    304.8615               336.0718               350.1107
 Red. masses --      1.9847                 3.3309                 2.7428
 Frc consts  --      0.1087                 0.2217                 0.1981
 IR Inten    --      0.2151                 8.9795                 0.4008

                     19                     20                     21
                      A                      A                      A
 Frequencies --    382.2917               394.8088               429.2274
 Red. masses --      2.6528                 2.2744                 3.8623
 Frc consts  --      0.2284                 0.2089                 0.4193
 IR Inten    --      2.4404                 0.2550                 0.7998

                     22                     23                     24
                      A                      A                      A
 Frequencies --    445.7980               466.7296               498.3115
 Red. masses --      2.2283                 3.2225                 2.3517
 Frc consts  --      0.2609                 0.4136                 0.3441
 IR Inten    --      0.1128                 0.3906                 9.3218

                     25                     26                     27
                      A                      A                      A
 Frequencies --    520.2976               539.1145               567.7343
 Red. masses --      1.5702                 2.6404                 2.8870
 Frc consts  --      0.2504                 0.4522                 0.5483
 IR Inten    --     40.5056                 0.0019                 0.1223

                     28                     29                     30
                      A                      A                      A
 Frequencies --    608.6985               635.9208               680.7766
 Red. masses --      4.1590                 3.9969                 3.3385
 Frc consts  --      0.9079                 0.9523                 0.9116
 IR Inten    --      0.2991                 3.2612                15.4952

                     31                     32                     33
                      A                      A                      A
 Frequencies --    696.0218               701.7463               714.8511
 Red. masses --      5.3974                 2.7046                 2.4502
 Frc consts  --      1.5406                 0.7847                 0.7377
 IR Inten    --      5.7126                10.1124                 2.6109

                     34                     35                     36
                      A                      A                      A
 Frequencies --    744.3464               780.4937               797.1719
 Red. masses --      2.2148                 1.4207                 1.9069
 Frc consts  --      0.7230                 0.5099                 0.7140
 IR Inten    --      0.8769                59.0397                 8.0594

                     37                     38                     39
                      A                      A                      A
 Frequencies --    800.4636               852.0206               857.9143
 Red. masses --      1.4297                 1.8796                 1.6348
 Frc consts  --      0.5397                 0.8039                 0.7089
 IR Inten    --     21.6443                13.0744                 2.0640

                     40                     41                     42
                      A                      A                      A
 Frequencies --    863.1467               868.8345               882.3542
 Red. masses --      1.5016                 1.6892                 1.3182
 Frc consts  --      0.6592                 0.7513                 0.6047
 IR Inten    --      0.9262                 8.7290                 4.8339

                     43                     44                     45
                      A                      A                      A
 Frequencies --    897.7588               930.5208               943.8343
 Red. masses --      3.1342                 2.2759                 2.8279
 Frc consts  --      1.4883                 1.1611                 1.4843
 IR Inten    --      8.9950                 1.0383                13.7506

                     46                     47                     48
                      A                      A                      A
 Frequencies --    946.0458               955.5422               971.1284
 Red. masses --      2.3564                 1.2546                 2.3284
 Frc consts  --      1.2426                 0.6749                 1.2938
 IR Inten    --     29.6646                 0.0277                 1.2189

                     49                     50                     51
                      A                      A                      A
 Frequencies --    985.0488              1007.3254              1014.7356
 Red. masses --      1.6267                 4.7577                 2.0198
 Frc consts  --      0.9300                 2.8444                 1.2254
 IR Inten    --      1.8073                 9.7439                 1.9737

                     52                     53                     54
                      A                      A                      A
 Frequencies --   1027.7257              1036.8160              1068.7111
 Red. masses --      2.9024                 1.9851                 1.3782
 Frc consts  --      1.8062                 1.2573                 0.9274
 IR Inten    --      1.2302                 3.3198                15.4284

                     55                     56                     57
                      A                      A                      A
 Frequencies --   1078.1734              1092.3374              1102.0573
 Red. masses --      2.6955                 1.9717                 2.1091
 Frc consts  --      1.8461                 1.3861                 1.5092
 IR Inten    --      1.3708                20.1573                 0.4819

                     58                     59                     60
                      A                      A                      A
 Frequencies --   1114.2353              1120.2482              1133.4011
 Red. masses --      1.6817                 1.9005                 1.6729
 Frc consts  --      1.2302                 1.4052                 1.2662
 IR Inten    --      1.5714                12.6680                17.8604

                     61                     62                     63
                      A                      A                      A
 Frequencies --   1151.2597              1170.8801              1192.6661
 Red. masses --      3.5919                 2.5111                 2.1028
 Frc consts  --      2.8049                 2.0283                 1.7623
 IR Inten    --     23.1613                 6.0254                 5.2062

                     64                     65                     66
                      A                      A                      A
 Frequencies --   1207.3755              1214.3605              1247.7016
 Red. masses --      1.1123                 1.4998                 1.3100
 Frc consts  --      0.9554                 1.3031                 1.2015
 IR Inten    --     11.5625                 3.9167                 2.6420

                     67                     68                     69
                      A                      A                      A
 Frequencies --   1260.7060              1267.5526              1294.2576
 Red. masses --      1.2489                 1.9809                 1.2499
 Frc consts  --      1.1695                 1.8752                 1.2336
 IR Inten    --      1.6453                 7.5958                 2.7201

                     70                     71                     72
                      A                      A                      A
 Frequencies --   1297.0183              1317.9707              1325.2731
 Red. masses --      1.9276                 1.9648                 1.4753
 Frc consts  --      1.9106                 2.0109                 1.5266
 IR Inten    --     71.7164                 8.2869                25.4110

                     73                     74                     75
                      A                      A                      A
 Frequencies --   1332.7903              1344.4194              1363.2273
 Red. masses --      1.4902                 1.2446                 1.3830
 Frc consts  --      1.5596                 1.3254                 1.5142
 IR Inten    --     21.5477                 6.3766                 1.8984

                     76                     77                     78
                      A                      A                      A
 Frequencies --   1369.6578              1376.0000              1392.0712
 Red. masses --      1.3113                 1.8799                 1.5523
 Frc consts  --      1.4494                 2.0971                 1.7724
 IR Inten    --      0.5532                 2.4551                 8.5078

                     79                     80                     81
                      A                      A                      A
 Frequencies --   1394.1350              1395.6693              1406.9414
 Red. masses --      1.5643                 2.9601                 1.3923
 Frc consts  --      1.7913                 3.3972                 1.6238
 IR Inten    --     35.2810                25.1161                 1.1907

                     82                     83                     84
                      A                      A                      A
 Frequencies --   1413.0931              1423.9199              1425.8924
 Red. masses --      1.4249                 1.4180                 1.5544
 Frc consts  --      1.6764                 1.6939                 1.8620
 IR Inten    --     15.1037                13.5214                 5.5902

                     85                     86                     87
                      A                      A                      A
 Frequencies --   1441.3993              1451.1299              1467.0859
 Red. masses --      1.2366                 2.5037                 3.2646
 Frc consts  --      1.5138                 3.1063                 4.1400
 IR Inten    --      2.1514                 5.2614                37.2297

                     88                     89                     90
                      A                      A                      A
 Frequencies --   1506.9550              1511.4866              1516.8452
 Red. masses --      2.2503                 1.1033                 1.1168
 Frc consts  --      3.0108                 1.4851                 1.5140
 IR Inten    --     44.9007                 1.3313                 5.6328

                     91                     92                     93
                      A                      A                      A
 Frequencies --   1518.2719              1528.6928              1528.9720
 Red. masses --      1.1184                 1.3559                 1.4552
 Frc consts  --      1.5190                 1.8668                 2.0043
 IR Inten    --      1.6500                27.6919                12.7150

                     94                     95                     96
                      A                      A                      A
 Frequencies --   1532.2206              1532.7169              1537.0625
 Red. masses --      1.0647                 1.2268                 1.1024
 Frc consts  --      1.4727                 1.6980                 1.5345
 IR Inten    --      3.6807                26.9750                12.8501

                     97                     98                     99
                      A                      A                      A
 Frequencies --   1563.8330              1615.4167              1648.9112
 Red. masses --      2.0543                 3.7773                 5.1219
 Frc consts  --      2.9600                 5.8076                 8.2050
 IR Inten    --    135.3950                32.5006                58.3629

                    100                    101                    102
                      A                      A                      A
 Frequencies --   1667.8124              2995.2525              3000.0836
 Red. masses --      5.6513                 1.0821                 1.0834
 Frc consts  --      9.2617                 5.7199                 5.7450
 IR Inten    --    244.5895                11.7339                19.4128

                    103                    104                    105
                      A                      A                      A
 Frequencies --   3015.0937              3029.0720              3030.8904
 Red. masses --      1.0641                 1.0602                 1.0647
 Frc consts  --      5.6997                 5.7315                 5.7626
 IR Inten    --     24.3020                17.3387                11.7081

                    106                    107                    108
                      A                      A                      A
 Frequencies --   3039.9790              3043.1031              3054.9890
 Red. masses --      1.0416                 1.0652                 1.0697
 Frc consts  --      5.6713                 5.8119                 5.8823
 IR Inten    --     61.0815                12.7288                 5.9500

                    109                    110                    111
                      A                      A                      A
 Frequencies --   3059.8061              3068.6563              3072.8653
 Red. masses --      1.0962                 1.0992                 1.0942
 Frc consts  --      6.0471                 6.0987                 6.0872
 IR Inten    --     53.5603                44.9514                57.8707

                    112                    113                    114
                      A                      A                      A
 Frequencies --   3083.4261              3094.3622              3104.0931
 Red. masses --      1.0977                 1.1019                 1.1011
 Frc consts  --      6.1490                 6.2161                 6.2507
 IR Inten    --     45.9382                40.0318                55.6690

                    115                    116                    117
                      A                      A                      A
 Frequencies --   3111.9316              3172.2373              3189.5998
 Red. masses --      1.1025                 1.0869                 1.0893
 Frc consts  --      6.2907                 6.4444                 6.5296
 IR Inten    --     37.1221                10.3324                21.2749

                    118                    119                    120
                      A                      A                      A
 Frequencies --   3205.8722              3231.7384              3256.4368
 Red. masses --      1.0956                 1.0887                 1.0931
 Frc consts  --      6.6343                 6.6995                 6.8298
 IR Inten    --     24.3586                 8.9492                14.5561

                    121                    122                    123
                      A                      A                      A
 Frequencies --   3281.2397              3610.8724              3665.9762
 Red. masses --      1.1001                 1.0763                 1.0808
 Frc consts  --      6.9786                 8.2679                 8.5577
 IR Inten    --      2.7823                20.8250                53.1833

 - Thermochemistry -
 -------------------
 Temperature   298.150 Kelvin.  Pressure   1.00000 Atm.
 Atom     1 has atomic number  6 and mass  12.00000

 Molecular mass:   269.18920 amu.
 Principal axes and moments of inertia in atomic units:
                           1         2         3
     Eigenvalues --  2592.88142********************
           X            0.99997   0.00743   0.00018
           Y           -0.00743   0.99995   0.00693
           Z           -0.00013  -0.00693   0.99998
 This molecule is an asymmetric top.
 Rotational symmetry number  1.
 Warning -- assumption of classical behavior for rotation
           may cause significant error
 Rotational temperatures (Kelvin)      0.03340     0.00685     0.00590
 Rotational constants (GHZ):           0.69604     0.14279     0.12293
 Zero-point vibrational energy     993316.6 (Joules/Mol)
                                  237.40836 (Kcal/Mol)
 Warning -- explicit consideration of  28 degrees of freedom as
           vibrations may cause significant error
 Vibrational temperatures:     36.69    41.83    48.91    83.48   103.67
          (Kelvin)            157.73   186.59   211.97   270.39   314.17
                              342.24   361.24   381.36   415.77   428.79
                              438.63   483.53   503.73   550.03   568.04
                              617.56   641.40   671.52   716.96   748.59
                              775.67   816.84   875.78   914.95   979.49
                             1001.42  1009.66  1028.51  1070.95  1122.96
                             1146.95  1151.69  1225.87  1234.35  1241.88
                             1250.06  1269.51  1291.67  1338.81  1357.97
                             1361.15  1374.81  1397.24  1417.27  1449.32
                             1459.98  1478.67  1491.75  1537.64  1551.25
                             1571.63  1585.61  1603.14  1611.79  1630.71
                             1656.41  1684.64  1715.98  1737.14  1747.19
                             1795.16  1813.87  1823.73  1862.15  1866.12
                             1896.27  1906.77  1917.59  1934.32  1961.38
                             1970.63  1979.76  2002.88  2005.85  2008.06
                             2024.27  2033.13  2048.70  2051.54  2073.85
                             2087.85  2110.81  2168.17  2174.69  2182.40
                             2184.45  2199.45  2199.85  2204.52  2205.24
                             2211.49  2250.01  2324.22  2372.42  2399.61
                             4309.50  4316.45  4338.05  4358.16  4360.78
                             4373.85  4378.35  4395.45  4402.38  4415.11
                             4421.17  4436.36  4452.10  4466.10  4477.38
                             4564.14  4589.12  4612.54  4649.75  4685.29
                             4720.97  5195.24  5274.52

 Zero-point correction=                           0.378334 (Hartree/Particle)
 Thermal correction to Energy=                    0.396641
 Thermal correction to Enthalpy=                  0.397585
 Thermal correction to Gibbs Free Energy=         0.330395
 Sum of electronic and zero-point Energies=           -825.613592
 Sum of electronic and thermal Energies=              -825.595285
 Sum of electronic and thermal Enthalpies=            -825.594341
 Sum of electronic and thermal Free Energies=         -825.661530

                     E (Thermal)             CV                S
                      KCal/Mol        Cal/Mol-Kelvin    Cal/Mol-Kelvin
 Total                  248.896             72.412            141.412
 Electronic               0.000              0.000              0.000
 Translational            0.889              2.981             42.670
 Rotational               0.889              2.981             34.530
 Vibrational            247.118             66.451             64.212
 Vibration     1          0.593              1.985              6.152
 Vibration     2          0.593              1.984              5.892
 Vibration     3          0.594              1.983              5.582
 Vibration     4          0.596              1.974              4.523
 Vibration     5          0.598              1.967              4.096
 Vibration     6          0.606              1.941              3.275
 Vibration     7          0.612              1.924              2.951
 Vibration     8          0.617              1.906              2.706
 Vibration     9          0.633              1.856              2.248
 Vibration    10          0.646              1.813              1.973
 Vibration    11          0.656              1.783              1.819
 Vibration    12          0.663              1.761              1.723
 Vibration    13          0.671              1.737              1.628
 Vibration    14          0.686              1.694              1.480
 Vibration    15          0.691              1.677              1.428
 Vibration    16          0.696              1.664              1.390
 Vibration    17          0.717              1.603              1.231
 Vibration    18          0.727              1.575              1.166
 Vibration    19          0.752              1.508              1.030
 Vibration    20          0.762              1.481              0.982
 Vibration    21          0.791              1.407              0.861
 Vibration    22          0.805              1.370              0.809
 Vibration    23          0.824              1.324              0.747
 Vibration    24          0.854              1.254              0.662
 Vibration    25          0.875              1.205              0.609
 Vibration    26          0.894              1.164              0.567
 Vibration    27          0.924              1.101              0.509
 Vibration    28          0.968              1.013              0.435

                           ! Non-Optimized Parameters !
 Normal termination of Gaussian 16 at Sat Dec 12 15:21:50 2020.

 ----------------------------------------------------------------------
 # B3LYP/6-311++G(d,p) empiricaldispersion=gd3bj scf=xqc pop=npa geom=c
 heck
 ----------------------------------------------------------------------

 ---------------------------------------
 CID_65080420_JID_10174_Energie_neutraal
 ---------------------------------------
 Structure from the checkpoint file:  "JID_10174.chk"
 Charge =  0 Multiplicity = 1

 SCF Done:  E(RB3LYP) =  -826.212424776     A.U. after   15 cycles
 Normal termination of Gaussian 16 at Sat Dec 12 15:33:11 2020.

 ----------------------------------------------------------------------
 # B3LYP/6-311++G(d,p) empiricaldispersion=gd3bj scf=xqc pop=npa geom=c
 heck
 ----------------------------------------------------------------------

 -------------------------------------
 CID_65080420_JID_10174_Energie_kation
 -------------------------------------
 Structure from the checkpoint file:  "JID_10174.chk"
 Charge =  1 Multiplicity = 2

 SCF Done:  E(UB3LYP) =  -825.949027713     A.U. after   25 cycles
 Normal termination of Gaussian 16 at Sat Dec 12 15:59:09 2020.
 Gaussian 16:  ES64L-G16RevA.03 25-Dec-2016

 ----------------------------------------------------------------------
 # B3LYP/6-311++G(d,p) empiricaldispersion=gd3bj scf=xqc pop=npa geom=c
 heck
 ----------------------------------------------------------------------

 ------------------------------------
 CID_65080420_JID_10174_Energie_anion
 ------------------------------------
 Structure from the checkpoint file:  "JID_10174.chk"
 Charge = -1 Multiplicity = 2

                         Standard orientation:
 ---------------------------------------------------------------------
 Center     Atomic      Atomic             Coordinates (Angstroms)
 Number     Number       Type             X           Y           Z
 ---------------------------------------------------------------------
      1          6           0       -6.251947   -0.176543   -0.409103
      2          6           0       -4.890937   -0.531995    0.202622
      3          6           0       -4.190156   -1.588049   -0.668259
      4          6           0       -2.762754   -1.995380   -0.268449
      5          6           0       -1.719604   -0.894849   -0.522728
      6          6           0       -1.524380    0.126645    0.619971
      7          6           0       -2.827437    0.511371    1.342158
      8          6           0       -4.060004    0.741625    0.449607
      9          7           0       -0.879946    1.336502    0.110683
     10          6           0        0.482751    1.488346   -0.053338
     11          6           0        1.006607    2.768147   -0.338450
     12          6           0        2.370396    2.947885   -0.521676
     13          6           0        3.256538    1.873764   -0.430094
     14          6           0        2.755789    0.597224   -0.137098
     15          6           0        1.379280    0.412032    0.050877
     16          6           0        3.651448   -0.554800   -0.022168
     17          6           0        3.456300   -1.913292   -0.244237
     18          6           0        4.702657   -2.514822    0.030202
     19          7           0        5.618879   -1.619737    0.404508
     20          7           0        4.959431   -0.442257    0.353398
     21          1           0       -6.814590    0.505990    0.238192
     22          1           0       -6.863504   -1.072193   -0.567724
     23          1           0       -6.124531    0.314672   -1.382285
     24          1           0       -5.073274   -0.983923    1.190615
     25          1           0       -4.825335   -2.483858   -0.684629
     26          1           0       -4.158860   -1.221312   -1.705480
     27          1           0       -2.490554   -2.876521   -0.862155
     28          1           0       -2.734713   -2.323254    0.780297
     29          1           0       -2.000752   -0.336706   -1.423596
     30          1           0       -0.747555   -1.346461   -0.749023
     31          1           0       -0.864290   -0.320446    1.378472
     32          1           0       -2.617683    1.406692    1.941882
     33          1           0       -3.067107   -0.274053    2.068067
     34          1           0       -3.767710    1.190220   -0.510632
     35          1           0       -4.712644    1.475616    0.938967
     36          1           0       -1.395017    2.195199    0.241632
     37          1           0        0.327863    3.614337   -0.417544
     38          1           0        2.749574    3.940277   -0.750148
     39          1           0        4.314224    2.019695   -0.626430
     40          1           0        1.019626   -0.578300    0.299986
     41          1           0        2.549647   -2.384873   -0.593393
     42          1           0        4.974399   -3.560308   -0.032761
     43          1           0        5.426954    0.394104    0.668544
 ---------------------------------------------------------------------

 SCF Done:  E(UB3LYP) =  -826.204759727     A.U. after   33 cycles
 SCF Done:  E(UB3LYP) =  -826.204759727     a.u. after    1 cycles

 The electronic state is 2-A.
 Alpha  occ. eigenvalues --  -14.27997 -14.22843 -14.22083 -10.11546 -10.11187
 Alpha  occ. eigenvalues --  -10.10940 -10.09294 -10.08210 -10.07885 -10.07789
 Alpha  occ. eigenvalues --  -10.07784 -10.07454 -10.07316 -10.07184 -10.07125
 Alpha  occ. eigenvalues --  -10.06677 -10.06355 -10.06263 -10.05924 -10.05863
 Alpha  occ. eigenvalues --   -0.94585  -0.84038  -0.75530  -0.73830  -0.71878
 Alpha  occ. eigenvalues --   -0.69200  -0.68212  -0.67292  -0.63801  -0.62498
 Alpha  occ. eigenvalues --   -0.60155  -0.56206  -0.53939  -0.52622  -0.51176
 Alpha  occ. eigenvalues --   -0.50285  -0.48701  -0.47258  -0.46011  -0.45020
 Alpha  occ. eigenvalues --   -0.39972  -0.39389  -0.38574  -0.38019  -0.37036
 Alpha  occ. eigenvalues --   -0.35444  -0.34867  -0.34561  -0.33998  -0.33263
 Alpha  occ. eigenvalues --   -0.32414  -0.32157  -0.31739  -0.30947  -0.30417
 Alpha  occ. eigenvalues --   -0.29995  -0.28743  -0.28155  -0.27606  -0.26556
 Alpha  occ. eigenvalues --   -0.25666  -0.24377  -0.23665  -0.23501  -0.23065
 Alpha  occ. eigenvalues --   -0.22301  -0.22002  -0.20567  -0.19750  -0.17575
 Alpha  occ. eigenvalues --   -0.16600  -0.12798  -0.10000   0.04035
 Alpha virt. eigenvalues --    0.05415   0.06387   0.06697   0.07149   0.07534
 Alpha virt. eigenvalues --    0.07846   0.08763   0.09162   0.09536   0.09719
 Alpha virt. eigenvalues --    0.10021   0.10262   0.10640   0.11072   0.11908

  Beta  occ. eigenvalues --  -14.27893 -14.22743 -14.22076 -10.11547 -10.11199
  Beta  occ. eigenvalues --  -10.10898 -10.09323 -10.08202 -10.07878 -10.07767
  Beta  occ. eigenvalues --  -10.07654 -10.07441 -10.07297 -10.07177 -10.07115
  Beta  occ. eigenvalues --  -10.06648 -10.06313 -10.06246 -10.05852 -10.05726
  Beta  occ. eigenvalues --   -0.94423  -0.84012  -0.75366  -0.73768  -0.71742
  Beta  occ. eigenvalues --   -0.69084  -0.68154  -0.67254  -0.63603  -0.62378
  Beta  occ. eigenvalues --   -0.60097  -0.56162  -0.53840  -0.52415  -0.51130
  Beta  occ. eigenvalues --   -0.50198  -0.48639  -0.47217  -0.45954  -0.44933
  Beta  occ. eigenvalues --   -0.39921  -0.39293  -0.38503  -0.37957  -0.36994
  Beta  occ. eigenvalues --   -0.35385  -0.34785  -0.34417  -0.33780  -0.33166
  Beta  occ. eigenvalues --   -0.32365  -0.32096  -0.31689  -0.30895  -0.30353
  Beta  occ. eigenvalues --   -0.29955  -0.28706  -0.27977  -0.27495  -0.26484
  Beta  occ. eigenvalues --   -0.25565  -0.24299  -0.23620  -0.23467  -0.22993
  Beta  occ. eigenvalues --   -0.22254  -0.21967  -0.20294  -0.19600  -0.17122
  Beta  occ. eigenvalues --   -0.16239  -0.12236  -0.09626
  Beta virt. eigenvalues --    0.06051   0.06756   0.06893   0.07164   0.07382
  Beta virt. eigenvalues --    0.07789   0.07964   0.08877   0.09444   0.09772
  Beta virt. eigenvalues --    0.09875   0.10103   0.10357   0.10780   0.11219

 Mulliken charges and spin densities:
               1          2
     1  C    1.236035  -1.996597
     2  C   -0.927785   1.321527
     3  C   -0.162090  -0.401197
     4  C   -0.399645   0.169444
     5  C    0.374813  -0.287291
     6  C   -0.362408  -0.147826
     7  C   -0.942437   0.521346
     8  C    0.617418  -1.074914
     9  N    0.129277  -0.021337
    10  C    0.394733  -0.252596
    11  C   -0.045103  -0.013148
    12  C   -0.387707   0.001282
    13  C   -0.490368  -0.028653
    14  C    0.692762   0.008529
    15  C   -0.221498  -0.034984
    16  C   -0.497272  -0.004189
    17  C    0.221362   0.017278
    18  C   -0.330099  -0.009342
    19  N   -0.202412   0.038508
    20  N   -0.003644   0.050483
    21  H   -0.241634   0.377796
    22  H   -0.259625   0.394761
    23  H    0.031938   0.096317
    24  H   -0.125300   0.296493
    25  H   -0.029747   0.178436
    26  H    0.032183   0.117661
    27  H   -0.034882   0.204729
    28  H    0.104015   0.035352
    29  H    0.098601   0.056557
    30  H    0.196521  -0.037836
    31  H    0.137567   0.047005
    32  H   -0.408529   0.620823
    33  H    0.219613  -0.097500
    34  H    0.170260  -0.017709
    35  H   -0.340201   0.523493
    36  H    0.253792   0.018787
    37  H   -0.198600   0.285470
    38  H    0.117179   0.022213
    39  H    0.074794   0.021404
    40  H    0.032456  -0.058435
    41  H    0.064529   0.046335
    42  H    0.134069   0.013332
    43  H    0.277070  -0.001807
 Sum of Mulliken charges =  -1.00000   1.00000

 Dipole moment (field-independent basis, Debye):
    X=              3.7915    Y=             -1.0380    Z=             -0.8066  Tot=              4.0130
 Quadrupole moment (field-independent basis, Debye-Ang):
   XX=           -257.2136   YY=           -160.2586   ZZ=           -148.0759
   XY=             12.4383   XZ=              5.0489   YZ=             -5.0920

 Summary of Natural Population Analysis:

                                       Natural Population
                Natural  -----------------------------------------------
    Atom  No    Charge         Core      Valence    Rydberg      Total
 -----------------------------------------------------------------------
      C    1   -0.28191      0.99965     2.27590    0.00636     3.28191
      C    2   -0.10910      0.99960     2.10016    0.00935     3.10910
      C    3   -0.18552      0.99961     2.17718    0.00873     3.18552
      C    4   -0.19318      0.99963     2.18552    0.00804     3.19318
      C    5   -0.19482      0.99960     2.18779    0.00742     3.19482
      C    6   -0.00452      0.99958     1.99359    0.01135     3.00452
      C    7   -0.19280      0.99961     2.18356    0.00963     3.19280
      C    8   -0.19523      0.99961     2.18560    0.01003     3.19523
      N    9   -0.31524      0.99966     2.80540    0.01018     3.81524
      C   10    0.09607      0.99950     1.89353    0.01090     2.90393
      C   11   -0.10297      0.99954     2.09357    0.00987     3.10297
      C   12   -0.09387      0.99958     2.08465    0.00965     3.09387
      C   13   -0.12360      0.99954     2.11521    0.00886     3.12360
      C   14   -0.01279      0.99950     2.00500    0.00830     3.01279
      C   15   -0.11299      0.99950     2.10721    0.00627     3.11299
      C   16    0.08397      0.99953     1.90342    0.01307     2.91603
      C   17   -0.15614      0.99952     2.14903    0.00758     3.15614
      C   18   -0.02743      0.99965     2.01298    0.01480     3.02743
      N   19   -0.15004      0.99975     2.63650    0.01379     3.65004
      N   20   -0.15583      0.99965     2.64513    0.01104     3.65583
      H   21    0.10065      0.00000     0.39825    0.00110     0.39935
      H   22    0.09884      0.00000     0.40014    0.00102     0.40116
      H   23    0.09520      0.00000     0.40387    0.00093     0.40480
      H   24    0.08989      0.00000     0.40845    0.00166     0.41011
      H   25    0.09847      0.00000     0.40046    0.00107     0.40153
      H   26    0.09178      0.00000     0.40709    0.00114     0.40822
      H   27    0.09892      0.00000     0.40021    0.00087     0.40108
      H   28    0.09401      0.00000     0.40494    0.00105     0.40599
      H   29    0.09950      0.00000     0.39926    0.00124     0.40050
      H   30    0.10185      0.00000     0.39711    0.00104     0.39815
      H   31    0.09027      0.00000     0.40760    0.00213     0.40973
      H   32    0.10395      0.00000     0.39481    0.00124     0.39605
      H   33    0.09941      0.00000     0.39936    0.00123     0.40059
      H   34    0.09607      0.00000     0.40255    0.00137     0.40393
      H   35    0.10342      0.00000     0.39509    0.00149     0.39658
      H   36    0.18788      0.00000     0.30957    0.00255     0.31212
      H   37    0.09599      0.00000     0.40306    0.00095     0.40401
      H   38    0.09588      0.00000     0.40334    0.00078     0.40412
      H   39    0.09237      0.00000     0.40558    0.00205     0.40763
      H   40    0.09864      0.00000     0.39936    0.00200     0.40136
      H   41    0.10717      0.00000     0.39180    0.00103     0.39283
      H   42    0.09285      0.00000     0.40623    0.00092     0.40715
      H   43    0.19494      0.00000     0.30308    0.00198     0.30506
 =======================================================================
   * Total *   -0.00000     19.99180    52.78214    0.22606    73.00000

 Normal termination of Gaussian 16 at Sat Dec 12 16:34:24 2020.
