 Gaussian 16, Revision A.03,

 -----------------------------------------------------------
 # opt freq B3LYP/6-31G(d) empiricaldispersion=gd3bj scf=xqc
 -----------------------------------------------------------

 ------------------------------
 CID_69554519_JID_7856_neutraal
 ------------------------------
 Symbolic Z-matrix:
 Charge =  0 Multiplicity = 1

 SCF Done:  E(RB3LYP) =  -787.251934614     A.U. after   14 cycles
 SCF Done:  E(RB3LYP) =  -787.255998944     A.U. after   12 cycles
 SCF Done:  E(RB3LYP) =  -787.255842234     A.U. after   12 cycles
 SCF Done:  E(RB3LYP) =  -787.257345400     A.U. after   11 cycles
 SCF Done:  E(RB3LYP) =  -787.257921876     A.U. after   11 cycles
 SCF Done:  E(RB3LYP) =  -787.258571709     A.U. after   11 cycles
 SCF Done:  E(RB3LYP) =  -787.259485394     A.U. after   12 cycles
 SCF Done:  E(RB3LYP) =  -787.260043799     A.U. after   11 cycles
 SCF Done:  E(RB3LYP) =  -787.260204277     A.U. after   11 cycles
 SCF Done:  E(RB3LYP) =  -787.260343374     A.U. after   10 cycles
 SCF Done:  E(RB3LYP) =  -787.260221263     A.U. after   10 cycles
 SCF Done:  E(RB3LYP) =  -787.260423903     A.U. after   11 cycles
 SCF Done:  E(RB3LYP) =  -787.260426286     A.U. after    8 cycles
 SCF Done:  E(RB3LYP) =  -787.260427254     A.U. after    8 cycles
 SCF Done:  E(RB3LYP) =  -787.260427425     A.U. after    7 cycles
 Optimization completed.
    -- Stationary point found.
 Normal termination of Gaussian 16 at Sun Dec 13 12:35:40 2020.

 --------------------------------------------------------------------
 #N Geom=AllCheck Guess=TCheck SCRF=Check GenChk RB3LYP/6-31G(d) Freq
 --------------------------------------------------------------------

 Structure from the checkpoint file:  "JID_7856.chk"
 ------------------------------
 CID_69554519_JID_7856_neutraal
 ------------------------------
 Charge =  0 Multiplicity = 1

 SCF Done:  E(RB3LYP) =  -787.260427425     A.U. after    1 cycles

  Exact polarizability: 161.445   0.703 160.669  17.065  -1.955 117.852
 Approx polarizability: 223.378   1.008 253.932  34.919  -6.684 183.564

                      1                      2                      3
                      A                      A                      A
 Frequencies --     29.1258                51.7080                72.2466
 Red. masses --      4.1887                 5.2643                 3.9763
 Frc consts  --      0.0021                 0.0083                 0.0122
 IR Inten    --      0.1667                 0.0552                 1.1206

                      4                      5                      6
                      A                      A                      A
 Frequencies --     93.2802               104.7103               129.5539
 Red. masses --      4.2934                 3.7153                 3.5159
 Frc consts  --      0.0220                 0.0240                 0.0348
 IR Inten    --      0.1676                 0.4619                 2.8623

                      7                      8                      9
                      A                      A                      A
 Frequencies --    149.3829               180.5947               188.2973
 Red. masses --      4.1222                 1.4638                 2.1062
 Frc consts  --      0.0542                 0.0281                 0.0440
 IR Inten    --      0.7617                 0.3979                 1.8232

                     10                     11                     12
                      A                      A                      A
 Frequencies --    199.1107               247.5001               274.2398
 Red. masses --      2.5984                 3.1929                 2.0510
 Frc consts  --      0.0607                 0.1152                 0.0909
 IR Inten    --      4.0627                 9.3757                 2.2801

                     13                     14                     15
                      A                      A                      A
 Frequencies --    289.3771               299.6180               339.9422
 Red. masses --      3.2729                 2.3588                 2.8776
 Frc consts  --      0.1615                 0.1248                 0.1959
 IR Inten    --      4.4195                 5.4110                18.4499

                     16                     17                     18
                      A                      A                      A
 Frequencies --    366.2473               412.6298               428.5900
 Red. masses --      1.4828                 2.6997                 2.4491
 Frc consts  --      0.1172                 0.2708                 0.2651
 IR Inten    --    121.0120                18.5523                 0.8292

                     19                     20                     21
                      A                      A                      A
 Frequencies --    433.5019               458.2147               480.2369
 Red. masses --      3.8736                 2.2247                 2.6509
 Frc consts  --      0.4289                 0.2752                 0.3602
 IR Inten    --      1.7192                 7.3339                 0.7071

                     22                     23                     24
                      A                      A                      A
 Frequencies --    492.0039               518.3143               575.5075
 Red. masses --      4.3640                 3.7075                 3.9024
 Frc consts  --      0.6224                 0.5868                 0.7615
 IR Inten    --      4.5338                 7.6422                 1.3426

                     25                     26                     27
                      A                      A                      A
 Frequencies --    585.5732               609.6409               626.2180
 Red. masses --      3.6031                 2.5632                 3.7559
 Frc consts  --      0.7279                 0.5613                 0.8678
 IR Inten    --      7.3244                14.9806                23.0926

                     28                     29                     30
                      A                      A                      A
 Frequencies --    726.5411               773.5182               787.0236
 Red. masses --      4.5599                 4.0832                 1.5628
 Frc consts  --      1.4182                 1.4394                 0.5703
 IR Inten    --      0.2097                 2.5296                23.4604

                     31                     32                     33
                      A                      A                      A
 Frequencies --    823.4463               832.7136               854.3269
 Red. masses --      3.0164                 4.7684                 1.6590
 Frc consts  --      1.2051                 1.9481                 0.7134
 IR Inten    --     16.0338                 6.2507                 0.0179

                     34                     35                     36
                      A                      A                      A
 Frequencies --    868.8944               889.9256               923.5090
 Red. masses --      3.3844                 2.3619                 1.4269
 Frc consts  --      1.5055                 1.1021                 0.7170
 IR Inten    --     12.6429                 8.9824                 0.8273

                     37                     38                     39
                      A                      A                      A
 Frequencies --    929.0960               969.3225               969.9939
 Red. masses --      2.4908                 1.8651                 1.2823
 Frc consts  --      1.2668                 1.0325                 0.7108
 IR Inten    --     12.9996                 4.5085                 1.5592

                     40                     41                     42
                      A                      A                      A
 Frequencies --   1004.0591              1020.0901              1032.6283
 Red. masses --      2.7247                 2.6032                 5.6943
 Frc consts  --      1.6184                 1.5960                 3.5775
 IR Inten    --     32.5944                 2.8684                23.1562

                     43                     44                     45
                      A                      A                      A
 Frequencies --   1042.9268              1049.4832              1103.7458
 Red. masses --      7.4881                 2.4667                 1.8574
 Frc consts  --      4.7988                 1.6008                 1.3332
 IR Inten    --    136.3816                47.1793                 5.4319

                     46                     47                     48
                      A                      A                      A
 Frequencies --   1108.2799              1119.3590              1140.2304
 Red. masses --      2.1420                 1.9946                 6.0561
 Frc consts  --      1.5501                 1.4725                 4.6391
 IR Inten    --     22.9053                40.9383                60.6842

                     49                     50                     51
                      A                      A                      A
 Frequencies --   1172.3232              1187.5095              1197.2411
 Red. masses --      2.1941                 2.0829                 1.2479
 Frc consts  --      1.7767                 1.7306                 1.0539
 IR Inten    --      5.7147                15.4720                 1.3483

                     52                     53                     54
                      A                      A                      A
 Frequencies --   1198.0609              1207.2606              1217.0054
 Red. masses --      1.3019                 1.1912                 1.5070
 Frc consts  --      1.1010                 1.0229                 1.3151
 IR Inten    --      3.0443                33.1893                10.7789

                     55                     56                     57
                      A                      A                      A
 Frequencies --   1253.0078              1254.5757              1275.7115
 Red. masses --      3.0506                 1.1282                 1.7520
 Frc consts  --      2.8219                 1.0463                 1.6799
 IR Inten    --     53.7077                17.4787                19.9917

                     58                     59                     60
                      A                      A                      A
 Frequencies --   1286.0576              1292.6197              1332.4345
 Red. masses --      1.9624                 1.6077                 1.2239
 Frc consts  --      1.9124                 1.5827                 1.2802
 IR Inten    --     10.9823                 6.9951                12.6398

                     61                     62                     63
                      A                      A                      A
 Frequencies --   1347.0235              1372.5122              1377.3775
 Red. masses --      3.8486                 1.2761                 1.2432
 Frc consts  --      4.1144                 1.4164                 1.3896
 IR Inten    --      6.4851                16.6710                 0.3331

                     64                     65                     66
                      A                      A                      A
 Frequencies --   1392.2565              1398.6167              1403.0297
 Red. masses --      1.4571                 1.4314                 1.2842
 Frc consts  --      1.6641                 1.6497                 1.4895
 IR Inten    --     19.7948                29.8675                 6.4773

                     67                     68                     69
                      A                      A                      A
 Frequencies --   1410.5405              1426.3867              1440.3187
 Red. masses --      1.2654                 1.4791                 1.2895
 Frc consts  --      1.4834                 1.7731                 1.5761
 IR Inten    --      8.1453                15.3370                18.0657

                     70                     71                     72
                      A                      A                      A
 Frequencies --   1442.3400              1482.5332              1490.6860
 Red. masses --      1.2622                 1.5217                 1.1155
 Frc consts  --      1.5471                 1.9706                 1.4604
 IR Inten    --     62.7713                28.9097                14.2525

                     73                     74                     75
                      A                      A                      A
 Frequencies --   1495.8015              1502.6049              1514.1169
 Red. masses --      1.0962                 1.1398                 2.0527
 Frc consts  --      1.4451                 1.5163                 2.7726
 IR Inten    --      3.3995                10.7085                 1.5984

                     76                     77                     78
                      A                      A                      A
 Frequencies --   1517.3092              1518.0052              1520.8411
 Red. masses --      1.1654                 1.0893                 1.4341
 Frc consts  --      1.5808                 1.4789                 1.9544
 IR Inten    --      3.3401                 0.1400                21.3503

                     79                     80                     81
                      A                      A                      A
 Frequencies --   1529.2932              1535.9196              1549.5825
 Red. masses --      1.1112                 1.1935                 1.0527
 Frc consts  --      1.5312                 1.6589                 1.4893
 IR Inten    --      1.9362                 9.0784                 4.4231

                     82                     83                     84
                      A                      A                      A
 Frequencies --   1646.1914              1650.8209              3012.1302
 Red. masses --      6.1375                 6.2642                 1.0692
 Frc consts  --      9.7995                10.0581                 5.7156
 IR Inten    --      4.0011                 6.1133                38.3592

                     85                     86                     87
                      A                      A                      A
 Frequencies --   3016.6026              3022.7090              3024.0509
 Red. masses --      1.0709                 1.0715                 1.0625
 Frc consts  --      5.7414                 5.7682                 5.7249
 IR Inten    --     53.3879                69.8898                45.5110

                     88                     89                     90
                      A                      A                      A
 Frequencies --   3033.1378              3039.6506              3040.8485
 Red. masses --      1.0395                 1.0670                 1.0625
 Frc consts  --      5.6347                 5.8086                 5.7888
 IR Inten    --     38.3868                35.4078                82.3179

                     91                     92                     93
                      A                      A                      A
 Frequencies --   3087.7406              3097.0332              3104.0451
 Red. masses --      1.0960                 1.1008                 1.1024
 Frc consts  --      6.1566                 6.2207                 6.2582
 IR Inten    --     37.1060                65.3413                59.6525

                     94                     95                     96
                      A                      A                      A
 Frequencies --   3109.2740              3120.1387              3130.2543
 Red. masses --      1.0966                 1.0953                 1.0931
 Frc consts  --      6.2462                 6.2827                 6.3108
 IR Inten    --     22.9482                20.4457                22.8267

                     97                     98                     99
                      A                      A                      A
 Frequencies --   3140.3543              3161.0023              3172.8583
 Red. masses --      1.0932                 1.1073                 1.0866
 Frc consts  --      6.3521                 6.5185                 6.4448
 IR Inten    --     12.9366                14.2666                 2.1160

                    100                    101                    102
                      A                      A                      A
 Frequencies --   3177.7113              3205.6389              3731.6762
 Red. masses --      1.0901                 1.0955                 1.0662
 Frc consts  --      6.4857                 6.6328                 8.7479
 IR Inten    --     21.2980                24.0388                11.7965

 - Thermochemistry -
 -------------------
 Temperature   298.150 Kelvin.  Pressure   1.00000 Atm.
 Atom     1 has atomic number  6 and mass  12.00000

 Molecular mass:   237.13649 amu.
 Principal axes and moments of inertia in atomic units:
                           1         2         3
     Eigenvalues --  2403.808465200.509305799.17465
           X            0.99996  -0.00580   0.00652
           Y            0.00567   0.99978   0.02015
           Z           -0.00663  -0.02011   0.99978
 This molecule is an asymmetric top.
 Rotational symmetry number  1.
 Warning -- assumption of classical behavior for rotation
           may cause significant error
 Rotational temperatures (Kelvin)      0.03603     0.01665     0.01494
 Rotational constants (GHZ):           0.75078     0.34703     0.31121
 Zero-point vibrational energy     818659.9 (Joules/Mol)
                                  195.66442 (Kcal/Mol)
 Warning -- explicit consideration of  26 degrees of freedom as
           vibrations may cause significant error
 Vibrational temperatures:     41.91    74.40   103.95   134.21   150.65
          (Kelvin)            186.40   214.93   259.84   270.92   286.48
                              356.10   394.57   416.35   431.08   489.10
                              526.95   593.68   616.65   623.71   659.27
                              690.95   707.88   745.74   828.03   842.51
                              877.14   900.99  1045.33  1112.92  1132.35
                             1184.76  1198.09  1229.19  1250.15  1280.40
                             1328.72  1336.76  1394.64  1395.60  1444.62
                             1467.68  1485.72  1500.54  1509.97  1588.04
                             1594.57  1610.51  1640.54  1686.71  1708.56
                             1722.56  1723.74  1736.98  1751.00  1802.80
                             1805.05  1835.46  1850.35  1859.79  1917.08
                             1938.07  1974.74  1981.74  2003.15  2012.30
                             2018.65  2029.45  2052.25  2072.30  2075.21
                             2133.03  2144.76  2152.12  2161.91  2178.48
                             2183.07  2184.07  2188.15  2200.31  2209.85
                             2229.50  2368.50  2375.16  4333.78  4340.22
                             4349.00  4350.93  4364.01  4373.38  4375.10
                             4442.57  4455.94  4466.03  4473.55  4489.18
                             4503.74  4518.27  4547.98  4565.04  4572.02
                             4612.20  5369.05

 Zero-point correction=                           0.311811 (Hartree/Particle)
 Thermal correction to Energy=                    0.327963
 Thermal correction to Enthalpy=                  0.328907
 Thermal correction to Gibbs Free Energy=         0.268032
 Sum of electronic and zero-point Energies=           -786.948616
 Sum of electronic and thermal Energies=              -786.932465
 Sum of electronic and thermal Enthalpies=            -786.931521
 Sum of electronic and thermal Free Energies=         -786.992395

                     E (Thermal)             CV                S
                      KCal/Mol        Cal/Mol-Kelvin    Cal/Mol-Kelvin
 Total                  205.800             62.319            128.121
 Electronic               0.000              0.000              0.000
 Translational            0.889              2.981             42.292
 Rotational               0.889              2.981             32.650
 Vibrational            204.022             56.357             53.179
 Vibration     1          0.593              1.984              5.888
 Vibration     2          0.596              1.977              4.751
 Vibration     3          0.598              1.967              4.091
 Vibration     4          0.602              1.954              3.590
 Vibration     5          0.605              1.945              3.365
 Vibration     6          0.612              1.924              2.953
 Vibration     7          0.618              1.903              2.680
 Vibration     8          0.630              1.866              2.322
 Vibration     9          0.633              1.856              2.245
 Vibration    10          0.637              1.841              2.141
 Vibration    11          0.661              1.767              1.748
 Vibration    12          0.677              1.721              1.569
 Vibration    13          0.686              1.693              1.478
 Vibration    14          0.692              1.674              1.419
 Vibration    15          0.720              1.596              1.212
 Vibration    16          0.739              1.542              1.095
 Vibration    17          0.776              1.443              0.917
 Vibration    18          0.790              1.408              0.863
 Vibration    19          0.794              1.397              0.847
 Vibration    20          0.816              1.343              0.771
 Vibration    21          0.837              1.294              0.709
 Vibration    22          0.848              1.268              0.678
 Vibration    23          0.873              1.209              0.614
 Vibration    24          0.932              1.084              0.494
 Vibration    25          0.943              1.063              0.475
 Vibration    26          0.969              1.011              0.433

 Optimization completed.
    -- Stationary point found.
 Normal termination of Gaussian 16 at Sun Dec 13 12:51:04 2020.

 ----------------------------------------------------------------------
 # B3LYP/6-311++G(d,p) empiricaldispersion=gd3bj scf=xqc pop=npa geom=c
 heck
 ----------------------------------------------------------------------

 --------------------------------------
 CID_69554519_JID_7856_Energie_neutraal
 --------------------------------------
 Structure from the checkpoint file:  "JID_7856.chk"
 Charge =  0 Multiplicity = 1

 SCF Done:  E(RB3LYP) =  -787.486534356     A.U. after   14 cycles
 Normal termination of Gaussian 16 at Sun Dec 13 12:58:15 2020.

 ----------------------------------------------------------------------
 # B3LYP/6-311++G(d,p) empiricaldispersion=gd3bj scf=xqc pop=npa geom=c
 heck
 ----------------------------------------------------------------------

 ------------------------------------
 CID_69554519_JID_7856_Energie_kation
 ------------------------------------
 Structure from the checkpoint file:  "JID_7856.chk"
 Charge =  1 Multiplicity = 2

 SCF Done:  E(UB3LYP) =  -787.219072412     A.U. after   22 cycles
 Normal termination of Gaussian 16 at Sun Dec 13 13:13:55 2020.
 Gaussian 16:  ES64L-G16RevA.03 25-Dec-2016

 ----------------------------------------------------------------------
 # B3LYP/6-311++G(d,p) empiricaldispersion=gd3bj scf=xqc pop=npa geom=c
 heck
 ----------------------------------------------------------------------

 -----------------------------------
 CID_69554519_JID_7856_Energie_anion
 -----------------------------------
 Structure from the checkpoint file:  "JID_7856.chk"
 Charge = -1 Multiplicity = 2

                         Standard orientation:
 ---------------------------------------------------------------------
 Center     Atomic      Atomic             Coordinates (Angstroms)
 Number     Number       Type             X           Y           Z
 ---------------------------------------------------------------------
      1          6           0        1.810154   -2.219212   -1.078466
      2          8           0        0.955678   -1.521321   -0.160851
      3          6           0        1.013608   -0.144339   -0.258718
      4          6           0        0.043696    0.522783   -1.020322
      5          6           0        0.103365    1.919554   -1.088318
      6          6           0        1.068318    2.639235   -0.387027
      7          6           0        1.998166    1.956600    0.395613
      8          6           0        1.991207    0.559440    0.465249
      9          6           0        3.029844   -0.168437    1.282159
     10          8           0        4.141069   -0.620977    0.495839
     11          6           0       -1.080460   -0.233954   -1.718052
     12          7           0       -2.291712   -0.522091   -0.957769
     13          6           0       -3.073617    0.618320   -0.487983
     14          6           0       -2.719113    1.054794    0.938470
     15          8           0       -2.819265   -0.048274    1.832694
     16          6           0       -1.921275   -1.088810    1.452469
     17          6           0       -2.242747   -1.589329    0.041102
     18          1           0        1.656953   -3.283067   -0.885064
     19          1           0        2.856488   -1.951064   -0.907508
     20          1           0        1.530847   -1.993668   -2.116293
     21          1           0       -0.630127    2.446582   -1.694203
     22          1           0        1.090019    3.723672   -0.441936
     23          1           0        2.739685    2.510027    0.967844
     24          1           0        3.378535    0.484938    2.095098
     25          1           0        2.604849   -1.071149    1.724659
     26          1           0        4.461952    0.146211   -0.004591
     27          1           0       -1.384874    0.354363   -2.593457
     28          1           0       -0.704810   -1.190981   -2.090786
     29          1           0       -4.134776    0.327864   -0.494201
     30          1           0       -2.954591    1.452535   -1.189115
     31          1           0       -1.704668    1.479081    0.975618
     32          1           0       -3.426918    1.808696    1.299552
     33          1           0       -2.053788   -1.890796    2.185979
     34          1           0       -0.884199   -0.730584    1.512557
     35          1           0       -3.234657   -2.064724    0.071451
     36          1           0       -1.510680   -2.338594   -0.269741
 ---------------------------------------------------------------------

 SCF Done:  E(UB3LYP) =  -787.475492493     A.U. after   33 cycles
 SCF Done:  E(UB3LYP) =  -787.475492493     a.u. after    1 cycles

 The electronic state is 2-A.
 Alpha  occ. eigenvalues --  -19.04090 -19.02818 -19.02114 -14.20698 -10.12423
 Alpha  occ. eigenvalues --  -10.11832 -10.11593 -10.11572 -10.11489 -10.09947
 Alpha  occ. eigenvalues --  -10.09920 -10.09661 -10.07357 -10.07225 -10.06866
 Alpha  occ. eigenvalues --  -10.06808 -10.06619  -0.95674  -0.94308  -0.91941
 Alpha  occ. eigenvalues --   -0.82515  -0.75333  -0.67716  -0.67465  -0.65579
 Alpha  occ. eigenvalues --   -0.62222  -0.59280  -0.56966  -0.55906  -0.55011
 Alpha  occ. eigenvalues --   -0.49172  -0.48909  -0.46432  -0.42628  -0.41089
 Alpha  occ. eigenvalues --   -0.40147  -0.38476  -0.38204  -0.37547  -0.36970
 Alpha  occ. eigenvalues --   -0.36474  -0.35812  -0.35429  -0.33832  -0.33517
 Alpha  occ. eigenvalues --   -0.32675  -0.31886  -0.30127  -0.29271  -0.28401
 Alpha  occ. eigenvalues --   -0.27585  -0.26841  -0.26665  -0.26189  -0.24933
 Alpha  occ. eigenvalues --   -0.24280  -0.22897  -0.22032  -0.18465  -0.17754
 Alpha  occ. eigenvalues --   -0.17735  -0.15021  -0.14234  -0.10494   0.04422
 Alpha virt. eigenvalues --    0.06603   0.06946   0.07550   0.07856   0.08262
 Alpha virt. eigenvalues --    0.08834   0.09009   0.09268   0.09797   0.10167
 Alpha virt. eigenvalues --    0.11023   0.11288   0.11629   0.12472   0.12925

  Beta  occ. eigenvalues --  -19.04086 -19.02816 -19.02059 -14.20693 -10.12418
  Beta  occ. eigenvalues --  -10.11817 -10.11577 -10.11569 -10.11486 -10.09933
  Beta  occ. eigenvalues --  -10.09912 -10.09655 -10.07312 -10.07191 -10.06842
  Beta  occ. eigenvalues --  -10.06755 -10.06520  -0.95664  -0.94303  -0.91807
  Beta  occ. eigenvalues --   -0.82499  -0.75219  -0.67617  -0.67432  -0.65486
  Beta  occ. eigenvalues --   -0.62177  -0.59210  -0.56862  -0.55891  -0.54961
  Beta  occ. eigenvalues --   -0.49112  -0.48800  -0.46396  -0.42567  -0.41027
  Beta  occ. eigenvalues --   -0.40107  -0.38419  -0.38191  -0.37525  -0.36935
  Beta  occ. eigenvalues --   -0.36405  -0.35775  -0.35404  -0.33736  -0.33486
  Beta  occ. eigenvalues --   -0.32609  -0.31828  -0.30110  -0.29220  -0.28336
  Beta  occ. eigenvalues --   -0.27538  -0.26826  -0.26615  -0.26104  -0.24846
  Beta  occ. eigenvalues --   -0.24194  -0.22825  -0.22003  -0.18416  -0.17728
  Beta  occ. eigenvalues --   -0.17689  -0.14601  -0.14035  -0.10438
  Beta virt. eigenvalues --    0.06570   0.07375   0.07434   0.08011   0.08215
  Beta virt. eigenvalues --    0.08668   0.09088   0.09271   0.09714   0.10188
  Beta virt. eigenvalues --    0.10258   0.11191   0.11601   0.11882   0.12666

 Mulliken charges and spin densities:
               1          2
     1  C    0.216347  -0.550097
     2  O   -0.147236  -0.008908
     3  C   -0.218013   0.344848
     4  C   -0.491958   1.165090
     5  C   -0.358371   0.057612
     6  C    0.875508  -1.308793
     7  C   -0.245227  -0.001588
     8  C   -0.094347   0.415132
     9  C    0.938172  -1.542034
    10  O   -0.167285  -0.046118
    11  C    0.660085  -1.565167
    12  N    0.145188   0.037653
    13  C    0.119148  -0.192157
    14  C   -0.445823  -0.027666
    15  O   -0.131927   0.005354
    16  C   -0.168630  -0.123234
    17  C   -0.318042   0.008496
    18  H    0.016069   0.105805
    19  H    0.156864   0.038611
    20  H   -0.085116   0.226019
    21  H   -0.403600   0.527172
    22  H   -0.636387   0.813175
    23  H   -0.708105   0.873301
    24  H   -0.155154   0.310414
    25  H    0.067407   0.142922
    26  H   -0.064377   0.313744
    27  H   -0.449769   0.647319
    28  H    0.075617   0.070112
    29  H    0.094510   0.053155
    30  H   -0.031054   0.169547
    31  H    0.316427  -0.140661
    32  H    0.054777   0.107479
    33  H    0.124819   0.038288
    34  H    0.308879  -0.105869
    35  H    0.081210   0.074561
    36  H    0.069393   0.066481
 Sum of Mulliken charges =  -1.00000   1.00000

 Dipole moment (field-independent basis, Debye):
    X=             -4.6162    Y=             -4.8531    Z=              1.3207  Tot=              6.8269
 Quadrupole moment (field-independent basis, Debye-Ang):
   XX=           -172.1929   YY=           -147.4802   ZZ=           -143.1955
   XY=             -6.1648   XZ=             -6.6187   YZ=              2.5651

 Summary of Natural Population Analysis:

                                       Natural Population
                Natural  -----------------------------------------------
    Atom  No    Charge         Core      Valence    Rydberg      Total
 -----------------------------------------------------------------------
      C    1   -0.10010      0.99958     2.09312    0.00741     3.10010
      O    2   -0.30169      0.99986     3.29232    0.00951     4.30169
      C    3    0.15732      0.99927     1.82786    0.01555     2.84268
      C    4   -0.04558      0.99944     2.03450    0.01165     3.04558
      C    5   -0.07931      0.99952     2.06867    0.01113     3.07931
      C    6   -0.10558      0.99955     2.09536    0.01066     3.10558
      C    7   -0.08237      0.99952     2.07207    0.01079     3.08237
      C    8   -0.04827      0.99944     2.03809    0.01073     3.04827
      C    9   -0.01827      0.99955     2.00510    0.01362     3.01827
      O   10   -0.36917      0.99990     3.36268    0.00658     4.36917
      C   11   -0.08712      0.99957     2.07285    0.01470     3.08712
      N   12   -0.27814      0.99973     2.76392    0.01448     3.77814
      C   13   -0.09855      0.99961     2.08761    0.01133     3.09855
      C   14   -0.02360      0.99958     2.01166    0.01236     3.02360
      O   15   -0.30279      0.99989     3.29437    0.00852     4.30279
      C   16   -0.02075      0.99958     2.00993    0.01124     3.02075
      C   17   -0.09828      0.99961     2.08766    0.01101     3.09828
      H   18    0.08541      0.00000     0.41357    0.00102     0.41459
      H   19    0.09988      0.00000     0.39853    0.00159     0.40012
      H   20    0.07922      0.00000     0.41948    0.00130     0.42078
      H   21    0.09964      0.00000     0.39843    0.00193     0.40036
      H   22    0.10207      0.00000     0.39635    0.00158     0.39793
      H   23    0.10119      0.00000     0.39664    0.00217     0.39881
      H   24    0.08215      0.00000     0.41631    0.00154     0.41785
      H   25    0.09266      0.00000     0.40581    0.00153     0.40734
      H   26    0.23067      0.00000     0.26393    0.00539     0.26933
      H   27    0.09915      0.00000     0.39927    0.00158     0.40085
      H   28    0.09974      0.00000     0.39874    0.00152     0.40026
      H   29    0.09037      0.00000     0.40841    0.00122     0.40963
      H   30    0.10027      0.00000     0.39858    0.00115     0.39973
      H   31    0.08715      0.00000     0.41124    0.00161     0.41285
      H   32    0.08685      0.00000     0.41201    0.00114     0.41315
      H   33    0.08645      0.00000     0.41247    0.00108     0.41355
      H   34    0.08637      0.00000     0.41195    0.00168     0.41363
      H   35    0.08793      0.00000     0.41084    0.00123     0.41207
      H   36    0.10507      0.00000     0.39371    0.00122     0.39493
 =======================================================================
   * Total *    0.00000     16.99320    46.78405    0.22274    64.00000

 Normal termination of Gaussian 16 at Sun Dec 13 13:37:56 2020.
