 Gaussian 16, Revision A.03,

 -----------------------------------------------------------
 # opt freq B3LYP/6-31G(d) empiricaldispersion=gd3bj scf=xqc
 -----------------------------------------------------------

 -------------------------------
 CID_144552856_JID_7363_neutraal
 -------------------------------
 Symbolic Z-matrix:
 Charge =  0 Multiplicity = 1

 SCF Done:  E(RB3LYP) =  -748.921683299     A.U. after   15 cycles
 SCF Done:  E(RB3LYP) =  -748.927685852     A.U. after   14 cycles
 SCF Done:  E(RB3LYP) =  -748.927451022     A.U. after   14 cycles
 SCF Done:  E(RB3LYP) =  -748.929595774     A.U. after   14 cycles
 SCF Done:  E(RB3LYP) =  -748.929676825     A.U. after   13 cycles
 SCF Done:  E(RB3LYP) =  -748.930640494     A.U. after   13 cycles
 SCF Done:  E(RB3LYP) =  -748.931509962     A.U. after   12 cycles
 SCF Done:  E(RB3LYP) =  -748.931694069     A.U. after   12 cycles
 SCF Done:  E(RB3LYP) =  -748.931744719     A.U. after   11 cycles
 SCF Done:  E(RB3LYP) =  -748.931786066     A.U. after   11 cycles
 SCF Done:  E(RB3LYP) =  -748.931839576     A.U. after   10 cycles
 SCF Done:  E(RB3LYP) =  -748.931842712     A.U. after    9 cycles
 SCF Done:  E(RB3LYP) =  -748.931843733     A.U. after    8 cycles
 SCF Done:  E(RB3LYP) =  -748.931844037     A.U. after    7 cycles
 SCF Done:  E(RB3LYP) =  -748.931844109     A.U. after    7 cycles
 Optimization completed.
    -- Stationary point found.
 Normal termination of Gaussian 16 at Mon Dec 14 13:21:15 2020.

 --------------------------------------------------------------------
 #N Geom=AllCheck Guess=TCheck SCRF=Check GenChk RB3LYP/6-31G(d) Freq
 --------------------------------------------------------------------

 Structure from the checkpoint file:  "JID_7363.chk"
 -------------------------------
 CID_144552856_JID_7363_neutraal
 -------------------------------
 Charge =  0 Multiplicity = 1

 SCF Done:  E(RB3LYP) =  -748.931844109     A.U. after    1 cycles

  Exact polarizability: 259.513   5.915 161.051   5.249   6.359  97.332
 Approx polarizability: 356.126  11.777 272.278  11.972  13.047 149.750

                      1                      2                      3
                      A                      A                      A
 Frequencies --     26.0885                36.3241                44.2726
 Red. masses --      4.8157                 4.5880                 5.0752
 Frc consts  --      0.0019                 0.0036                 0.0059
 IR Inten    --      0.5411                 0.7964                 0.4359

                      4                      5                      6
                      A                      A                      A
 Frequencies --     78.7631                83.2868               102.0598
 Red. masses --      3.9452                 4.4884                 2.5711
 Frc consts  --      0.0144                 0.0183                 0.0158
 IR Inten    --      0.0926                 2.1942                 2.2106

                      7                      8                      9
                      A                      A                      A
 Frequencies --    145.1657               149.3206               166.6084
 Red. masses --      2.9124                 3.3861                 1.5154
 Frc consts  --      0.0362                 0.0445                 0.0248
 IR Inten    --      4.2347                 3.9279                 0.2038

                     10                     11                     12
                      A                      A                      A
 Frequencies --    187.7542               200.8641               212.0469
 Red. masses --      2.2032                 5.7806                 2.9816
 Frc consts  --      0.0458                 0.1374                 0.0790
 IR Inten    --      2.3831                 9.0153                 4.0784

                     13                     14                     15
                      A                      A                      A
 Frequencies --    244.2737               265.1266               276.0844
 Red. masses --      1.3686                 2.9328                 2.3700
 Frc consts  --      0.0481                 0.1215                 0.1064
 IR Inten    --      1.9068                 0.7018                 2.9481

                     16                     17                     18
                      A                      A                      A
 Frequencies --    308.2272               326.7578               334.2147
 Red. masses --      3.5367                 2.8117                 2.9525
 Frc consts  --      0.1980                 0.1769                 0.1943
 IR Inten    --      6.0049                 7.6798                 3.4412

                     19                     20                     21
                      A                      A                      A
 Frequencies --    421.0529               431.4225               439.8378
 Red. masses --      3.4390                 3.1944                 4.4134
 Frc consts  --      0.3592                 0.3503                 0.5030
 IR Inten    --     32.2230                 0.3540                 4.3980

                     22                     23                     24
                      A                      A                      A
 Frequencies --    467.1832               510.1489               527.5169
 Red. masses --      3.9499                 2.0427                 2.5925
 Frc consts  --      0.5079                 0.3132                 0.4250
 IR Inten    --      3.4449                87.8865                27.8225

                     25                     26                     27
                      A                      A                      A
 Frequencies --    579.7562               627.3032               654.9816
 Red. masses --      2.0219                 4.1050                 5.3604
 Frc consts  --      0.4004                 0.9517                 1.3549
 IR Inten    --     91.3007                 4.6388                 4.0184

                     28                     29                     30
                      A                      A                      A
 Frequencies --    687.0703               728.3573               749.3084
 Red. masses --      3.7409                 3.4844                 3.1037
 Frc consts  --      1.0405                 1.0891                 1.0267
 IR Inten    --     11.2573                 0.8673                 4.9757

                     31                     32                     33
                      A                      A                      A
 Frequencies --    790.8812               813.6303               822.5421
 Red. masses --      1.6928                 1.8429                 1.7106
 Frc consts  --      0.6238                 0.7188                 0.6819
 IR Inten    --     75.4523                 5.0457                14.9643

                     34                     35                     36
                      A                      A                      A
 Frequencies --    837.6182               845.9712               877.4588
 Red. masses --      1.5725                 2.8070                 1.8408
 Frc consts  --      0.6500                 1.1836                 0.8350
 IR Inten    --     30.3077                15.1680                38.5526

                     37                     38                     39
                      A                      A                      A
 Frequencies --    892.3237               941.8525               947.0673
 Red. masses --      3.7251                 2.8341                 1.3010
 Frc consts  --      1.7476                 1.4813                 0.6875
 IR Inten    --     14.3555                15.4361                 0.1178

                     40                     41                     42
                      A                      A                      A
 Frequencies --    960.7071               977.8956               980.1526
 Red. masses --      1.3330                 1.2959                 1.8522
 Frc consts  --      0.7249                 0.7301                 1.0484
 IR Inten    --      2.9825                 0.5486                19.7471

                     43                     44                     45
                      A                      A                      A
 Frequencies --   1027.5586              1030.4916              1049.9518
 Red. masses --      2.6524                 1.7501                 1.8632
 Frc consts  --      1.6500                 1.0950                 1.2102
 IR Inten    --      1.0922                 0.0378                13.7599

                     46                     47                     48
                      A                      A                      A
 Frequencies --   1077.4970              1095.4298              1129.1713
 Red. masses --      1.5238                 3.1289                 2.8743
 Frc consts  --      1.0423                 2.2121                 2.1592
 IR Inten    --      2.1651                 5.0466                 4.8330

                     49                     50                     51
                      A                      A                      A
 Frequencies --   1156.9779              1159.0284              1183.3431
 Red. masses --      2.0526                 1.6523                 1.2700
 Frc consts  --      1.6188                 1.3077                 1.0478
 IR Inten    --     67.6641                20.5321                 5.0443

                     52                     53                     54
                      A                      A                      A
 Frequencies --   1200.1697              1213.4648              1234.3271
 Red. masses --      1.2410                 2.0651                 1.4136
 Frc consts  --      1.0532                 1.7916                 1.2690
 IR Inten    --    171.4532                10.7563                11.5654

                     55                     56                     57
                      A                      A                      A
 Frequencies --   1253.9194              1266.4621              1302.4623
 Red. masses --      1.3269                 1.7345                 1.8974
 Frc consts  --      1.2292                 1.6391                 1.8964
 IR Inten    --    103.4771                12.1968                88.6726

                     58                     59                     60
                      A                      A                      A
 Frequencies --   1345.2847              1355.5393              1379.0028
 Red. masses --      1.5722                 1.5906                 1.5182
 Frc consts  --      1.6764                 1.7220                 1.7010
 IR Inten    --     60.7576               108.7715                11.0493

                     61                     62                     63
                      A                      A                      A
 Frequencies --   1390.7392              1403.6221              1441.4271
 Red. masses --      3.4433                 1.4465                 1.2509
 Frc consts  --      3.9239                 1.6790                 1.5313
 IR Inten    --     94.8860                 3.3558                 3.4112

                     64                     65                     66
                      A                      A                      A
 Frequencies --   1446.2435              1464.9070              1472.9638
 Red. masses --      1.4009                 1.4155                 2.3873
 Frc consts  --      1.7263                 1.7896                 3.0517
 IR Inten    --     13.5423                 9.1967                11.2092

                     67                     68                     69
                      A                      A                      A
 Frequencies --   1509.9961              1512.0166              1515.6020
 Red. masses --      1.2193                 1.0547                 1.0519
 Frc consts  --      1.6380                 1.4207                 1.4237
 IR Inten    --      2.6890                 3.1184                 6.7408

                     70                     71                     72
                      A                      A                      A
 Frequencies --   1521.7107              1526.3215              1532.9921
 Red. masses --      1.0900                 1.0532                 1.4159
 Frc consts  --      1.4871                 1.4456                 1.9605
 IR Inten    --     23.3379                15.6063               247.9727

                     73                     74                     75
                      A                      A                      A
 Frequencies --   1535.9913              1576.8932              1626.8108
 Red. masses --      1.2622                 2.8628                 4.5539
 Frc consts  --      1.7545                 4.1941                 7.1008
 IR Inten    --      1.4432               180.5647                 9.3028

                     76                     77                     78
                      A                      A                      A
 Frequencies --   1670.6994              1711.1573              1738.3092
 Red. masses --      5.6264                 6.4169                 6.9179
 Frc consts  --      9.2529                11.0702                12.3163
 IR Inten    --    555.8638               123.1825                 0.7508

                     79                     80                     81
                      A                      A                      A
 Frequencies --   1786.3964              2889.2714              2950.1744
 Red. masses --      9.3654                 1.0828                 1.0729
 Frc consts  --     17.6089                 5.3255                 5.5016
 IR Inten    --    304.2099               178.3208                52.6777

                     82                     83                     84
                      A                      A                      A
 Frequencies --   3035.6925              3063.9574              3077.8148
 Red. masses --      1.0411                 1.0328                 1.0989
 Frc consts  --      5.6525                 5.7124                 6.1331
 IR Inten    --     33.9010                27.5051                25.5080

                     85                     86                     87
                      A                      A                      A
 Frequencies --   3080.3254              3136.4967              3140.3165
 Red. masses --      1.0881                 1.0850                 1.0905
 Frc consts  --      6.0829                 6.2885                 6.3364
 IR Inten    --     18.1382                 8.6799                 4.1145

                     88                     89                     90
                      A                      A                      A
 Frequencies --   3143.3236              3154.8194              3164.2905
 Red. masses --      1.1013                 1.0945                 1.1072
 Frc consts  --      6.4110                 6.4182                 6.5318
 IR Inten    --     23.4380                28.0470                19.9631

                     91                     92                     93
                      A                      A                      A
 Frequencies --   3175.6035              3177.5679              3193.7128
 Red. masses --      1.0888                 1.0891                 1.0928
 Frc consts  --      6.4692                 6.4790                 6.5671
 IR Inten    --     29.9363                 0.0334                23.0714

                     94                     95                     96
                      A                      A                      A
 Frequencies --   3217.6070              3222.8663              3565.2696
 Red. masses --      1.0924                 1.0913                 1.0755
 Frc consts  --      6.6631                 6.6786                 8.0543
 IR Inten    --      5.0636                13.8021                90.1267

 - Thermochemistry -
 -------------------
 Temperature   298.150 Kelvin.  Pressure   1.00000 Atm.
 Atom     1 has atomic number  6 and mass  12.00000

 Molecular mass:   231.12593 amu.
 Principal axes and moments of inertia in atomic units:
                           1         2         3
     Eigenvalues --  1491.87294********************
           X            0.99999   0.00089   0.00386
           Y           -0.00090   1.00000   0.00118
           Z           -0.00386  -0.00118   0.99999
 This molecule is an asymmetric top.
 Rotational symmetry number  1.
 Warning -- assumption of classical behavior for rotation
           may cause significant error
 Rotational temperatures (Kelvin)      0.05806     0.00827     0.00762
 Rotational constants (GHZ):           1.20972     0.17240     0.15880
 Zero-point vibrational energy     747266.9 (Joules/Mol)
                                  178.60108 (Kcal/Mol)
 Warning -- explicit consideration of  25 degrees of freedom as
           vibrations may cause significant error
 Vibrational temperatures:     37.54    52.26    63.70   113.32   119.83
          (Kelvin)            146.84   208.86   214.84   239.71   270.14
                              289.00   305.09   351.46   381.46   397.22
                              443.47   470.13   480.86   605.80   620.72
                              632.83   672.17   733.99   758.98   834.14
                              902.55   942.37   988.54  1047.94  1078.09
                             1137.90  1170.63  1183.45  1205.15  1217.16
                             1262.47  1283.85  1355.12  1362.62  1382.24
                             1406.97  1410.22  1478.43  1482.65  1510.65
                             1550.28  1576.08  1624.63  1664.63  1667.58
                             1702.57  1726.78  1745.91  1775.92  1804.11
                             1822.16  1873.95  1935.56  1950.32  1984.08
                             2000.96  2019.50  2073.89  2080.82  2107.67
                             2119.27  2172.55  2175.45  2180.61  2189.40
                             2196.04  2205.63  2209.95  2268.80  2340.62
                             2403.76  2461.97  2501.04  2570.23  4157.02
                             4244.64  4367.68  4408.35  4428.29  4431.90
                             4512.72  4518.21  4522.54  4539.08  4552.71
                             4568.99  4571.81  4595.04  4629.42  4636.99
                             5129.63

 Zero-point correction=                           0.284619 (Hartree/Particle)
 Thermal correction to Energy=                    0.301893
 Thermal correction to Enthalpy=                  0.302837
 Thermal correction to Gibbs Free Energy=         0.238153
 Sum of electronic and zero-point Energies=           -748.647225
 Sum of electronic and thermal Energies=              -748.629951
 Sum of electronic and thermal Enthalpies=            -748.629007
 Sum of electronic and thermal Free Energies=         -748.693691

                     E (Thermal)             CV                S
                      KCal/Mol        Cal/Mol-Kelvin    Cal/Mol-Kelvin
 Total                  189.441             63.883            136.139
 Electronic               0.000              0.000              0.000
 Translational            0.889              2.981             42.215
 Rotational               0.889              2.981             33.539
 Vibrational            187.663             57.921             60.385
 Vibration     1          0.593              1.985              6.107
 Vibration     2          0.594              1.982              5.450
 Vibration     3          0.595              1.980              5.058
 Vibration     4          0.600              1.963              3.921
 Vibration     5          0.600              1.961              3.812
 Vibration     6          0.604              1.948              3.415
 Vibration     7          0.617              1.908              2.735
 Vibration     8          0.618              1.903              2.681
 Vibration     9          0.624              1.884              2.473
 Vibration    10          0.632              1.857              2.250
 Vibration    11          0.638              1.839              2.125
 Vibration    12          0.643              1.823              2.026
 Vibration    13          0.660              1.772              1.772
 Vibration    14          0.671              1.737              1.628
 Vibration    15          0.678              1.718              1.558
 Vibration    16          0.698              1.658              1.372
 Vibration    17          0.710              1.622              1.276
 Vibration    18          0.716              1.607              1.240
 Vibration    19          0.784              1.424              0.888
 Vibration    20          0.792              1.402              0.854
 Vibration    21          0.800              1.383              0.827
 Vibration    22          0.824              1.323              0.745
 Vibration    23          0.865              1.228              0.633
 Vibration    24          0.882              1.189              0.593
 Vibration    25          0.936              1.075              0.486

                           ! Non-Optimized Parameters !
 Normal termination of Gaussian 16 at Mon Dec 14 13:32:00 2020.

 ----------------------------------------------------------------------
 # B3LYP/6-311++G(d,p) empiricaldispersion=gd3bj scf=xqc pop=npa geom=c
 heck
 ----------------------------------------------------------------------

 ---------------------------------------
 CID_144552856_JID_7363_Energie_neutraal
 ---------------------------------------
 Structure from the checkpoint file:  "JID_7363.chk"
 Charge =  0 Multiplicity = 1

 SCF Done:  E(RB3LYP) =  -749.143011103     A.U. after   16 cycles
 Normal termination of Gaussian 16 at Mon Dec 14 13:38:05 2020.

 ----------------------------------------------------------------------
 # B3LYP/6-311++G(d,p) empiricaldispersion=gd3bj scf=xqc pop=npa geom=c
 heck
 ----------------------------------------------------------------------

 -------------------------------------
 CID_144552856_JID_7363_Energie_kation
 -------------------------------------
 Structure from the checkpoint file:  "JID_7363.chk"
 Charge =  1 Multiplicity = 2

 SCF Done:  E(UB3LYP) =  -748.862683284     A.U. after   26 cycles
 Normal termination of Gaussian 16 at Mon Dec 14 13:52:09 2020.
 Gaussian 16:  ES64L-G16RevA.03 25-Dec-2016

 ----------------------------------------------------------------------
 # B3LYP/6-311++G(d,p) empiricaldispersion=gd3bj scf=xqc pop=npa geom=c
 heck
 ----------------------------------------------------------------------

 ------------------------------------
 CID_144552856_JID_7363_Energie_anion
 ------------------------------------
 Structure from the checkpoint file:  "JID_7363.chk"
 Charge = -1 Multiplicity = 2

                         Standard orientation:
 ---------------------------------------------------------------------
 Center     Atomic      Atomic             Coordinates (Angstroms)
 Number     Number       Type             X           Y           Z
 ---------------------------------------------------------------------
      1          6           0       -4.832518   -1.412656   -0.367280
      2          6           0       -3.342953   -1.582916   -0.395060
      3          6           0       -2.444060   -0.890573    0.323529
      4          6           0       -0.977242   -1.266890    0.289704
      5          7           0       -0.158155   -0.090562    0.028017
      6          6           0        1.218537   -0.130816    0.020943
      7          6           0        1.944546    1.084997    0.056345
      8          6           0        3.323153    1.084001    0.016248
      9          6           0        4.037970   -0.126467   -0.061986
     10          6           0        3.321618   -1.328890   -0.095769
     11          6           0        1.933660   -1.343985   -0.052056
     12          6           0        5.503192   -0.130292   -0.104101
     13          8           0        6.210197    0.863742   -0.078233
     14          6           0       -2.787884    0.199370    1.260191
     15          6           0       -3.399307    1.378159    1.036660
     16          8           0       -3.801704    1.973495   -0.108116
     17          6           0       -3.247684    1.566051   -1.358578
     18          1           0       -5.143128   -0.674311    0.375489
     19          1           0       -5.321318   -2.368044   -0.135724
     20          1           0       -5.219985   -1.096446   -1.345296
     21          1           0       -2.968305   -2.372604   -1.047082
     22          1           0       -0.689024   -1.732312    1.250536
     23          1           0       -0.804208   -2.013719   -0.492333
     24          1           0       -0.563387    0.766888    0.385141
     25          1           0        1.396401    2.022891    0.110994
     26          1           0        3.884709    2.012591    0.044827
     27          1           0        3.865016   -2.269972   -0.151727
     28          1           0        1.403599   -2.289142   -0.073505
     29          1           0        5.958233   -1.145688   -0.164367
     30          1           0       -2.496948    0.037529    2.298885
     31          1           0       -3.640382    2.024014    1.877795
     32          1           0       -3.461111    2.382284   -2.051439
     33          1           0       -3.701414    0.641627   -1.722535
     34          1           0       -2.165766    1.415886   -1.277720
 ---------------------------------------------------------------------

 SCF Done:  E(UB3LYP) =  -749.146026926     A.U. after   33 cycles
 SCF Done:  E(UB3LYP) =  -749.146026926     a.u. after    1 cycles

 The electronic state is 2-A.
 Alpha  occ. eigenvalues --  -19.07715 -18.95619 -14.22089 -10.15020 -10.13590
 Alpha  occ. eigenvalues --  -10.11504 -10.09930 -10.09655 -10.09451 -10.08961
 Alpha  occ. eigenvalues --  -10.08744 -10.08274 -10.05863 -10.05763 -10.05601
 Alpha  occ. eigenvalues --  -10.05195 -10.04088  -0.98946  -0.88959  -0.83950
 Alpha  occ. eigenvalues --   -0.74452  -0.72481  -0.68334  -0.65460  -0.63536
 Alpha  occ. eigenvalues --   -0.62795  -0.61047  -0.56020  -0.51696  -0.50815
 Alpha  occ. eigenvalues --   -0.49598  -0.45759  -0.44440  -0.42807  -0.41974
 Alpha  occ. eigenvalues --   -0.39573  -0.39210  -0.38428  -0.36512  -0.35634
 Alpha  occ. eigenvalues --   -0.34167  -0.33916  -0.33061  -0.32823  -0.31556
 Alpha  occ. eigenvalues --   -0.31107  -0.30497  -0.28876  -0.28347  -0.27549
 Alpha  occ. eigenvalues --   -0.27477  -0.26157  -0.26085  -0.25313  -0.24497
 Alpha  occ. eigenvalues --   -0.22605  -0.19058  -0.17753  -0.14615  -0.14428
 Alpha  occ. eigenvalues --   -0.11410  -0.09806   0.03654
 Alpha virt. eigenvalues --    0.05150   0.06203   0.06573   0.07283   0.07543
 Alpha virt. eigenvalues --    0.08834   0.09078   0.09270   0.09542   0.09751
 Alpha virt. eigenvalues --    0.10573   0.10939   0.11761   0.11818   0.12092

  Beta  occ. eigenvalues --  -19.07714 -18.95256 -14.22063 -10.15006 -10.13564
  Beta  occ. eigenvalues --  -10.11498 -10.09928 -10.09418 -10.09216 -10.08949
  Beta  occ. eigenvalues --  -10.08735 -10.08247 -10.05837 -10.05747 -10.05654
  Beta  occ. eigenvalues --  -10.05054 -10.04071  -0.98937  -0.88288  -0.83804
  Beta  occ. eigenvalues --   -0.74359  -0.72356  -0.68301  -0.65324  -0.63411
  Beta  occ. eigenvalues --   -0.62664  -0.60916  -0.55909  -0.51530  -0.50504
  Beta  occ. eigenvalues --   -0.49437  -0.45718  -0.44168  -0.42743  -0.41868
  Beta  occ. eigenvalues --   -0.39507  -0.39167  -0.38393  -0.36419  -0.35488
  Beta  occ. eigenvalues --   -0.34103  -0.33861  -0.32976  -0.32743  -0.31447
  Beta  occ. eigenvalues --   -0.31043  -0.30386  -0.28821  -0.28074  -0.27480
  Beta  occ. eigenvalues --   -0.26827  -0.26030  -0.25774  -0.25262  -0.23214
  Beta  occ. eigenvalues --   -0.22533  -0.18504  -0.17465  -0.14450  -0.14132
  Beta  occ. eigenvalues --   -0.11094  -0.09147
  Beta virt. eigenvalues --    0.05546   0.06438   0.06831   0.07468   0.07599
  Beta virt. eigenvalues --    0.08356   0.09057   0.09149   0.09414   0.09623
  Beta virt. eigenvalues --    0.09963   0.10585   0.10984   0.11748   0.11944

 Mulliken charges and spin densities:
               1          2
     1  C    0.598918  -1.346571
     2  C   -0.560337   0.417222
     3  C    0.741394   0.199378
     4  C    0.275332  -0.894423
     5  N    0.145670   0.011809
     6  C    0.198148   0.065658
     7  C   -0.285757  -0.145936
     8  C   -0.531528   0.232438
     9  C    0.790613  -0.090639
    10  C   -0.696555   0.105736
    11  C   -0.047500  -0.043392
    12  C   -0.255246   0.147579
    13  O   -0.367578   0.121680
    14  C   -1.394951   0.798453
    15  C    0.074666  -0.460071
    16  O   -0.130912   0.011572
    17  C    0.017303  -0.359893
    18  H    0.012912   0.155496
    19  H   -0.125335   0.268277
    20  H   -0.161621   0.313581
    21  H   -0.230272   0.380625
    22  H    0.021578   0.136111
    23  H    0.223644  -0.013700
    24  H    0.406862  -0.106307
    25  H    0.038189   0.052053
    26  H    0.163294  -0.003530
    27  H    0.131327   0.003705
    28  H    0.027610   0.050379
    29  H    0.047907  -0.014203
    30  H   -0.111593   0.324397
    31  H   -0.107842   0.281505
    32  H   -0.094425   0.271131
    33  H    0.136243   0.009217
    34  H    0.049844   0.120662
 Sum of Mulliken charges =  -1.00000   1.00000

 Dipole moment (field-independent basis, Debye):
    X=             -6.6189    Y=             -1.1665    Z=              0.2307  Tot=              6.7249
 Quadrupole moment (field-independent basis, Debye-Ang):
   XX=           -239.0801   YY=           -124.5890   ZZ=           -123.5544
   XY=            -15.3353   XZ=             -0.4568   YZ=              1.5723

 Summary of Natural Population Analysis:

                                       Natural Population
                Natural  -----------------------------------------------
    Atom  No    Charge         Core      Valence    Rydberg      Total
 -----------------------------------------------------------------------
      C    1   -0.30394      0.99965     2.29911    0.00519     3.30394
      C    2   -0.08295      0.99946     2.07358    0.00990     3.08295
      C    3   -0.03341      0.99946     2.02113    0.01282     3.03341
      C    4   -0.09120      0.99958     2.08047    0.01115     3.09120
      N    5   -0.30789      0.99967     2.79955    0.00867     3.80789
      C    6    0.13701      0.99951     1.85388    0.00960     2.86299
      C    7   -0.14373      0.99954     2.13611    0.00807     3.14373
      C    8   -0.04246      0.99954     2.03420    0.00872     3.04246
      C    9   -0.09866      0.99949     2.08987    0.00930     3.09866
      C   10   -0.05016      0.99955     2.04201    0.00860     3.05016
      C   11   -0.15814      0.99954     2.15106    0.00754     3.15814
      C   12    0.23409      0.99967     1.74569    0.02055     2.76591
      O   13   -0.26644      0.99988     3.25892    0.00763     4.26644
      C   14   -0.18044      0.99951     2.16870    0.01223     3.18044
      C   15    0.09683      0.99943     1.88907    0.01468     2.90317
      O   16   -0.27554      0.99986     3.26518    0.01049     4.27554
      C   17   -0.10018      0.99959     2.09248    0.00811     3.10018
      H   18    0.10698      0.00000     0.39180    0.00122     0.39302
      H   19    0.10397      0.00000     0.39487    0.00115     0.39603
      H   20    0.10253      0.00000     0.39588    0.00159     0.39747
      H   21    0.09326      0.00000     0.40569    0.00106     0.40674
      H   22    0.09125      0.00000     0.40716    0.00159     0.40875
      H   23    0.09542      0.00000     0.40204    0.00254     0.40458
      H   24    0.18684      0.00000     0.31024    0.00293     0.31316
      H   25    0.09345      0.00000     0.40512    0.00142     0.40655
      H   26    0.10466      0.00000     0.39407    0.00127     0.39534
      H   27    0.09193      0.00000     0.40647    0.00160     0.40807
      H   28    0.09692      0.00000     0.40175    0.00133     0.40308
      H   29    0.03136      0.00000     0.46603    0.00261     0.46864
      H   30    0.11030      0.00000     0.38836    0.00135     0.38970
      H   31    0.08842      0.00000     0.41039    0.00120     0.41158
      H   32    0.08945      0.00000     0.40929    0.00126     0.41055
      H   33    0.08903      0.00000     0.40939    0.00159     0.41097
      H   34    0.09144      0.00000     0.40685    0.00170     0.40856
 =======================================================================
   * Total *   -0.00000     16.99293    44.80639    0.20068    62.00000

 Normal termination of Gaussian 16 at Mon Dec 14 14:09:57 2020.
