 Gaussian 16, Revision A.03,

 -----------------------------------------------------------
 # opt freq B3LYP/6-31G(d) empiricaldispersion=gd3bj scf=xqc
 -----------------------------------------------------------

 -------------------------------
 CID_116443613_JID_6177_neutraal
 -------------------------------
 Symbolic Z-matrix:
 Charge =  0 Multiplicity = 1

 SCF Done:  E(RB3LYP) =  -1163.54729118     A.U. after   15 cycles
 SCF Done:  E(RB3LYP) =  -1163.55426070     A.U. after   12 cycles
 SCF Done:  E(RB3LYP) =  -1163.55219511     A.U. after   13 cycles
 SCF Done:  E(RB3LYP) =  -1163.55515677     A.U. after   12 cycles
 SCF Done:  E(RB3LYP) =  -1163.55644556     A.U. after   12 cycles
 SCF Done:  E(RB3LYP) =  -1163.55764390     A.U. after   12 cycles
 SCF Done:  E(RB3LYP) =  -1163.55879779     A.U. after   13 cycles
 SCF Done:  E(RB3LYP) =  -1163.55988326     A.U. after   13 cycles
 SCF Done:  E(RB3LYP) =  -1163.56025913     A.U. after   12 cycles
 SCF Done:  E(RB3LYP) =  -1163.55999751     A.U. after   12 cycles
 SCF Done:  E(RB3LYP) =  -1163.56078755     A.U. after   10 cycles
 SCF Done:  E(RB3LYP) =  -1163.56078988     A.U. after    8 cycles
 SCF Done:  E(RB3LYP) =  -1163.56079113     A.U. after    9 cycles
 SCF Done:  E(RB3LYP) =  -1163.56079222     A.U. after    9 cycles
 SCF Done:  E(RB3LYP) =  -1163.56079236     A.U. after    7 cycles
 SCF Done:  E(RB3LYP) =  -1163.56079241     A.U. after    7 cycles
 Optimization completed.
    -- Stationary point found.
 Normal termination of Gaussian 16 at Thu Dec 10 21:27:41 2020.

 --------------------------------------------------------------------
 #N Geom=AllCheck Guess=TCheck SCRF=Check GenChk RB3LYP/6-31G(d) Freq
 --------------------------------------------------------------------

 Structure from the checkpoint file:  "JID_6177.chk"
 -------------------------------
 CID_116443613_JID_6177_neutraal
 -------------------------------
 Charge =  0 Multiplicity = 1

 SCF Done:  E(RB3LYP) =  -1163.56079241     A.U. after    1 cycles

  Exact polarizability: 151.851  -2.904 134.422   3.422  -4.222 114.692
 Approx polarizability: 192.962  -6.436 196.670   2.741  -4.173 182.117

                      1                      2                      3
                      A                      A                      A
 Frequencies --     26.9715                49.5616                69.7788
 Red. masses --      4.8548                 3.6514                 2.9097
 Frc consts  --      0.0021                 0.0053                 0.0083
 IR Inten    --      1.8207                 0.9647                 1.3887

                      4                      5                      6
                      A                      A                      A
 Frequencies --     73.3821               106.1735               125.5130
 Red. masses --      3.7690                 4.3551                 3.1432
 Frc consts  --      0.0120                 0.0289                 0.0292
 IR Inten    --      2.9387                 1.3139                 3.8072

                      7                      8                      9
                      A                      A                      A
 Frequencies --    134.8502               163.4138               181.3699
 Red. masses --      2.6320                 3.9950                 3.4835
 Frc consts  --      0.0282                 0.0629                 0.0675
 IR Inten    --      3.1584                 2.7690                 1.1334

                     10                     11                     12
                      A                      A                      A
 Frequencies --    196.2369               220.6843               233.0329
 Red. masses --      2.5479                 1.5948                 1.5233
 Frc consts  --      0.0578                 0.0458                 0.0487
 IR Inten    --      2.4138                 1.9331                 2.9985

                     13                     14                     15
                      A                      A                      A
 Frequencies --    253.4763               276.1553               287.3527
 Red. masses --      1.7536                 5.0139                 2.7561
 Frc consts  --      0.0664                 0.2253                 0.1341
 IR Inten    --      1.9961                 5.2594                 1.2769

                     16                     17                     18
                      A                      A                      A
 Frequencies --    311.1773               332.1406               351.4617
 Red. masses --      3.1373                 2.8028                 2.5515
 Frc consts  --      0.1790                 0.1822                 0.1857
 IR Inten    --     14.0555                 3.2866                 2.7459

                     19                     20                     21
                      A                      A                      A
 Frequencies --    389.5821               393.8531               415.4164
 Red. masses --      4.0279                 2.7614                 1.6638
 Frc consts  --      0.3602                 0.2524                 0.1692
 IR Inten    --      1.9997                22.6194                27.5290

                     22                     23                     24
                      A                      A                      A
 Frequencies --    428.7255               475.4080               481.3433
 Red. masses --      3.1897                 1.9377                 4.1173
 Frc consts  --      0.3454                 0.2580                 0.5620
 IR Inten    --     22.4661                95.9233                35.2379

                     25                     26                     27
                      A                      A                      A
 Frequencies --    508.2615               547.7320               559.4552
 Red. masses --      3.8030                 3.4507                 3.9497
 Frc consts  --      0.5788                 0.6099                 0.7284
 IR Inten    --      3.8710                 5.5144                 7.2800

                     28                     29                     30
                      A                      A                      A
 Frequencies --    578.1118               648.6677               690.9592
 Red. masses --      3.5771                 5.3619                 4.4737
 Frc consts  --      0.7044                 1.3293                 1.2584
 IR Inten    --     20.3312                44.8574                66.9312

                     31                     32                     33
                      A                      A                      A
 Frequencies --    732.2687               790.2967               808.4219
 Red. masses --      2.6125                 1.1857                 1.1857
 Frc consts  --      0.8254                 0.4363                 0.4565
 IR Inten    --     62.3771                19.8664                22.4121

                     34                     35                     36
                      A                      A                      A
 Frequencies --    850.5769               895.6455               911.6067
 Red. masses --      3.3780                 2.4598                 2.5564
 Frc consts  --      1.4399                 1.1626                 1.2517
 IR Inten    --     24.9763                69.0396               136.1057

                     37                     38                     39
                      A                      A                      A
 Frequencies --    918.8329               930.2542               951.3671
 Red. masses --      2.2869                 2.4395                 2.0488
 Frc consts  --      1.1375                 1.2438                 1.0925
 IR Inten    --     33.9872                24.1188                12.0608

                     40                     41                     42
                      A                      A                      A
 Frequencies --    961.4465              1033.5821              1046.6189
 Red. masses --      1.9962                 2.7150                 2.3415
 Frc consts  --      1.0872                 1.7089                 1.5112
 IR Inten    --     38.9704                34.8316                 2.7712

                     43                     44                     45
                      A                      A                      A
 Frequencies --   1085.0010              1095.6733              1101.6474
 Red. masses --      2.3906                 4.1454                 2.0683
 Frc consts  --      1.6582                 2.9321                 1.4789
 IR Inten    --    100.5973                58.4578                18.8245

                     46                     47                     48
                      A                      A                      A
 Frequencies --   1115.0961              1121.1811              1125.5784
 Red. masses --      4.6816                 1.9568                 1.8281
 Frc consts  --      3.4298                 1.4492                 1.3646
 IR Inten    --     75.6774                 4.2418                13.3670

                     49                     50                     51
                      A                      A                      A
 Frequencies --   1127.9647              1150.4005              1157.2835
 Red. masses --      2.3861                 4.5663                 2.7377
 Frc consts  --      1.7887                 3.5605                 2.1603
 IR Inten    --     44.1478                43.4006                36.5375

                     52                     53                     54
                      A                      A                      A
 Frequencies --   1176.1773              1219.2098              1232.0482
 Red. masses --      3.0030                 2.9871                 1.9343
 Frc consts  --      2.4476                 2.6161                 1.7299
 IR Inten    --      1.9922                25.5796                40.5369

                     55                     56                     57
                      A                      A                      A
 Frequencies --   1244.2163              1273.6194              1312.8490
 Red. masses --      1.4276                 1.1548                 1.6916
 Frc consts  --      1.3021                 1.1036                 1.7178
 IR Inten    --      8.1814                30.5069               107.0947

                     58                     59                     60
                      A                      A                      A
 Frequencies --   1315.7757              1325.3208              1343.8982
 Red. masses --      3.0382                 1.3041                 1.1705
 Frc consts  --      3.0990                 1.3496                 1.2455
 IR Inten    --     86.7739                11.4939                19.8497

                     61                     62                     63
                      A                      A                      A
 Frequencies --   1349.4499              1375.8898              1381.5785
 Red. masses --      1.2750                 1.1692                 1.2454
 Frc consts  --      1.3679                 1.3041                 1.4006
 IR Inten    --      1.8783                17.4644                 2.6523

                     64                     65                     66
                      A                      A                      A
 Frequencies --   1396.6553              1401.4566              1405.0650
 Red. masses --      1.2759                 1.2656                 1.2368
 Frc consts  --      1.4664                 1.4646                 1.4386
 IR Inten    --      8.0624                 8.3063                36.6413

                     67                     68                     69
                      A                      A                      A
 Frequencies --   1417.2007              1420.5498              1434.6565
 Red. masses --      1.2544                 1.3565                 1.3365
 Frc consts  --      1.4844                 1.6128                 1.6207
 IR Inten    --      6.7861                 7.2267                11.0396

                     70                     71                     72
                      A                      A                      A
 Frequencies --   1437.6911              1443.3644              1456.2596
 Red. masses --      1.2972                 1.2644                 1.3030
 Frc consts  --      1.5798                 1.5520                 1.6281
 IR Inten    --     13.4816                22.3709                34.0031

                     73                     74                     75
                      A                      A                      A
 Frequencies --   1511.1477              1513.2255              1516.1527
 Red. masses --      1.0606                 1.0740                 1.0785
 Frc consts  --      1.4270                 1.4489                 1.4606
 IR Inten    --      4.4707                 2.1552                 1.8929

                     76                     77                     78
                      A                      A                      A
 Frequencies --   1518.6656              1523.7970              1529.0709
 Red. masses --      1.0597                 1.0445                 1.1026
 Frc consts  --      1.4400                 1.4290                 1.5189
 IR Inten    --      0.8309                 2.5368                 5.3532

                     79                     80                     81
                      A                      A                      A
 Frequencies --   1529.9600              1540.5079              1543.1435
 Red. masses --      1.0600                 1.0600                 1.0607
 Frc consts  --      1.4619                 1.4821                 1.4882
 IR Inten    --      7.0561                 7.6067                 2.5141

                     82                     83                     84
                      A                      A                      A
 Frequencies --   1552.8588              3011.7863              3022.7115
 Red. masses --      1.0877                 1.0690                 1.0692
 Frc consts  --      1.5453                 5.7129                 5.7558
 IR Inten    --      1.7103                38.2820                41.5082

                     85                     86                     87
                      A                      A                      A
 Frequencies --   3039.4479              3056.9435              3060.4071
 Red. masses --      1.0656                 1.0374                 1.0403
 Frc consts  --      5.8003                 5.7118                 5.7405
 IR Inten    --     24.2893                18.8224                17.5383

                     88                     89                     90
                      A                      A                      A
 Frequencies --   3062.7521              3073.0793              3076.5263
 Red. masses --      1.0654                 1.0677                 1.0608
 Frc consts  --      5.8881                 5.9410                 5.9155
 IR Inten    --     26.3984                25.7215                24.4941

                     91                     92                     93
                      A                      A                      A
 Frequencies --   3102.6740              3109.0148              3114.2846
 Red. masses --      1.0955                 1.0957                 1.1032
 Frc consts  --      6.2134                 6.2400                 6.3040
 IR Inten    --      5.3124                56.5761                 8.5838

                     94                     95                     96
                      A                      A                      A
 Frequencies --   3116.5689              3119.4315              3124.2609
 Red. masses --      1.1005                 1.1009                 1.1033
 Frc consts  --      6.2976                 6.3118                 6.3450
 IR Inten    --     13.5070                36.7101                36.3509

                     97                     98                     99
                      A                      A                      A
 Frequencies --   3133.4833              3148.4951              3149.0137
 Red. masses --      1.0975                 1.0899                 1.0936
 Frc consts  --      6.3489                 6.3654                 6.3894
 IR Inten    --     19.8224                11.0419                 0.5665

                    100                    101                    102
                      A                      A                      A
 Frequencies --   3155.3691              3163.2700              3700.8993
 Red. masses --      1.1019                 1.1017                 1.0646
 Frc consts  --      6.4638                 6.4952                 8.5912
 IR Inten    --     18.0462                11.8679                37.4610

 - Thermochemistry -
 -------------------
 Temperature   298.150 Kelvin.  Pressure   1.00000 Atm.
 Atom     1 has atomic number  6 and mass  12.00000

 Molecular mass:   252.11438 amu.
 Principal axes and moments of inertia in atomic units:
                           1         2         3
     Eigenvalues --  2540.165064612.450315621.90906
           X            0.99992   0.00261   0.01262
           Y           -0.00215   0.99934  -0.03639
           Z           -0.01271   0.03636   0.99926
 This molecule is an asymmetric top.
 Rotational symmetry number  1.
 Warning -- assumption of classical behavior for rotation
           may cause significant error
 Rotational temperatures (Kelvin)      0.03410     0.01878     0.01541
 Rotational constants (GHZ):           0.71048     0.39128     0.32102
 Zero-point vibrational energy     817066.6 (Joules/Mol)
                                  195.28361 (Kcal/Mol)
 Warning -- explicit consideration of  28 degrees of freedom as
           vibrations may cause significant error
 Vibrational temperatures:     38.81    71.31   100.40   105.58   152.76
          (Kelvin)            180.59   194.02   235.12   260.95   282.34
                              317.52   335.28   364.70   397.33   413.44
                              447.71   477.88   505.67   560.52   566.67
                              597.69   616.84   684.01   692.55   731.27
                              788.06   804.93   831.77   933.29   994.14
                             1053.57  1137.06  1163.14  1223.79  1288.63
                             1311.60  1322.00  1338.43  1368.81  1383.31
                             1487.09  1505.85  1561.07  1576.43  1585.02
                             1604.37  1613.13  1619.46  1622.89  1655.17
                             1665.07  1692.26  1754.17  1772.64  1790.15
                             1832.45  1888.90  1893.11  1906.84  1933.57
                             1941.56  1979.60  1987.78  2009.48  2016.38
                             2021.58  2039.04  2043.85  2064.15  2068.52
                             2076.68  2095.23  2174.20  2177.19  2181.41
                             2185.02  2192.40  2199.99  2201.27  2216.45
                             2220.24  2234.22  4333.29  4349.01  4373.09
                             4398.26  4403.24  4406.62  4421.48  4426.44
                             4464.06  4473.18  4480.76  4484.05  4488.17
                             4495.11  4508.38  4529.98  4530.73  4539.87
                             4551.24  5324.77

 Zero-point correction=                           0.311204 (Hartree/Particle)
 Thermal correction to Energy=                    0.328593
 Thermal correction to Enthalpy=                  0.329537
 Thermal correction to Gibbs Free Energy=         0.266045
 Sum of electronic and zero-point Energies=          -1163.249588
 Sum of electronic and thermal Energies=             -1163.232200
 Sum of electronic and thermal Enthalpies=           -1163.231255
 Sum of electronic and thermal Free Energies=        -1163.294748

                     E (Thermal)             CV                S
                      KCal/Mol        Cal/Mol-Kelvin    Cal/Mol-Kelvin
 Total                  206.195             65.491            133.631
 Electronic               0.000              0.000              0.000
 Translational            0.889              2.981             42.474
 Rotational               0.889              2.981             32.554
 Vibrational            204.418             59.529             58.602
 Vibration     1          0.593              1.984              6.041
 Vibration     2          0.595              1.978              4.835
 Vibration     3          0.598              1.969              4.160
 Vibration     4          0.599              1.967              4.061
 Vibration     5          0.605              1.944              3.338
 Vibration     6          0.610              1.928              3.014
 Vibration     7          0.613              1.919              2.876
 Vibration     8          0.623              1.887              2.510
 Vibration     9          0.630              1.865              2.314
 Vibration    10          0.636              1.845              2.168
 Vibration    11          0.647              1.810              1.953
 Vibration    12          0.654              1.790              1.855
 Vibration    13          0.665              1.757              1.706
 Vibration    14          0.678              1.717              1.557
 Vibration    15          0.685              1.697              1.490
 Vibration    16          0.700              1.652              1.356
 Vibration    17          0.714              1.611              1.250
 Vibration    18          0.728              1.572              1.160
 Vibration    19          0.758              1.492              1.002
 Vibration    20          0.761              1.483              0.986
 Vibration    21          0.779              1.437              0.908
 Vibration    22          0.790              1.408              0.863
 Vibration    23          0.832              1.305              0.723
 Vibration    24          0.838              1.291              0.706
 Vibration    25          0.863              1.232              0.638
 Vibration    26          0.903              1.145              0.549
 Vibration    27          0.915              1.119              0.525
 Vibration    28          0.935              1.079              0.489

                           ! Non-Optimized Parameters !
 Normal termination of Gaussian 16 at Thu Dec 10 21:41:53 2020.

 ----------------------------------------------------------------------
 # B3LYP/6-311++G(d,p) empiricaldispersion=gd3bj scf=xqc pop=npa geom=c
 heck
 ----------------------------------------------------------------------

 ---------------------------------------
 CID_116443613_JID_6177_Energie_neutraal
 ---------------------------------------
 Structure from the checkpoint file:  "JID_6177.chk"
 Charge =  0 Multiplicity = 1

 SCF Done:  E(RB3LYP) =  -1163.81869601     A.U. after   15 cycles
 Normal termination of Gaussian 16 at Thu Dec 10 21:49:21 2020.

 ----------------------------------------------------------------------
 # B3LYP/6-311++G(d,p) empiricaldispersion=gd3bj scf=xqc pop=npa geom=c
 heck
 ----------------------------------------------------------------------

 -------------------------------------
 CID_116443613_JID_6177_Energie_kation
 -------------------------------------
 Structure from the checkpoint file:  "JID_6177.chk"
 Charge =  1 Multiplicity = 2

 SCF Done:  E(UB3LYP) =  -1163.50761990     A.U. after   23 cycles
 Normal termination of Gaussian 16 at Thu Dec 10 22:05:12 2020.
 Gaussian 16:  ES64L-G16RevA.03 25-Dec-2016

 ----------------------------------------------------------------------
 # B3LYP/6-311++G(d,p) empiricaldispersion=gd3bj scf=xqc pop=npa geom=c
 heck
 ----------------------------------------------------------------------

 ------------------------------------
 CID_116443613_JID_6177_Energie_anion
 ------------------------------------
 Structure from the checkpoint file:  "JID_6177.chk"
 Charge = -1 Multiplicity = 2

                         Standard orientation:
 ---------------------------------------------------------------------
 Center     Atomic      Atomic             Coordinates (Angstroms)
 Number     Number       Type             X           Y           Z
 ---------------------------------------------------------------------
      1          6           0        2.733011   -2.149136    1.175876
      2          6           0        2.977141   -0.934989    0.285960
      3          7           0        1.840372    0.012606    0.303429
      4          6           0        2.122850    1.425225    0.624879
      5          6           0        3.053842    2.139717   -0.355460
      6         16           0        0.609606   -0.243752   -0.793830
      7          8           0        0.583409    0.772176   -1.849957
      8          8           0        0.672052   -1.664315   -1.153082
      9          7           0       -0.722155    0.088301    0.197021
     10          6           0       -1.105812   -1.009652    1.109098
     11          6           0       -2.144598   -1.922331    0.462754
     12          8           0       -3.266789   -1.166004    0.019964
     13          6           0       -2.886585   -0.216315   -0.968971
     14          6           0       -1.874176    0.792149   -0.421081
     15          6           0       -2.477390    1.722982    0.642783
     16          8           0       -1.480835    2.503945    1.276727
     17          1           0        2.504372   -1.835690    2.200310
     18          1           0        3.624736   -2.785975    1.200235
     19          1           0        1.900210   -2.742415    0.791009
     20          1           0        3.839660   -0.371098    0.652305
     21          1           0        3.211447   -1.248355   -0.736143
     22          1           0        1.163520    1.946825    0.671084
     23          1           0        2.541699    1.432989    1.637900
     24          1           0        2.613885    2.154422   -1.354879
     25          1           0        3.214133    3.172592   -0.027025
     26          1           0        4.032902    1.651520   -0.410036
     27          1           0       -1.522829   -0.553751    2.013830
     28          1           0       -0.208189   -1.559472    1.398034
     29          1           0       -1.688862   -2.461118   -0.379896
     30          1           0       -2.526515   -2.646905    1.187888
     31          1           0       -3.806283    0.289583   -1.279398
     32          1           0       -2.457042   -0.729710   -1.843512
     33          1           0       -1.472040    1.399795   -1.232195
     34          1           0       -3.169148    2.416365    0.154221
     35          1           0       -3.056636    1.136201    1.370959
     36          1           0       -0.772614    1.875568    1.499201
 ---------------------------------------------------------------------

 SCF Done:  E(UB3LYP) =  -1163.80690959     A.U. after   32 cycles

 The electronic state is 2-A.
 Alpha  occ. eigenvalues --  -88.99131 -19.04936 -19.03526 -19.03365 -19.03227
 Alpha  occ. eigenvalues --  -14.26538 -14.25383 -10.14388 -10.13498 -10.13383
 Alpha  occ. eigenvalues --  -10.13302 -10.12433 -10.11745 -10.11485 -10.06826
 Alpha  occ. eigenvalues --  -10.06051  -8.05056  -6.01322  -6.01295  -6.01242
 Alpha  occ. eigenvalues --   -1.04381  -0.96638  -0.94105  -0.92689  -0.85921
 Alpha  occ. eigenvalues --   -0.84438  -0.71233  -0.68017  -0.66995  -0.63529
 Alpha  occ. eigenvalues --   -0.60074  -0.57267  -0.56233  -0.54926  -0.51815
 Alpha  occ. eigenvalues --   -0.46485  -0.44970  -0.43292  -0.42434  -0.41303
 Alpha  occ. eigenvalues --   -0.40561  -0.40172  -0.39025  -0.38256  -0.36406
 Alpha  occ. eigenvalues --   -0.35653  -0.35246  -0.34017  -0.33764  -0.32750
 Alpha  occ. eigenvalues --   -0.31649  -0.30561  -0.30270  -0.28910  -0.28525
 Alpha  occ. eigenvalues --   -0.27878  -0.27701  -0.27113  -0.25988  -0.25225
 Alpha  occ. eigenvalues --   -0.25086  -0.24027  -0.23039  -0.22176  -0.21226
 Alpha  occ. eigenvalues --   -0.19532  -0.16782  -0.15363   0.04272
 Alpha virt. eigenvalues --    0.06126   0.06650   0.07450   0.08065   0.08767
 Alpha virt. eigenvalues --    0.09049   0.09740   0.10132   0.10387   0.11156
 Alpha virt. eigenvalues --    0.11345   0.11907   0.12574   0.12935   0.13204

  Beta  occ. eigenvalues --  -88.99129 -19.04933 -19.03513 -19.03363 -19.03223
  Beta  occ. eigenvalues --  -14.26539 -14.25384 -10.14383 -10.13486 -10.13367
  Beta  occ. eigenvalues --  -10.13299 -10.12404 -10.11717 -10.11459 -10.06805
  Beta  occ. eigenvalues --  -10.06008  -8.05055  -6.01319  -6.01294  -6.01241
  Beta  occ. eigenvalues --   -1.04375  -0.96628  -0.94081  -0.92684  -0.85911
  Beta  occ. eigenvalues --   -0.84424  -0.71213  -0.67972  -0.66965  -0.63493
  Beta  occ. eigenvalues --   -0.60044  -0.57227  -0.56199  -0.54852  -0.51771
  Beta  occ. eigenvalues --   -0.46443  -0.44946  -0.43267  -0.42405  -0.41276
  Beta  occ. eigenvalues --   -0.40543  -0.40139  -0.39002  -0.38231  -0.36390
  Beta  occ. eigenvalues --   -0.35614  -0.35220  -0.33993  -0.33730  -0.32705
  Beta  occ. eigenvalues --   -0.31618  -0.30526  -0.30234  -0.28883  -0.28476
  Beta  occ. eigenvalues --   -0.27843  -0.27678  -0.27086  -0.25957  -0.25207
  Beta  occ. eigenvalues --   -0.25063  -0.24015  -0.23027  -0.22164  -0.21212
  Beta  occ. eigenvalues --   -0.19514  -0.16763  -0.15347
  Beta virt. eigenvalues --    0.06236   0.07032   0.07452   0.07921   0.08588
  Beta virt. eigenvalues --    0.09257   0.09310   0.10009   0.10411   0.10890
  Beta virt. eigenvalues --    0.11491   0.11518   0.12160   0.12731   0.13236

 Mulliken charges and spin densities:
               1          2
     1  C    1.289196  -1.801974
     2  C   -0.529633   0.327838
     3  N   -0.217782   0.173484
     4  C   -0.251417   0.032580
     5  C    0.184735  -0.698045
     6  S    1.341751  -1.118190
     7  O   -0.104281   0.002449
     8  O   -0.157762   0.024003
     9  N   -0.397812   0.040851
    10  C    0.118345  -0.216364
    11  C    0.066474  -0.603457
    12  O   -0.132704   0.018915
    13  C   -0.038089  -0.516375
    14  C   -1.130966   1.241875
    15  C    0.468868  -0.938077
    16  O   -0.236420   0.015431
    17  H   -0.344082   0.510438
    18  H   -0.432924   0.573066
    19  H   -0.059335   0.235274
    20  H   -0.465616   0.630342
    21  H    0.198088   0.002251
    22  H    0.600855  -0.455683
    23  H   -0.683923   0.900265
    24  H    0.108439   0.061462
    25  H   -0.267412   0.412895
    26  H   -0.032376   0.170107
    27  H   -0.301769   0.556555
    28  H    0.179584  -0.006627
    29  H    0.217555  -0.022206
    30  H   -0.423459   0.626655
    31  H    0.076930   0.113547
    32  H    0.135576   0.029470
    33  H    0.178775   0.118106
    34  H    0.083193   0.081798
    35  H    0.001471   0.183825
    36  H   -0.042070   0.293513
 Sum of Mulliken charges =  -1.00000   1.00000

 Dipole moment (field-independent basis, Debye):
    X=             -5.4234    Y=              0.9439    Z=             -6.1271  Tot=              8.2369
 Quadrupole moment (field-independent basis, Debye-Ang):
   XX=           -177.0169   YY=           -156.0115   ZZ=           -155.3139
   XY=             -1.4142   XZ=             -6.0178   YZ=              1.3655

 Summary of Natural Population Analysis:

                                       Natural Population
                Natural  -----------------------------------------------
    Atom  No    Charge         Core      Valence    Rydberg      Total
 -----------------------------------------------------------------------
      C    1   -0.28917      0.99965     2.28378    0.00574     3.28917
      C    2   -0.08567      0.99960     2.07380    0.01227     3.08567
      N    3   -0.37705      0.99972     2.86019    0.01714     3.87705
      C    4   -0.08771      0.99960     2.07531    0.01280     3.08771
      C    5   -0.29598      0.99965     2.29133    0.00500     3.29598
      S    6    1.18425      4.99917     1.71336    0.10322     6.81575
      O    7   -0.46389      0.99990     3.45895    0.00504     4.46389
      O    8   -0.46304      0.99990     3.45807    0.00507     4.46304
      N    9   -0.38507      0.99972     2.86852    0.01683     3.88507
      C   10   -0.10854      0.99959     2.09474    0.01420     3.10854
      C   11   -0.02110      0.99957     2.00850    0.01302     3.02110
      O   12   -0.29987      0.99989     3.29098    0.00900     4.29987
      C   13   -0.01729      0.99954     2.00624    0.01151     3.01729
      C   14   -0.03816      0.99957     2.02658    0.01201     3.03816
      C   15   -0.01270      0.99956     2.00062    0.01252     3.01270
      O   16   -0.36710      0.99990     3.36075    0.00644     4.36710
      H   17    0.10247      0.00000     0.39510    0.00243     0.39753
      H   18    0.10097      0.00000     0.39772    0.00131     0.39903
      H   19    0.10353      0.00000     0.39510    0.00137     0.39647
      H   20    0.10309      0.00000     0.39483    0.00207     0.39691
      H   21    0.09743      0.00000     0.40146    0.00111     0.40257
      H   22    0.10056      0.00000     0.39746    0.00198     0.39944
      H   23    0.10335      0.00000     0.39388    0.00277     0.39665
      H   24    0.10791      0.00000     0.39106    0.00103     0.39209
      H   25    0.10178      0.00000     0.39734    0.00088     0.39822
      H   26    0.09851      0.00000     0.40044    0.00105     0.40149
      H   27    0.10214      0.00000     0.39590    0.00196     0.39786
      H   28    0.11627      0.00000     0.38177    0.00196     0.38373
      H   29    0.08878      0.00000     0.40986    0.00136     0.41122
      H   30    0.09659      0.00000     0.40194    0.00146     0.40341
      H   31    0.09328      0.00000     0.40557    0.00115     0.40672
      H   32    0.08640      0.00000     0.41233    0.00128     0.41360
      H   33    0.12139      0.00000     0.37731    0.00131     0.37861
      H   34    0.08794      0.00000     0.41086    0.00119     0.41206
      H   35    0.08209      0.00000     0.41617    0.00174     0.41791
      H   36    0.23361      0.00000     0.26233    0.00406     0.26639
 =======================================================================
   * Total *   -0.00000     19.99455    47.71016    0.29528    68.00000

 Normal termination of Gaussian 16 at Thu Dec 10 22:27:43 2020.
