 Gaussian 16, Revision A.03,

 -----------------------------------------------------------
 # opt freq B3LYP/6-31G(d) empiricaldispersion=gd3bj scf=xqc
 -----------------------------------------------------------

 -------------------------------
 CID_149083132_JID_4972_neutraal
 -------------------------------
 Symbolic Z-matrix:
 Charge =  0 Multiplicity = 1

 SCF Done:  E(RB3LYP) =  -659.354952322     A.U. after   15 cycles
 SCF Done:  E(RB3LYP) =  -659.364887139     A.U. after   12 cycles
 SCF Done:  E(RB3LYP) =  -659.367476866     A.U. after   12 cycles
 SCF Done:  E(RB3LYP) =  -659.368197979     A.U. after   12 cycles
 SCF Done:  E(RB3LYP) =  -659.368584842     A.U. after   12 cycles
 SCF Done:  E(RB3LYP) =  -659.368726645     A.U. after   12 cycles
 SCF Done:  E(RB3LYP) =  -659.368812050     A.U. after   10 cycles
 SCF Done:  E(RB3LYP) =  -659.368834192     A.U. after    9 cycles
 SCF Done:  E(RB3LYP) =  -659.368838673     A.U. after    9 cycles
 SCF Done:  E(RB3LYP) =  -659.368839421     A.U. after    8 cycles
 SCF Done:  E(RB3LYP) =  -659.368839970     A.U. after    7 cycles
 SCF Done:  E(RB3LYP) =  -659.368840421     A.U. after    8 cycles
 Optimization completed.
    -- Stationary point found.
 Normal termination of Gaussian 16 at Thu Dec 10 10:58:41 2020.

 --------------------------------------------------------------------
 #N Geom=AllCheck Guess=TCheck SCRF=Check GenChk RB3LYP/6-31G(d) Freq
 --------------------------------------------------------------------

 Structure from the checkpoint file:  "JID_4972.chk"
 -------------------------------
 CID_149083132_JID_4972_neutraal
 -------------------------------
 Charge =  0 Multiplicity = 1

 SCF Done:  E(RB3LYP) =  -659.368840421     A.U. after    1 cycles

  Exact polarizability: 163.934  -5.769 148.700  -0.076   0.004  47.422
 Approx polarizability: 266.807 -29.051 249.081   1.023  -0.596  74.463

                      1                      2                      3
                      A                      A                      A
 Frequencies --     74.7220               123.6907               145.5677
 Red. masses --      5.4139                 4.6049                 3.2020
 Frc consts  --      0.0178                 0.0415                 0.0400
 IR Inten    --      1.7421                 0.3530                15.3152

                      4                      5                      6
                      A                      A                      A
 Frequencies --    168.5142               201.2876               229.8293
 Red. masses --      1.1993                 7.8104                 3.2200
 Frc consts  --      0.0201                 0.1864                 0.1002
 IR Inten    --      2.7765                 1.2104                 2.3453

                      7                      8                      9
                      A                      A                      A
 Frequencies --    255.2485               327.4599               340.3550
 Red. masses --      3.5281                 3.8635                 4.1855
 Frc consts  --      0.1354                 0.2441                 0.2857
 IR Inten    --     15.2871                19.4075                 1.1191

                     10                     11                     12
                      A                      A                      A
 Frequencies --    348.5477               353.1527               359.9028
 Red. masses --      1.8479                 1.7723                 1.3870
 Frc consts  --      0.1323                 0.1302                 0.1059
 IR Inten    --     27.7192                95.8998               392.1918

                     13                     14                     15
                      A                      A                      A
 Frequencies --    398.6115               467.1809               469.0127
 Red. masses --      5.2584                 4.0719                 6.2485
 Frc consts  --      0.4923                 0.5236                 0.8098
 IR Inten    --      4.5792                46.7695                15.6643

                     16                     17                     18
                      A                      A                      A
 Frequencies --    513.8378               532.1969               541.4063
 Red. masses --      2.1973                 5.4076                 1.5451
 Frc consts  --      0.3418                 0.9024                 0.2668
 IR Inten    --     12.9145                 0.9382                 2.1962

                     19                     20                     21
                      A                      A                      A
 Frequencies --    618.2885               619.5424               636.0502
 Red. masses --      1.2650                 4.6218                 3.9217
 Frc consts  --      0.2849                 1.0452                 0.9348
 IR Inten    --     76.9671                 3.1506                 5.9875

                     22                     23                     24
                      A                      A                      A
 Frequencies --    692.4404               723.8485               736.8226
 Red. masses --      2.3772                 3.0513                 5.1204
 Frc consts  --      0.6716                 0.9420                 1.6379
 IR Inten    --      1.0668                 2.1538                 4.7867

                     25                     26                     27
                      A                      A                      A
 Frequencies --    743.8618               761.8797               801.9353
 Red. masses --      2.0897                11.2981                 6.3665
 Frc consts  --      0.6813                 3.8639                 2.4123
 IR Inten    --     32.7077                 1.3005                 1.2728

                     28                     29                     30
                      A                      A                      A
 Frequencies --    815.6355               884.6826               943.4813
 Red. masses --     10.1049                 1.3427                 4.6047
 Frc consts  --      3.9607                 0.6192                 2.4150
 IR Inten    --     32.7955                11.1725                17.6875

                     31                     32                     33
                      A                      A                      A
 Frequencies --   1012.9013              1053.8104              1082.4809
 Red. masses --      1.8976                 3.2917                 1.6771
 Frc consts  --      1.1471                 2.1537                 1.1578
 IR Inten    --      3.2028                 3.2546                 6.2935

                     34                     35                     36
                      A                      A                      A
 Frequencies --   1083.6988              1118.9573              1202.2833
 Red. masses --      1.4497                 2.8008                 1.9630
 Frc consts  --      1.0031                 2.0662                 1.6718
 IR Inten    --      1.8731                32.0942                10.3997

                     37                     38                     39
                      A                      A                      A
 Frequencies --   1219.1051              1259.7499              1323.8852
 Red. masses --      2.0305                 4.2429                 6.3949
 Frc consts  --      1.7780                 3.9672                 6.6036
 IR Inten    --     59.0592                 3.5079                19.5858

                     40                     41                     42
                      A                      A                      A
 Frequencies --   1365.4623              1386.0276              1427.4937
 Red. masses --      6.8999                 2.0338                 2.6696
 Frc consts  --      7.5797                 2.3020                 3.2051
 IR Inten    --     72.1993                13.5616                36.1723

                     43                     44                     45
                      A                      A                      A
 Frequencies --   1448.2288              1492.5270              1500.2423
 Red. masses --      1.2929                 2.6975                 1.0459
 Frc consts  --      1.5977                 3.5405                 1.3870
 IR Inten    --      0.4244                35.5992                 5.9085

                     46                     47                     48
                      A                      A                      A
 Frequencies --   1500.6412              1515.1604              1534.7455
 Red. masses --      2.6619                 1.4571                 1.8846
 Frc consts  --      3.5318                 1.9708                 2.6154
 IR Inten    --    228.2312                 6.3037                 4.0133

                     49                     50                     51
                      A                      A                      A
 Frequencies --   1571.7847              1619.4014              1651.6282
 Red. masses --      4.8908                 5.3917                 1.8575
 Frc consts  --      7.1189                 8.3308                 2.9854
 IR Inten    --    120.3444               483.1076               736.0408

                     52                     53                     54
                      A                      A                      A
 Frequencies --   1674.6872              1706.4265              1746.5678
 Red. masses --      2.0192                 4.8719                 6.7456
 Frc consts  --      3.3365                 8.3585                12.1238
 IR Inten    --    398.1816                55.0192               566.6026

                     55                     56                     57
                      A                      A                      A
 Frequencies --   3053.0930              3111.2620              3127.1914
 Red. masses --      1.0350                 1.1007                 1.1036
 Frc consts  --      5.6844                 6.2778                 6.3585
 IR Inten    --     32.4334                14.9601                20.8277

                     58                     59                     60
                      A                      A                      A
 Frequencies --   3220.2479              3495.8334              3607.6426
 Red. masses --      1.0928                 1.0541                 1.0451
 Frc consts  --      6.6767                 7.5901                 8.0139
 IR Inten    --      9.8844               114.1762                88.7905

                     61                     62                     63
                      A                      A                      A
 Frequencies --   3614.7435              3696.2848              3733.4715
 Red. masses --      1.0776                 1.0974                 1.1041
 Frc consts  --      8.2960                 8.8341                 9.0677
 IR Inten    --     65.9615                83.5553                38.5619

 - Thermochemistry -
 -------------------
 Temperature   298.150 Kelvin.  Pressure   1.00000 Atm.
 Atom     1 has atomic number  6 and mass  12.00000

 Molecular mass:   191.08071 amu.
 Principal axes and moments of inertia in atomic units:
                           1         2         3
     Eigenvalues --  1937.082012406.270704331.63621
           X            0.99717   0.07520  -0.00183
           Y           -0.07520   0.99717   0.00079
           Z            0.00189  -0.00065   1.00000
 This molecule is an asymmetric top.
 Rotational symmetry number  1.
 Warning -- assumption of classical behavior for rotation
           may cause significant error
 Rotational temperatures (Kelvin)      0.04471     0.03600     0.02000
 Rotational constants (GHZ):           0.93168     0.75002     0.41664
 Zero-point vibrational energy     472445.1 (Joules/Mol)
                                  112.91710 (Kcal/Mol)
 Warning -- explicit consideration of  20 degrees of freedom as
           vibrations may cause significant error
 Vibrational temperatures:    107.51   177.96   209.44   242.45   289.61
          (Kelvin)            330.67   367.25   471.14   489.69   501.48
                              508.11   517.82   573.51   672.17   674.80
                              739.30   765.71   778.96   889.58   891.38
                              915.13   996.27  1041.46  1060.12  1070.25
                             1096.17  1153.81  1173.52  1272.86  1357.46
                             1457.34  1516.20  1557.45  1559.20  1609.93
                             1729.82  1754.02  1812.50  1904.78  1964.60
                             1994.18  2053.85  2083.68  2147.41  2158.51
                             2159.09  2179.98  2208.16  2261.45  2329.96
                             2376.32  2409.50  2455.17  2512.92  4392.72
                             4476.41  4499.33  4633.22  5029.72  5190.59
                             5200.81  5318.13  5371.63

 Zero-point correction=                           0.179945 (Hartree/Particle)
 Thermal correction to Energy=                    0.191782
 Thermal correction to Enthalpy=                  0.192726
 Thermal correction to Gibbs Free Energy=         0.142822
 Sum of electronic and zero-point Energies=           -659.188896
 Sum of electronic and thermal Energies=              -659.177058
 Sum of electronic and thermal Enthalpies=            -659.176114
 Sum of electronic and thermal Free Energies=         -659.226019

                     E (Thermal)             CV                S
                      KCal/Mol        Cal/Mol-Kelvin    Cal/Mol-Kelvin
 Total                  120.345             46.930            105.033
 Electronic               0.000              0.000              0.000
 Translational            0.889              2.981             41.648
 Rotational               0.889              2.981             31.380
 Vibrational            118.568             40.968             32.005
 Vibration     1          0.599              1.966              4.025
 Vibration     2          0.610              1.929              3.042
 Vibration     3          0.617              1.907              2.729
 Vibration     4          0.625              1.881              2.452
 Vibration     5          0.638              1.838              2.121
 Vibration     6          0.652              1.795              1.880
 Vibration     7          0.666              1.754              1.694
 Vibration     8          0.711              1.621              1.273
 Vibration     9          0.720              1.595              1.210
 Vibration    10          0.726              1.578              1.173
 Vibration    11          0.729              1.569              1.152
 Vibration    12          0.734              1.555              1.123
 Vibration    13          0.765              1.473              0.968
 Vibration    14          0.824              1.323              0.745
 Vibration    15          0.826              1.319              0.740
 Vibration    16          0.869              1.219              0.624
 Vibration    17          0.887              1.179              0.582
 Vibration    18          0.896              1.159              0.562
 Vibration    19          0.978              0.993              0.419
 Vibration    20          0.980              0.991              0.417

                           ! Non-Optimized Parameters !
 Normal termination of Gaussian 16 at Thu Dec 10 11:04:46 2020.

 ----------------------------------------------------------------------
 # B3LYP/6-311++G(d,p) empiricaldispersion=gd3bj scf=xqc pop=npa geom=c
 heck
 ----------------------------------------------------------------------

 ---------------------------------------
 CID_149083132_JID_4972_Energie_neutraal
 ---------------------------------------
 Structure from the checkpoint file:  "JID_4972.chk"
 Charge =  0 Multiplicity = 1

 SCF Done:  E(RB3LYP) =  -659.562634609     A.U. after   15 cycles
 Normal termination of Gaussian 16 at Thu Dec 10 11:07:25 2020.

 ----------------------------------------------------------------------
 # B3LYP/6-311++G(d,p) empiricaldispersion=gd3bj scf=xqc pop=npa geom=c
 heck
 ----------------------------------------------------------------------

 -------------------------------------
 CID_149083132_JID_4972_Energie_kation
 -------------------------------------
 Structure from the checkpoint file:  "JID_4972.chk"
 Charge =  1 Multiplicity = 2

 SCF Done:  E(UB3LYP) =  -659.267821761     A.U. after   30 cycles
 Normal termination of Gaussian 16 at Thu Dec 10 11:14:23 2020.
 Gaussian 16:  ES64L-G16RevA.03 25-Dec-2016

 ----------------------------------------------------------------------
 # B3LYP/6-311++G(d,p) empiricaldispersion=gd3bj scf=xqc pop=npa geom=c
 heck
 ----------------------------------------------------------------------

 ------------------------------------
 CID_149083132_JID_4972_Energie_anion
 ------------------------------------
 Structure from the checkpoint file:  "JID_4972.chk"
 Charge = -1 Multiplicity = 2

                         Standard orientation:
 ---------------------------------------------------------------------
 Center     Atomic      Atomic             Coordinates (Angstroms)
 Number     Number       Type             X           Y           Z
 ---------------------------------------------------------------------
      1          6           0        0.993929    3.148302    0.004150
      2          6           0        1.193126    1.660113    0.002340
      3          6           0        2.424598    1.089127    0.001127
      4          7           0        2.604007   -0.273449   -0.001313
      5          6           0        1.572710   -1.209420   -0.002048
      6          8           0        1.850051   -2.420242   -0.002594
      7          6           0        0.250911   -0.624972   -0.002505
      8          6           0        0.046331    0.775425   -0.000497
      9          7           0       -1.181068    1.324948   -0.000858
     10          6           0       -2.206378    0.455368   -0.007233
     11          7           0       -2.153680   -0.889038    0.000604
     12          6           0       -0.932031   -1.435279    0.001649
     13          7           0       -0.837934   -2.775595    0.010781
     14          7           0       -3.454589    1.001705   -0.051727
     15          1           0        0.418129    3.467050   -0.871528
     16          1           0        1.954095    3.674308    0.003086
     17          1           0        0.421515    3.465881    0.882593
     18          1           0        3.335953    1.677432    0.001381
     19          1           0        3.535235   -0.669217   -0.002483
     20          1           0       -1.687165   -3.319060   -0.002326
     21          1           0        0.090634   -3.189478    0.002214
     22          1           0       -3.532157    1.985012    0.158809
     23          1           0       -4.232986    0.398025    0.164697
 ---------------------------------------------------------------------

 SCF Done:  E(UB3LYP) =  -659.553540977     A.U. after   33 cycles
 SCF Done:  E(UB3LYP) =  -659.554534090     a.u. after    9 cycles

 The electronic state is 2-A.
 Alpha  occ. eigenvalues --  -18.96443 -14.22715 -14.20815 -14.20688 -14.16530
 Alpha  occ. eigenvalues --  -14.15814 -10.14948 -10.14212 -10.13176 -10.07461
 Alpha  occ. eigenvalues --  -10.07406 -10.04398 -10.04225 -10.04168  -0.91541
 Alpha  occ. eigenvalues --   -0.87357  -0.82510  -0.81810  -0.77143  -0.73804
 Alpha  occ. eigenvalues --   -0.66930  -0.64444  -0.56954  -0.54089  -0.53643
 Alpha  occ. eigenvalues --   -0.48914  -0.44876  -0.43320  -0.41738  -0.40628
 Alpha  occ. eigenvalues --   -0.38273  -0.35013  -0.34133  -0.33473  -0.33017
 Alpha  occ. eigenvalues --   -0.30284  -0.29903  -0.28985  -0.28913  -0.26369
 Alpha  occ. eigenvalues --   -0.24720  -0.23970  -0.21182  -0.19719  -0.19029
 Alpha  occ. eigenvalues --   -0.14456  -0.13681  -0.12473  -0.10477  -0.09416
 Alpha  occ. eigenvalues --    0.05119
 Alpha virt. eigenvalues --    0.06977   0.07481   0.08814   0.09376   0.09964
 Alpha virt. eigenvalues --    0.10470   0.11935   0.12583   0.13252   0.13574
 Alpha virt. eigenvalues --    0.14989   0.15240   0.15906   0.16668   0.17074

  Beta  occ. eigenvalues --  -18.96452 -14.22598 -14.20790 -14.20679 -14.16383
  Beta  occ. eigenvalues --  -14.15791 -10.14963 -10.14159 -10.13150 -10.07173
  Beta  occ. eigenvalues --  -10.07073 -10.04387 -10.04289 -10.04111  -0.91504
  Beta  occ. eigenvalues --   -0.87191  -0.82343  -0.81647  -0.76983  -0.73595
  Beta  occ. eigenvalues --   -0.66744  -0.64239  -0.56691  -0.54002  -0.53217
  Beta  occ. eigenvalues --   -0.48819  -0.44752  -0.43222  -0.41651  -0.40507
  Beta  occ. eigenvalues --   -0.38162  -0.34832  -0.34044  -0.33345  -0.32547
  Beta  occ. eigenvalues --   -0.30259  -0.29516  -0.28920  -0.28780  -0.26312
  Beta  occ. eigenvalues --   -0.24416  -0.23805  -0.20644  -0.18987  -0.18687
  Beta  occ. eigenvalues --   -0.14407  -0.13225  -0.12365  -0.10046  -0.08758
  Beta virt. eigenvalues --    0.07402   0.08329   0.08902   0.09576   0.09789
  Beta virt. eigenvalues --    0.10259   0.10907   0.12436   0.12447   0.13227
  Beta virt. eigenvalues --    0.13663   0.14863   0.15386   0.15973   0.16747

 Mulliken charges and spin densities:
               1          2
     1  C    0.798648  -1.284875
     2  C    0.583333   0.102946
     3  C   -0.693089   0.046478
     4  N   -0.288888   0.073687
     5  C   -0.087245  -0.249774
     6  O   -0.453030   0.011069
     7  C    0.198610   0.005581
     8  C    0.218245   0.056966
     9  N   -0.131343  -0.010777
    10  C    0.211518  -0.028771
    11  N   -0.297112   0.060225
    12  C   -0.188011   0.083979
    13  N   -0.448072   0.007585
    14  N   -0.350297   0.065315
    15  H    0.073436   0.085293
    16  H    0.042063   0.080139
    17  H    0.114520   0.034976
    18  H   -1.064546   1.194922
    19  H   -0.010014   0.332320
    20  H    0.258228   0.010848
    21  H    0.332906  -0.009347
    22  H    0.136251   0.118285
    23  H    0.043889   0.212930
 Sum of Mulliken charges =  -1.00000   1.00000

 Dipole moment (field-independent basis, Debye):
    X=             -4.2779    Y=             -1.7137    Z=              1.2744  Tot=              4.7813
 Quadrupole moment (field-independent basis, Debye-Ang):
   XX=           -132.9859   YY=           -110.3159   ZZ=            -96.0183
   XY=             -2.1555   XZ=              2.8626   YZ=              3.5727

 Summary of Natural Population Analysis:

                                       Natural Population
                Natural  -----------------------------------------------
    Atom  No    Charge         Core      Valence    Rydberg      Total
 -----------------------------------------------------------------------
      C    1   -0.28635      0.99964     2.28059    0.00611     3.28635
      C    2   -0.07486      0.99949     2.06572    0.00965     3.07486
      C    3    0.08934      0.99949     1.89879    0.01237     2.91066
      N    4   -0.27458      0.99967     2.76535    0.00956     3.77458
      C    5    0.32027      0.99960     1.65835    0.02178     2.67973
      O    6   -0.36486      0.99988     3.35906    0.00592     4.36486
      C    7   -0.13234      0.99941     2.12619    0.00675     3.13234
      C    8    0.17730      0.99949     1.81111    0.01210     2.82270
      N    9   -0.30116      0.99965     2.79226    0.00924     3.80116
      C   10    0.31193      0.99964     1.66916    0.01927     2.68807
      N   11   -0.29877      0.99964     2.78787    0.01127     3.79877
      C   12    0.24139      0.99957     1.74386    0.01518     2.75861
      N   13   -0.38825      0.99968     2.88114    0.00742     3.88825
      N   14   -0.39432      0.99969     2.88533    0.00930     3.89432
      H   15    0.10286      0.00000     0.39585    0.00129     0.39714
      H   16    0.09588      0.00000     0.40336    0.00076     0.40412
      H   17    0.10040      0.00000     0.39837    0.00123     0.39960
      H   18    0.09325      0.00000     0.40423    0.00252     0.40675
      H   19    0.19675      0.00000     0.30005    0.00319     0.30325
      H   20    0.18893      0.00000     0.30909    0.00198     0.31107
      H   21    0.21444      0.00000     0.28388    0.00168     0.28556
      H   22    0.19217      0.00000     0.30607    0.00175     0.30783
      H   23    0.19055      0.00000     0.30694    0.00250     0.30945
 =======================================================================
   * Total *   -0.00000     13.99453    35.83263    0.17284    50.00000

 Normal termination of Gaussian 16 at Thu Dec 10 12:21:09 2020.
