 Gaussian 16, Revision A.03,

 -----------------------------------------------------------
 # opt freq B3LYP/6-31G(d) empiricaldispersion=gd3bj scf=xqc
 -----------------------------------------------------------

 -------------------------------
 CID_105691118_JID_7144_neutraal
 -------------------------------
 Symbolic Z-matrix:
 Charge =  0 Multiplicity = 1

 SCF Done:  E(RB3LYP) =  -716.695312151     A.U. after   14 cycles
 SCF Done:  E(RB3LYP) =  -716.698251210     A.U. after   12 cycles
 SCF Done:  E(RB3LYP) =  -716.698682479     A.U. after   12 cycles
 SCF Done:  E(RB3LYP) =  -716.699500165     A.U. after   12 cycles
 SCF Done:  E(RB3LYP) =  -716.699860317     A.U. after   11 cycles
 SCF Done:  E(RB3LYP) =  -716.699999249     A.U. after   11 cycles
 SCF Done:  E(RB3LYP) =  -716.700025111     A.U. after   10 cycles
 SCF Done:  E(RB3LYP) =  -716.700040376     A.U. after    9 cycles
 SCF Done:  E(RB3LYP) =  -716.700049449     A.U. after   10 cycles
 SCF Done:  E(RB3LYP) =  -716.700055698     A.U. after   10 cycles
 SCF Done:  E(RB3LYP) =  -716.700058119     A.U. after    9 cycles
 SCF Done:  E(RB3LYP) =  -716.700059320     A.U. after    8 cycles
 SCF Done:  E(RB3LYP) =  -716.700059682     A.U. after    8 cycles
 SCF Done:  E(RB3LYP) =  -716.700059713     A.U. after    7 cycles
 SCF Done:  E(RB3LYP) =  -716.700059705     A.U. after    6 cycles
 Optimization completed.
    -- Stationary point found.
 Normal termination of Gaussian 16 at Fri Dec 11 11:58:25 2020.

 --------------------------------------------------------------------
 #N Geom=AllCheck Guess=TCheck SCRF=Check GenChk RB3LYP/6-31G(d) Freq
 --------------------------------------------------------------------

 Structure from the checkpoint file:  "JID_7144.chk"
 -------------------------------
 CID_105691118_JID_7144_neutraal
 -------------------------------
 Charge =  0 Multiplicity = 1

 SCF Done:  E(RB3LYP) =  -716.700059705     A.U. after    1 cycles

  Exact polarizability: 206.313   8.124 162.537  -8.797  16.156 127.665
 Approx polarizability: 274.227   8.562 246.212 -18.852  38.545 197.943

                      1                      2                      3
                      A                      A                      A
 Frequencies --     20.3881                23.7109                44.8517
 Red. masses --      3.3644                 4.2430                 3.6821
 Frc consts  --      0.0008                 0.0014                 0.0044
 IR Inten    --      0.2744                 0.0033                 0.0672

                      4                      5                      6
                      A                      A                      A
 Frequencies --     66.8465               103.4276               121.6147
 Red. masses --      2.9306                 3.1314                 3.1530
 Frc consts  --      0.0077                 0.0197                 0.0275
 IR Inten    --      0.0745                 0.2725                 0.6593

                      7                      8                      9
                      A                      A                      A
 Frequencies --    161.8891               176.5905               218.5909
 Red. masses --      2.7087                 3.4673                 2.0671
 Frc consts  --      0.0418                 0.0637                 0.0582
 IR Inten    --      0.6842                 0.3456                 0.0017

                     10                     11                     12
                      A                      A                      A
 Frequencies --    230.3001               237.1872               244.3302
 Red. masses --      1.2814                 3.1437                 1.2508
 Frc consts  --      0.0400                 0.1042                 0.0440
 IR Inten    --      0.4117                 0.8037                 0.2707

                     13                     14                     15
                      A                      A                      A
 Frequencies --    249.3176               261.3704               281.6835
 Red. masses --      1.2966                 1.8655                 1.1635
 Frc consts  --      0.0475                 0.0751                 0.0544
 IR Inten    --      0.1953                 0.5368                 0.3296

                     16                     17                     18
                      A                      A                      A
 Frequencies --    287.5821               320.5329               337.1916
 Red. masses --      1.7918                 1.6950                 2.0429
 Frc consts  --      0.0873                 0.1026                 0.1369
 IR Inten    --      1.0185                 0.0109                 0.7037

                     19                     20                     21
                      A                      A                      A
 Frequencies --    355.7024               360.8200               382.3350
 Red. masses --      2.9174                 1.1304                 2.7501
 Frc consts  --      0.2175                 0.0867                 0.2369
 IR Inten    --      6.1937               110.8029                 1.2548

                     22                     23                     24
                      A                      A                      A
 Frequencies --    383.4418               411.4704               426.4134
 Red. masses --      1.9229                 2.3313                 3.2051
 Frc consts  --      0.1666                 0.2326                 0.3434
 IR Inten    --      0.0058                 0.1093                 4.2993

                     25                     26                     27
                      A                      A                      A
 Frequencies --    445.7210               462.2414               474.6170
 Red. masses --      2.2469                 3.0479                 2.9849
 Frc consts  --      0.2630                 0.3837                 0.3961
 IR Inten    --      0.4791                 1.3271                 3.6069

                     28                     29                     30
                      A                      A                      A
 Frequencies --    504.6886               538.4584               571.9908
 Red. masses --      2.7122                 6.9233                 3.0720
 Frc consts  --      0.4070                 1.1827                 0.5922
 IR Inten    --     11.2592                 2.1032                 0.6193

                     31                     32                     33
                      A                      A                      A
 Frequencies --    605.2241               646.6403               707.6568
 Red. masses --      4.3992                 3.7811                 2.6172
 Frc consts  --      0.9494                 0.9315                 0.7722
 IR Inten    --      0.6655                 1.0002                 5.3612

                     34                     35                     36
                      A                      A                      A
 Frequencies --    711.6623               755.3932               795.6696
 Red. masses --      2.6632                 3.0277                 1.3732
 Frc consts  --      0.7947                 1.0179                 0.5122
 IR Inten    --      5.7425                 3.7844                57.9990

                     37                     38                     39
                      A                      A                      A
 Frequencies --    807.8824               848.3516               862.9446
 Red. masses --      1.5157                 1.5224                 2.6436
 Frc consts  --      0.5829                 0.6456                 1.1599
 IR Inten    --     38.2901                17.2184                 5.3170

                     40                     41                     42
                      A                      A                      A
 Frequencies --    891.7631               905.6678               929.3125
 Red. masses --      1.4311                 1.9030                 1.7140
 Frc consts  --      0.6705                 0.9197                 0.8722
 IR Inten    --      0.1071                10.5772                 3.1554

                     43                     44                     45
                      A                      A                      A
 Frequencies --    937.3386               948.3402               954.8495
 Red. masses --      1.5008                 1.5055                 2.2599
 Frc consts  --      0.7769                 0.7977                 1.2140
 IR Inten    --      1.4009                 1.8260                19.8317

                     46                     47                     48
                      A                      A                      A
 Frequencies --    959.9218               970.4666               980.4299
 Red. masses --      1.5472                 1.2583                 1.4698
 Frc consts  --      0.8400                 0.6982                 0.8324
 IR Inten    --      1.8747                 1.3450                 0.3698

                     49                     50                     51
                      A                      A                      A
 Frequencies --   1003.6254              1019.2320              1031.8519
 Red. masses --      1.4670                 5.7731                 1.5209
 Frc consts  --      0.8706                 3.5335                 0.9541
 IR Inten    --      9.5452                 3.5984                 5.3680

                     52                     53                     54
                      A                      A                      A
 Frequencies --   1051.5509              1088.5025              1104.7088
 Red. masses --      1.9883                 2.0753                 1.8412
 Frc consts  --      1.2954                 1.4487                 1.3239
 IR Inten    --      4.5343                 4.9322                 2.2689

                     55                     56                     57
                      A                      A                      A
 Frequencies --   1115.6768              1123.9364              1149.8781
 Red. masses --      1.5625                 1.8303                 2.5529
 Frc consts  --      1.1459                 1.3622                 1.9888
 IR Inten    --      3.9167                 2.8615                21.0889

                     58                     59                     60
                      A                      A                      A
 Frequencies --   1165.4400              1197.5015              1198.9873
 Red. masses --      2.1703                 1.1911                 1.8737
 Frc consts  --      1.7368                 1.0064                 1.5870
 IR Inten    --     92.6105                13.1772                13.9645

                     61                     62                     63
                      A                      A                      A
 Frequencies --   1204.1200              1218.2359              1229.8772
 Red. masses --      1.6104                 1.3876                 2.1818
 Frc consts  --      1.3757                 1.2134                 1.9444
 IR Inten    --     13.7406               142.4582                 2.8881

                     64                     65                     66
                      A                      A                      A
 Frequencies --   1250.2248              1279.1477              1315.2825
 Red. masses --      2.3783                 2.4750                 1.8007
 Frc consts  --      2.1902                 2.3860                 1.8354
 IR Inten    --      5.2771                 1.6644                15.7305

                     67                     68                     69
                      A                      A                      A
 Frequencies --   1323.7834              1338.7185              1358.8472
 Red. masses --      2.0647                 1.5927                 1.3204
 Frc consts  --      2.1318                 1.6817                 1.4365
 IR Inten    --     57.5145                33.5496                20.0425

                     70                     71                     72
                      A                      A                      A
 Frequencies --   1364.9774              1371.2266              1380.3219
 Red. masses --      1.6141                 1.5290                 2.0348
 Frc consts  --      1.7718                 1.6938                 2.2842
 IR Inten    --      1.2979                 2.8945                 4.0569

                     73                     74                     75
                      A                      A                      A
 Frequencies --   1397.6357              1421.0989              1426.2427
 Red. masses --      1.4307                 1.2797                 1.2914
 Frc consts  --      1.6465                 1.5226                 1.5477
 IR Inten    --      7.7546                 1.0441                 2.7446

                     76                     77                     78
                      A                      A                      A
 Frequencies --   1429.6021              1434.0925              1441.4917
 Red. masses --      1.2501                 1.2484                 1.2357
 Frc consts  --      1.5053                 1.5127                 1.5129
 IR Inten    --      8.2011                 5.3723                11.7850

                     79                     80                     81
                      A                      A                      A
 Frequencies --   1459.9432              1497.3321              1503.3667
 Red. masses --      1.2520                 2.4221                 1.2007
 Frc consts  --      1.5722                 3.1995                 1.5989
 IR Inten    --      8.0680                49.9113                61.2768

                     82                     83                     84
                      A                      A                      A
 Frequencies --   1515.0007              1520.8307              1523.6492
 Red. masses --      1.0503                 1.0691                 1.0580
 Frc consts  --      1.4203                 1.4569                 1.4471
 IR Inten    --      0.2091                 5.1324                 4.5047

                     85                     86                     87
                      A                      A                      A
 Frequencies --   1524.5093              1529.9799              1532.1600
 Red. masses --      1.0784                 1.0530                 1.0791
 Frc consts  --      1.4767                 1.4523                 1.4925
 IR Inten    --     12.0892                 1.6416                13.5260

                     88                     89                     90
                      A                      A                      A
 Frequencies --   1536.2873              1541.8351              1548.0464
 Red. masses --      1.0527                 1.0753                 1.0631
 Frc consts  --      1.4639                 1.5061                 1.5011
 IR Inten    --     15.8436                20.5481                 4.9786

                     91                     92                     93
                      A                      A                      A
 Frequencies --   1552.7097              1558.0186              1558.8725
 Red. masses --      1.0585                 1.6624                 1.3286
 Frc consts  --      1.5035                 2.3776                 1.9023
 IR Inten    --      5.1068                 5.5394                 3.3119

                     94                     95                     96
                      A                      A                      A
 Frequencies --   1661.8371              1670.1767              2940.0762
 Red. masses --      5.8648                 5.9984                 1.0733
 Frc consts  --      9.5430                 9.8585                 5.4665
 IR Inten    --     42.0242                84.6033                72.2576

                     97                     98                     99
                      A                      A                      A
 Frequencies --   2999.3515              3029.1153              3041.7791
 Red. masses --      1.0831                 1.0834                 1.0361
 Frc consts  --      5.7407                 5.8568                 5.6484
 IR Inten    --     37.1731                13.0801                15.7014

                    100                    101                    102
                      A                      A                      A
 Frequencies --   3047.0910              3049.8658              3050.2623
 Red. masses --      1.0361                 1.0371                 1.0365
 Frc consts  --      5.6678                 5.6839                 5.6819
 IR Inten    --     37.4240                26.2117                34.6232

                    103                    104                    105
                      A                      A                      A
 Frequencies --   3056.0483              3076.3166              3101.8712
 Red. masses --      1.0399                 1.0854                 1.1022
 Frc consts  --      5.7222                 6.0519                 6.2484
 IR Inten    --     18.9377                25.7692                 5.9512

                    106                    107                    108
                      A                      A                      A
 Frequencies --   3109.0308              3110.1374              3112.5561
 Red. masses --      1.1003                 1.1013                 1.1003
 Frc consts  --      6.2666                 6.2764                 6.2805
 IR Inten    --     12.3470                68.0475                51.3863

                    109                    110                    111
                      A                      A                      A
 Frequencies --   3118.9492              3119.4184              3122.4336
 Red. masses --      1.1014                 1.1009                 1.0985
 Frc consts  --      6.3124                 6.3116                 6.3099
 IR Inten    --     22.1672                38.1198                46.9380

                    112                    113                    114
                      A                      A                      A
 Frequencies --   3125.3616              3128.1322              3153.1999
 Red. masses --      1.1012                 1.1022                 1.0892
 Frc consts  --      6.3377                 6.3547                 6.3806
 IR Inten    --     38.7878                39.1311                25.8095

                    115                    116                    117
                      A                      A                      A
 Frequencies --   3155.2980              3190.1365              3219.4029
 Red. masses --      1.1002                 1.0880                 1.0931
 Frc consts  --      6.4537                 6.5239                 6.6754
 IR Inten    --     17.1156                12.7701                11.7632

                    118                    119                    120
                      A                      A                      A
 Frequencies --   3236.6231              3489.5089              3750.8337
 Red. masses --      1.0912                 1.0728                 1.0658
 Frc consts  --      6.7348                 7.6967                 8.8348
 IR Inten    --      6.4969                 0.6956                33.3352

 - Thermochemistry -
 -------------------
 Temperature   298.150 Kelvin.  Pressure   1.00000 Atm.
 Atom     1 has atomic number  6 and mass  12.00000

 Molecular mass:   235.19361 amu.
 Principal axes and moments of inertia in atomic units:
                           1         2         3
     Eigenvalues --  1956.995778505.402339213.05657
           X            0.99999  -0.00381   0.00172
           Y            0.00380   0.99999   0.00218
           Z           -0.00172  -0.00217   1.00000
 This molecule is an asymmetric top.
 Rotational symmetry number  1.
 Warning -- assumption of classical behavior for rotation
           may cause significant error
 Rotational temperatures (Kelvin)      0.04426     0.01018     0.00940
 Rotational constants (GHZ):           0.92220     0.21219     0.19589
 Zero-point vibrational energy     993666.1 (Joules/Mol)
                                  237.49189 (Kcal/Mol)
 Warning -- explicit consideration of  31 degrees of freedom as
           vibrations may cause significant error
 Vibrational temperatures:     29.33    34.11    64.53    96.18   148.81
          (Kelvin)            174.98   232.92   254.07   314.50   331.35
                              341.26   351.54   358.71   376.05   405.28
                              413.77   461.18   485.14   511.78   519.14
                              550.09   551.69   592.01   613.51   641.29
                              665.06   682.87   726.13   774.72   822.97
                              870.78   930.37  1018.16  1023.92  1086.84
                             1144.79  1162.36  1220.59  1241.58  1283.05
                             1303.05  1337.07  1348.62  1364.45  1373.82
                             1381.11  1396.28  1410.62  1443.99  1466.45
                             1484.60  1512.95  1566.11  1589.43  1605.21
                             1617.09  1654.42  1676.81  1722.94  1725.08
                             1732.46  1752.77  1769.52  1798.79  1840.41
                             1892.40  1904.63  1926.12  1955.08  1963.90
                             1972.89  1985.98  2010.89  2044.64  2052.05
                             2056.88  2063.34  2073.99  2100.53  2154.33
                             2163.01  2179.75  2188.14  2192.19  2193.43
                             2201.30  2204.44  2210.37  2218.36  2227.29
                             2234.00  2241.64  2242.87  2391.01  2403.01
                             4230.11  4315.40  4358.22  4376.44  4384.08
                             4388.08  4388.65  4396.97  4426.13  4462.90
                             4473.20  4474.79  4478.27  4487.47  4488.15
                             4492.49  4496.70  4500.68  4536.75  4539.77
                             4589.89  4632.00  4656.78  5020.63  5396.61

 Zero-point correction=                           0.378467 (Hartree/Particle)
 Thermal correction to Energy=                    0.397187
 Thermal correction to Enthalpy=                  0.398131
 Thermal correction to Gibbs Free Energy=         0.331373
 Sum of electronic and zero-point Energies=           -716.321592
 Sum of electronic and thermal Energies=              -716.302873
 Sum of electronic and thermal Enthalpies=            -716.301929
 Sum of electronic and thermal Free Energies=         -716.368687

                     E (Thermal)             CV                S
                      KCal/Mol        Cal/Mol-Kelvin    Cal/Mol-Kelvin
 Total                  249.239             72.928            140.505
 Electronic               0.000              0.000              0.000
 Translational            0.889              2.981             42.267
 Rotational               0.889              2.981             33.394
 Vibrational            247.461             66.966             64.843
 Vibration     1          0.593              1.986              6.596
 Vibration     2          0.593              1.985              6.296
 Vibration     3          0.595              1.979              5.032
 Vibration     4          0.598              1.970              4.244
 Vibration     5          0.605              1.946              3.389
 Vibration     6          0.609              1.931              3.075
 Vibration     7          0.622              1.889              2.528
 Vibration     8          0.628              1.871              2.364
 Vibration     9          0.646              1.813              1.971
 Vibration    10          0.652              1.795              1.877
 Vibration    11          0.656              1.784              1.824
 Vibration    12          0.660              1.772              1.771
 Vibration    13          0.662              1.764              1.735
 Vibration    14          0.669              1.743              1.653
 Vibration    15          0.681              1.708              1.523
 Vibration    16          0.685              1.697              1.488
 Vibration    17          0.706              1.634              1.307
 Vibration    18          0.718              1.601              1.225
 Vibration    19          0.731              1.564              1.141
 Vibration    20          0.735              1.553              1.119
 Vibration    21          0.752              1.508              1.030
 Vibration    22          0.753              1.506              1.026
 Vibration    23          0.775              1.445              0.921
 Vibration    24          0.788              1.413              0.870
 Vibration    25          0.805              1.370              0.809
 Vibration    26          0.820              1.334              0.760
 Vibration    27          0.831              1.306              0.725
 Vibration    28          0.860              1.240              0.647
 Vibration    29          0.893              1.165              0.569
 Vibration    30          0.928              1.092              0.500
 Vibration    31          0.964              1.021              0.441

 Optimization completed.
    -- Stationary point found.
 Normal termination of Gaussian 16 at Fri Dec 11 12:18:44 2020.

 ----------------------------------------------------------------------
 # B3LYP/6-311++G(d,p) empiricaldispersion=gd3bj scf=xqc pop=npa geom=c
 heck
 ----------------------------------------------------------------------

 ---------------------------------------
 CID_105691118_JID_7144_Energie_neutraal
 ---------------------------------------
 Structure from the checkpoint file:  "JID_7144.chk"
 Charge =  0 Multiplicity = 1

 SCF Done:  E(RB3LYP) =  -716.906403838     A.U. after   14 cycles
 Normal termination of Gaussian 16 at Fri Dec 11 12:28:04 2020.

 ----------------------------------------------------------------------
 # B3LYP/6-311++G(d,p) empiricaldispersion=gd3bj scf=xqc pop=npa geom=c
 heck
 ----------------------------------------------------------------------

 -------------------------------------
 CID_105691118_JID_7144_Energie_kation
 -------------------------------------
 Structure from the checkpoint file:  "JID_7144.chk"
 Charge =  1 Multiplicity = 2

 SCF Done:  E(UB3LYP) =  -716.619766137     A.U. after   25 cycles
 Normal termination of Gaussian 16 at Fri Dec 11 12:57:35 2020.
 Gaussian 16:  ES64L-G16RevA.03 25-Dec-2016

 ----------------------------------------------------------------------
 # B3LYP/6-311++G(d,p) empiricaldispersion=gd3bj scf=xqc pop=npa geom=c
 heck
 ----------------------------------------------------------------------

 ------------------------------------
 CID_105691118_JID_7144_Energie_anion
 ------------------------------------
 Structure from the checkpoint file:  "JID_7144.chk"
 Charge = -1 Multiplicity = 2

                         Standard orientation:
 ---------------------------------------------------------------------
 Center     Atomic      Atomic             Coordinates (Angstroms)
 Number     Number       Type             X           Y           Z
 ---------------------------------------------------------------------
      1          6           0        2.649975   -1.131693    1.981303
      2          6           0        3.133787   -1.164752    0.523381
      3          6           0        2.336023   -2.236241   -0.237761
      4          6           0        3.163109    0.253956   -0.142874
      5          6           0        4.362989    1.039768    0.425301
      6          6           0        3.366347    0.143183   -1.665141
      7          6           0        1.902020    1.095833    0.152655
      8          7           0        0.659873    0.474754   -0.296797
      9          6           0       -0.560536    1.163121    0.126319
     10          6           0       -0.767342    2.522109   -0.575991
     11          6           0       -1.787166    0.275401   -0.054137
     12          6           0       -3.011852    0.693830    0.482732
     13          6           0       -4.163878   -0.076111    0.321860
     14          6           0       -4.111945   -1.280734   -0.387210
     15          6           0       -2.895847   -1.697417   -0.915761
     16          6           0       -1.736810   -0.933118   -0.751794
     17          8           0       -5.374938    0.297889    0.839582
     18          1           0        1.574871   -0.926842    2.025176
     19          1           0        3.169041   -0.378104    2.583189
     20          1           0        2.819888   -2.104233    2.456859
     21          1           0        4.182935   -1.498369    0.531383
     22          1           0        1.279193   -1.964708   -0.287944
     23          1           0        2.708806   -2.388638   -1.255411
     24          1           0        2.418806   -3.196720    0.285105
     25          1           0        5.304340    0.530424    0.190207
     26          1           0        4.412197    2.047039   -0.005046
     27          1           0        4.303537    1.147672    1.513463
     28          1           0        2.524249   -0.340492   -2.169492
     29          1           0        3.496946    1.138759   -2.106692
     30          1           0        4.263014   -0.443819   -1.896824
     31          1           0        1.816290    1.243401    1.235126
     32          1           0        2.064131    2.100595   -0.280425
     33          1           0        0.664751    0.406504   -1.312973
     34          1           0       -0.443473    1.350138    1.202849
     35          1           0       -0.895040    2.368870   -1.654443
     36          1           0       -1.658572    3.039812   -0.207618
     37          1           0        0.093462    3.180042   -0.418348
     38          1           0       -3.068103    1.627186    1.041909
     39          1           0       -5.018242   -1.865782   -0.502745
     40          1           0       -2.845503   -2.636430   -1.460294
     41          1           0       -0.793067   -1.288175   -1.146534
     42          1           0       -5.267299    1.142679    1.303152
 ---------------------------------------------------------------------

 SCF Done:  E(UB3LYP) =  -716.896267322     A.U. after   33 cycles
 SCF Done:  E(UB3LYP) =  -716.896267322     a.u. after    1 cycles

 The electronic state is 2-A.
 Alpha  occ. eigenvalues --  -19.05557 -14.20357 -10.14090 -10.11267 -10.09656
 Alpha  occ. eigenvalues --  -10.09286 -10.08851 -10.08436 -10.08220 -10.07595
 Alpha  occ. eigenvalues --  -10.07428 -10.07114 -10.06932 -10.06791 -10.06508
 Alpha  occ. eigenvalues --  -10.06504 -10.05982  -0.96587  -0.82333  -0.76070
 Alpha  occ. eigenvalues --   -0.73650  -0.68133  -0.66473  -0.64517  -0.62866
 Alpha  occ. eigenvalues --   -0.60714  -0.58102  -0.57573  -0.53748  -0.52648
 Alpha  occ. eigenvalues --   -0.51295  -0.48618  -0.45098  -0.43694  -0.40754
 Alpha  occ. eigenvalues --   -0.39804  -0.38052  -0.37536  -0.36439  -0.35289
 Alpha  occ. eigenvalues --   -0.34321  -0.33910  -0.33592  -0.32370  -0.32185
 Alpha  occ. eigenvalues --   -0.31324  -0.30594  -0.30458  -0.29322  -0.28994
 Alpha  occ. eigenvalues --   -0.28498  -0.28102  -0.27783  -0.27177  -0.26553
 Alpha  occ. eigenvalues --   -0.26308  -0.25209  -0.24035  -0.23717  -0.22354
 Alpha  occ. eigenvalues --   -0.22210  -0.21960  -0.15753  -0.13532  -0.13122
 Alpha  occ. eigenvalues --    0.03976
 Alpha virt. eigenvalues --    0.05445   0.06767   0.06879   0.07252   0.07723
 Alpha virt. eigenvalues --    0.08068   0.08712   0.09090   0.09504   0.09541
 Alpha virt. eigenvalues --    0.09760   0.10285   0.11237   0.11320   0.11894

  Beta  occ. eigenvalues --  -19.05510 -14.20351 -10.14094 -10.11260 -10.09640
  Beta  occ. eigenvalues --  -10.09284 -10.08845 -10.08430 -10.08213 -10.07579
  Beta  occ. eigenvalues --  -10.07389 -10.07110 -10.06908 -10.06769 -10.06497
  Beta  occ. eigenvalues --  -10.06475 -10.05973  -0.96496  -0.82317  -0.76041
  Beta  occ. eigenvalues --   -0.73634  -0.68103  -0.66450  -0.64475  -0.62826
  Beta  occ. eigenvalues --   -0.60680  -0.58066  -0.57531  -0.53699  -0.52589
  Beta  occ. eigenvalues --   -0.51259  -0.48575  -0.45045  -0.43649  -0.40712
  Beta  occ. eigenvalues --   -0.39771  -0.38021  -0.37506  -0.36408  -0.35261
  Beta  occ. eigenvalues --   -0.34292  -0.33881  -0.33548  -0.32346  -0.32152
  Beta  occ. eigenvalues --   -0.31289  -0.30574  -0.30430  -0.29285  -0.28979
  Beta  occ. eigenvalues --   -0.28469  -0.28077  -0.27762  -0.27138  -0.26525
  Beta  occ. eigenvalues --   -0.26285  -0.25183  -0.24005  -0.23679  -0.22332
  Beta  occ. eigenvalues --   -0.22183  -0.21944  -0.15685  -0.13506  -0.13091
  Beta virt. eigenvalues --    0.05826   0.06895   0.07022   0.07172   0.07669
  Beta virt. eigenvalues --    0.08014   0.08299   0.08918   0.09220   0.09592
  Beta virt. eigenvalues --    0.09772   0.10033   0.10450   0.11315   0.11563

 Mulliken charges and spin densities:
               1          2
     1  C   -0.303076  -0.407149
     2  C    0.280204   0.343672
     3  C   -0.499735  -0.359492
     4  C   -0.204698   0.759270
     5  C    0.147913  -0.702670
     6  C    0.302720  -0.911744
     7  C   -0.763682  -0.046746
     8  N    0.235008   0.029852
     9  C    0.437291  -0.888722
    10  C    0.423214  -1.110742
    11  C    0.637377   0.885704
    12  C   -1.439783   1.047233
    13  C    1.519114  -2.192068
    14  C    1.269856  -1.210340
    15  C   -0.973170   0.474886
    16  C   -0.931901   0.635489
    17  O   -0.286603   0.054237
    18  H    0.088640   0.077870
    19  H    0.052145   0.067908
    20  H    0.058947   0.074779
    21  H   -0.018831   0.194619
    22  H    0.138256   0.004636
    23  H    0.029845   0.101907
    24  H    0.049660   0.076960
    25  H   -0.109456   0.265973
    26  H   -0.199113   0.340031
    27  H    0.004603   0.120798
    28  H   -0.023849   0.133474
    29  H   -0.090091   0.243060
    30  H   -0.098086   0.261997
    31  H   -0.062531   0.215769
    32  H    0.442940  -0.312839
    33  H    0.208308   0.003258
    34  H    0.126465   0.029744
    35  H    0.027889   0.118710
    36  H   -0.260161   0.403186
    37  H   -0.299620   0.444975
    38  H   -0.900513   1.065758
    39  H    0.169300  -0.007416
    40  H    0.078098   0.080181
    41  H    0.038813   0.008082
    42  H   -0.301706   0.585910
 Sum of Mulliken charges =  -1.00000   1.00000

 Dipole moment (field-independent basis, Debye):
    X=              3.2191    Y=             -5.0232    Z=             -2.1744  Tot=              6.3500
 Quadrupole moment (field-independent basis, Debye-Ang):
   XX=           -215.1764   YY=           -153.7406   ZZ=           -141.6502
   XY=             13.5831   XZ=             15.1926   YZ=             -3.5035

 Summary of Natural Population Analysis:

                                       Natural Population
                Natural  -----------------------------------------------
    Atom  No    Charge         Core      Valence    Rydberg      Total
 -----------------------------------------------------------------------
      C    1   -0.28730      0.99964     2.28261    0.00505     3.28730
      C    2   -0.10601      0.99957     2.09498    0.01146     3.10601
      C    3   -0.28831      0.99964     2.28355    0.00512     3.28831
      C    4   -0.04355      0.99956     2.03029    0.01370     3.04355
      C    5   -0.28362      0.99963     2.27667    0.00733     3.28362
      C    6   -0.28885      0.99963     2.28166    0.00757     3.28885
      C    7   -0.08446      0.99956     2.07274    0.01216     3.08446
      N    8   -0.34391      0.99974     2.83348    0.01069     3.84391
      C    9   -0.01447      0.99957     2.00209    0.01281     3.01447
      C   10   -0.28926      0.99964     2.28430    0.00533     3.28926
      C   11    0.00057      0.99950     1.98886    0.01107     2.99943
      C   12   -0.13606      0.99947     2.12654    0.01005     3.13606
      C   13    0.16124      0.99939     1.82535    0.01402     2.83876
      C   14   -0.13111      0.99952     2.12247    0.00913     3.13111
      C   15   -0.09144      0.99957     2.08291    0.00896     3.09144
      C   16   -0.12221      0.99950     2.11447    0.00824     3.12221
      O   17   -0.34196      0.99988     3.33513    0.00696     4.34196
      H   18    0.10309      0.00000     0.39582    0.00109     0.39691
      H   19    0.09747      0.00000     0.40170    0.00083     0.40253
      H   20    0.09717      0.00000     0.40205    0.00078     0.40283
      H   21    0.09100      0.00000     0.40732    0.00168     0.40900
      H   22    0.10875      0.00000     0.38994    0.00132     0.39125
      H   23    0.09677      0.00000     0.40239    0.00084     0.40323
      H   24    0.09460      0.00000     0.40454    0.00086     0.40540
      H   25    0.09952      0.00000     0.39945    0.00103     0.40048
      H   26    0.10060      0.00000     0.39841    0.00099     0.39940
      H   27    0.09980      0.00000     0.39929    0.00090     0.40020
      H   28    0.09838      0.00000     0.40057    0.00105     0.40162
      H   29    0.10126      0.00000     0.39781    0.00093     0.39874
      H   30    0.10123      0.00000     0.39788    0.00089     0.39877
      H   31    0.09631      0.00000     0.40219    0.00150     0.40369
      H   32    0.08374      0.00000     0.41468    0.00158     0.41626
      H   33    0.17101      0.00000     0.32619    0.00280     0.32899
      H   34    0.09765      0.00000     0.40041    0.00194     0.40235
      H   35    0.09640      0.00000     0.40255    0.00105     0.40360
      H   36    0.10451      0.00000     0.39417    0.00132     0.39549
      H   37    0.10059      0.00000     0.39831    0.00110     0.39941
      H   38    0.10524      0.00000     0.39188    0.00288     0.39476
      H   39    0.10343      0.00000     0.39575    0.00082     0.39657
      H   40    0.09717      0.00000     0.40209    0.00074     0.40283
      H   41    0.10467      0.00000     0.39377    0.00156     0.39533
      H   42    0.24035      0.00000     0.25019    0.00946     0.25965
 =======================================================================
   * Total *   -0.00000     16.99299    47.80744    0.19957    65.00000

 Normal termination of Gaussian 16 at Fri Dec 11 13:30:06 2020.
