 Gaussian 16, Revision A.03,

 -----------------------------------------------------------
 # opt freq B3LYP/6-31G(d) empiricaldispersion=gd3bj scf=xqc
 -----------------------------------------------------------

 -------------------------------
 CID_148736289_JID_5311_neutraal
 -------------------------------
 Symbolic Z-matrix:
 Charge =  0 Multiplicity = 1

 SCF Done:  E(RB3LYP) =  -651.518141990     A.U. after   14 cycles
 SCF Done:  E(RB3LYP) =  -651.527702620     A.U. after   13 cycles
 SCF Done:  E(RB3LYP) =  -651.525336546     A.U. after   13 cycles
 SCF Done:  E(RB3LYP) =  -651.529940543     A.U. after   12 cycles
 SCF Done:  E(RB3LYP) =  -651.530693363     A.U. after   12 cycles
 SCF Done:  E(RB3LYP) =  -651.530865879     A.U. after   12 cycles
 SCF Done:  E(RB3LYP) =  -651.530987058     A.U. after   12 cycles
 SCF Done:  E(RB3LYP) =  -651.531125675     A.U. after   12 cycles
 SCF Done:  E(RB3LYP) =  -651.530997601     A.U. after   12 cycles
 SCF Done:  E(RB3LYP) =  -651.531376152     A.U. after   12 cycles
 SCF Done:  E(RB3LYP) =  -651.533830458     A.U. after    9 cycles
 SCF Done:  E(RB3LYP) =  -651.533835721     A.U. after    9 cycles
 SCF Done:  E(RB3LYP) =  -651.533836777     A.U. after    8 cycles
 SCF Done:  E(RB3LYP) =  -651.533836924     A.U. after    7 cycles
 SCF Done:  E(RB3LYP) =  -651.533836985     A.U. after    7 cycles
 Optimization completed.
    -- Stationary point found.
 Normal termination of Gaussian 16 at Thu Dec 10 15:45:50 2020.

 --------------------------------------------------------------------
 #N Geom=AllCheck Guess=TCheck SCRF=Check GenChk RB3LYP/6-31G(d) Freq
 --------------------------------------------------------------------

 Structure from the checkpoint file:  "JID_5311.chk"
 -------------------------------
 CID_148736289_JID_5311_neutraal
 -------------------------------
 Charge =  0 Multiplicity = 1

 SCF Done:  E(RB3LYP) =  -651.533836985     A.U. after    1 cycles

  Exact polarizability: 180.604   7.018 127.007  -3.800  -1.381 101.172
 Approx polarizability: 252.142  21.051 197.894  -5.360  -0.610 159.494

                      1                      2                      3
                      A                      A                      A
 Frequencies --     40.8024                86.0096                90.7720
 Red. masses --      4.1145                 4.4987                 3.4215
 Frc consts  --      0.0040                 0.0196                 0.0166
 IR Inten    --      1.2961                 1.7230                 0.8986

                      4                      5                      6
                      A                      A                      A
 Frequencies --    142.9531               186.2768               251.3938
 Red. masses --      2.8128                 5.5261                 3.1567
 Frc consts  --      0.0339                 0.1130                 0.1175
 IR Inten    --      1.7387                 2.7398                 0.7713

                      7                      8                      9
                      A                      A                      A
 Frequencies --    288.9336               310.5507               354.5382
 Red. masses --      3.2981                 3.6715                 3.8169
 Frc consts  --      0.1622                 0.2086                 0.2827
 IR Inten    --      3.5867                 0.4623                 1.6238

                     10                     11                     12
                      A                      A                      A
 Frequencies --    361.3900               406.2211               417.1166
 Red. masses --      4.2532                 2.3424                 1.3177
 Frc consts  --      0.3273                 0.2277                 0.1351
 IR Inten    --      1.4302                 5.0888                43.0215

                     13                     14                     15
                      A                      A                      A
 Frequencies --    427.6212               494.0085               500.3629
 Red. masses --      2.9547                 4.5883                 1.5213
 Frc consts  --      0.3183                 0.6597                 0.2244
 IR Inten    --      3.1091                 0.4742                65.0074

                     16                     17                     18
                      A                      A                      A
 Frequencies --    516.8634               586.0702               595.8917
 Red. masses --      4.8183                 2.4668                 2.8139
 Frc consts  --      0.7584                 0.4992                 0.5887
 IR Inten    --      1.4593                35.8515                66.4322

                     19                     20                     21
                      A                      A                      A
 Frequencies --    603.9761               623.8332               651.2022
 Red. masses --      2.0221                 2.9157                 1.5067
 Frc consts  --      0.4346                 0.6685                 0.3765
 IR Inten    --     32.2531                33.2610                43.5806

                     22                     23                     24
                      A                      A                      A
 Frequencies --    668.4452               692.6805               740.3568
 Red. masses --      3.2210                 1.4975                 3.7778
 Frc consts  --      0.8479                 0.4233                 1.2200
 IR Inten    --     40.7559               110.7116                 1.5018

                     25                     26                     27
                      A                      A                      A
 Frequencies --    775.0002               790.2809               805.6269
 Red. masses --      4.8967                 3.7120                 3.3623
 Frc consts  --      1.7328                 1.3659                 1.2858
 IR Inten    --      6.6477                21.1958                38.2883

                     28                     29                     30
                      A                      A                      A
 Frequencies --    829.7018               839.0077               862.1371
 Red. masses --      3.3368                 3.1438                 2.3877
 Frc consts  --      1.3534                 1.3039                 1.0456
 IR Inten    --      3.7444                 4.5124                 1.8688

                     31                     32                     33
                      A                      A                      A
 Frequencies --    880.5431               887.9489               895.7705
 Red. masses --      2.5016                 2.7295                 2.0748
 Frc consts  --      1.1428                 1.2680                 0.9809
 IR Inten    --      4.8230                 2.1754                 0.1888

                     34                     35                     36
                      A                      A                      A
 Frequencies --    909.0263               946.7623               969.6826
 Red. masses --      2.7582                 2.6456                 1.5592
 Frc consts  --      1.3429                 1.3972                 0.8638
 IR Inten    --      9.7278                 1.3911                 0.9317

                     37                     38                     39
                      A                      A                      A
 Frequencies --    980.9357               995.5298              1025.0873
 Red. masses --      1.3686                 1.5644                 1.6085
 Frc consts  --      0.7759                 0.9135                 0.9958
 IR Inten    --     27.8213                 2.6807                 3.2384

                     40                     41                     42
                      A                      A                      A
 Frequencies --   1052.9224              1066.3459              1073.4550
 Red. masses --      1.1011                 1.3676                 1.4084
 Frc consts  --      0.7192                 0.9162                 0.9562
 IR Inten    --     12.7155                 0.7118                 9.1863

                     43                     44                     45
                      A                      A                      A
 Frequencies --   1101.2011              1119.7468              1134.3191
 Red. masses --      1.8213                 1.4258                 1.2866
 Frc consts  --      1.3013                 1.0533                 0.9753
 IR Inten    --      3.3549                 6.3278                 0.4999

                     46                     47                     48
                      A                      A                      A
 Frequencies --   1161.8474              1176.8647              1188.7242
 Red. masses --      1.7537                 2.0482                 1.5952
 Frc consts  --      1.3947                 1.6714                 1.3281
 IR Inten    --     39.3884                 3.2214                 5.6331

                     49                     50                     51
                      A                      A                      A
 Frequencies --   1206.1637              1220.4840              1232.7755
 Red. masses --      1.5535                 2.0240                 2.4390
 Frc consts  --      1.3316                 1.7763                 2.1839
 IR Inten    --      2.6700                 6.4379                35.3544

                     52                     53                     54
                      A                      A                      A
 Frequencies --   1241.0470              1257.2161              1274.7494
 Red. masses --      2.3038                 1.5976                 1.9712
 Frc consts  --      2.0906                 1.4878                 1.8872
 IR Inten    --     26.9001                 8.6259                 0.3815

                     55                     56                     57
                      A                      A                      A
 Frequencies --   1282.2652              1296.9865              1312.8270
 Red. masses --      1.5535                 1.9223                 1.4980
 Frc consts  --      1.5049                 1.9052                 1.5212
 IR Inten    --     11.8171                 6.4497                 1.1755

                     58                     59                     60
                      A                      A                      A
 Frequencies --   1319.5220              1334.6175              1383.2292
 Red. masses --      1.6183                 1.3282                 2.5497
 Frc consts  --      1.6601                 1.3939                 2.8743
 IR Inten    --      6.1376                 2.9463                32.7197

                     61                     62                     63
                      A                      A                      A
 Frequencies --   1394.9230              1419.6357              1445.9749
 Red. masses --      2.7093                 1.2145                 1.2540
 Frc consts  --      3.1060                 1.4421                 1.5448
 IR Inten    --     51.4533                16.1712                40.2068

                     64                     65                     66
                      A                      A                      A
 Frequencies --   1471.0768              1490.8519              1537.3741
 Red. masses --      1.3911                 1.3212                 1.1017
 Frc consts  --      1.7737                 1.7302                 1.5342
 IR Inten    --     18.2276                 6.3630                34.3584

                     67                     68                     69
                      A                      A                      A
 Frequencies --   1561.0560              1582.0878              1650.4911
 Red. masses --      1.1262                 1.0954                 1.4021
 Frc consts  --      1.6170                 1.6154                 2.2504
 IR Inten    --     62.6833                30.3664                45.8148

                     70                     71                     72
                      A                      A                      A
 Frequencies --   1685.7076              1735.0199              3042.4142
 Red. masses --      3.6229                 4.5510                 1.0842
 Frc consts  --      6.0655                 8.0718                 5.9129
 IR Inten    --    193.4693               248.9325                14.3432

                     73                     74                     75
                      A                      A                      A
 Frequencies --   3068.5145              3075.2528              3082.1380
 Red. masses --      1.0800                 1.0702                 1.0767
 Frc consts  --      5.9913                 5.9629                 6.0262
 IR Inten    --     27.0514                18.2185                71.7962

                     76                     77                     78
                      A                      A                      A
 Frequencies --   3087.1451              3098.7041              3105.2195
 Red. masses --      1.0749                 1.0809                 1.0559
 Frc consts  --      6.0358                 6.1152                 5.9988
 IR Inten    --     64.6550               161.6646                14.9391

                     79                     80                     81
                      A                      A                      A
 Frequencies --   3117.3261              3131.5483              3170.9097
 Red. masses --      1.1054                 1.1043                 1.0585
 Frc consts  --      6.3291                 6.3803                 6.2706
 IR Inten    --     56.0212                48.9806                 6.4894

                     82                     83                     84
                      A                      A                      A
 Frequencies --   3181.2407              3205.5543              3254.5951
 Red. masses --      1.1163                 1.0926                 1.1164
 Frc consts  --      6.6563                 6.6151                 6.9671
 IR Inten    --     10.3552                 2.0565                 7.7384

                     85                     86                     87
                      A                      A                      A
 Frequencies --   3409.7124              3555.2756              3667.4751
 Red. masses --      1.0665                 1.0469                 1.0999
 Frc consts  --      7.3054                 7.7967                 8.7161
 IR Inten    --    559.9740                21.6019                15.2475

 - Thermochemistry -
 -------------------
 Temperature   298.150 Kelvin.  Pressure   1.00000 Atm.
 Atom     1 has atomic number  6 and mass  12.00000

 Molecular mass:   204.12626 amu.
 Principal axes and moments of inertia in atomic units:
                           1         2         3
     Eigenvalues --  1534.386053753.396614399.69963
           X            0.99998  -0.00415  -0.00511
           Y            0.00414   0.99999  -0.00171
           Z            0.00512   0.00169   0.99999
 This molecule is an asymmetric top.
 Rotational symmetry number  1.
 Warning -- assumption of classical behavior for rotation
           may cause significant error
 Rotational temperatures (Kelvin)      0.05645     0.02308     0.01969
 Rotational constants (GHZ):           1.17620     0.48083     0.41020
 Zero-point vibrational energy     700388.7 (Joules/Mol)
                                  167.39691 (Kcal/Mol)
 Warning -- explicit consideration of  19 degrees of freedom as
           vibrations may cause significant error
 Vibrational temperatures:     58.71   123.75   130.60   205.68   268.01
          (Kelvin)            361.70   415.71   446.81   510.10   519.96
                              584.46   600.14   615.25   710.77   719.91
                              743.65   843.22   857.36   868.99   897.56
                              936.93   961.74   996.61  1065.21  1115.05
                             1137.04  1159.12  1193.76  1207.15  1240.42
                             1266.91  1277.56  1288.81  1307.89  1362.18
                             1395.16  1411.35  1432.35  1474.87  1514.92
                             1534.23  1544.46  1584.38  1611.07  1632.03
                             1671.64  1693.25  1710.31  1735.40  1756.00
                             1773.69  1785.59  1808.85  1834.08  1844.89
                             1866.07  1888.87  1898.50  1920.22  1990.16
                             2006.98  2042.54  2080.44  2116.55  2145.00
                             2211.94  2246.01  2276.27  2374.69  2425.36
                             2496.31  4377.36  4414.91  4424.60  4434.51
                             4441.71  4458.34  4467.72  4485.14  4505.60
                             4562.23  4577.10  4612.08  4682.64  4905.82
                             5115.25  5276.68

 Zero-point correction=                           0.266764 (Hartree/Particle)
 Thermal correction to Energy=                    0.279159
 Thermal correction to Enthalpy=                  0.280103
 Thermal correction to Gibbs Free Energy=         0.228360
 Sum of electronic and zero-point Energies=           -651.267073
 Sum of electronic and thermal Energies=              -651.254678
 Sum of electronic and thermal Enthalpies=            -651.253734
 Sum of electronic and thermal Free Energies=         -651.305477

                     E (Thermal)             CV                S
                      KCal/Mol        Cal/Mol-Kelvin    Cal/Mol-Kelvin
 Total                  175.175             52.233            108.902
 Electronic               0.000              0.000              0.000
 Translational            0.889              2.981             41.845
 Rotational               0.889              2.981             31.605
 Vibrational            173.397             46.272             35.452
 Vibration     1          0.594              1.981              5.220
 Vibration     2          0.601              1.959              3.749
 Vibration     3          0.602              1.956              3.643
 Vibration     4          0.616              1.910              2.764
 Vibration     5          0.632              1.859              2.265
 Vibration     6          0.663              1.760              1.721
 Vibration     7          0.685              1.694              1.480
 Vibration     8          0.699              1.654              1.359
 Vibration     9          0.730              1.566              1.146
 Vibration    10          0.736              1.552              1.116
 Vibration    11          0.771              1.457              0.940
 Vibration    12          0.780              1.433              0.902
 Vibration    13          0.789              1.410              0.866
 Vibration    14          0.850              1.263              0.673
 Vibration    15          0.856              1.249              0.657
 Vibration    16          0.872              1.213              0.617
 Vibration    17          0.943              1.062              0.474
 Vibration    18          0.954              1.041              0.457
 Vibration    19          0.962              1.023              0.443

 Optimization completed.
    -- Stationary point found.
 Normal termination of Gaussian 16 at Thu Dec 10 15:57:17 2020.

 ----------------------------------------------------------------------
 # B3LYP/6-311++G(d,p) empiricaldispersion=gd3bj scf=xqc pop=npa geom=c
 heck
 ----------------------------------------------------------------------

 ---------------------------------------
 CID_148736289_JID_5311_Energie_neutraal
 ---------------------------------------
 Structure from the checkpoint file:  "JID_5311.chk"
 Charge =  0 Multiplicity = 1

 SCF Done:  E(RB3LYP) =  -651.721130508     A.U. after   15 cycles
 Normal termination of Gaussian 16 at Thu Dec 10 16:02:14 2020.

 ----------------------------------------------------------------------
 # B3LYP/6-311++G(d,p) empiricaldispersion=gd3bj scf=xqc pop=npa geom=c
 heck
 ----------------------------------------------------------------------

 -------------------------------------
 CID_148736289_JID_5311_Energie_kation
 -------------------------------------
 Structure from the checkpoint file:  "JID_5311.chk"
 Charge =  1 Multiplicity = 2

 SCF Done:  E(UB3LYP) =  -651.435533921     A.U. after   31 cycles
 Normal termination of Gaussian 16 at Thu Dec 10 16:20:06 2020.
 Gaussian 16:  ES64L-G16RevA.03 25-Dec-2016

 ----------------------------------------------------------------------
 # B3LYP/6-311++G(d,p) empiricaldispersion=gd3bj scf=xqc pop=npa geom=c
 heck
 ----------------------------------------------------------------------

 ------------------------------------
 CID_148736289_JID_5311_Energie_anion
 ------------------------------------
 Structure from the checkpoint file:  "JID_5311.chk"
 Charge = -1 Multiplicity = 2

                         Standard orientation:
 ---------------------------------------------------------------------
 Center     Atomic      Atomic             Coordinates (Angstroms)
 Number     Number       Type             X           Y           Z
 ---------------------------------------------------------------------
      1          6           0        3.858648    1.522754    0.040731
      2          6           0        2.634538    1.020144   -0.147408
      3          6           0        2.277072   -0.396387    0.102460
      4          7           0        1.109859   -0.815084    0.449088
      5          6           0        0.063646    0.157300    0.719773
      6          6           0       -1.283221   -0.416686    1.260213
      7          6           0       -2.307252    0.843289    1.008263
      8          6           0       -1.405988    1.918030    0.319430
      9          6           0       -0.637385    0.856163   -0.470740
     10          6           0       -0.809100    0.359411   -1.878976
     11          6           0       -1.797478   -0.180892   -0.904384
     12          6           0       -3.057042    0.445497   -0.304704
     13          6           0       -1.648514   -1.375448    0.077267
     14          8           0       -0.794258   -2.441420   -0.216457
     15          7           0        3.313777   -1.306356   -0.006907
     16          1           0        4.673422    0.915019    0.424684
     17          1           0        4.075984    2.568137   -0.158054
     18          1           0        1.821931    1.651693   -0.493924
     19          1           0        0.459572    0.920541    1.398834
     20          1           0       -1.288780   -0.827501    2.275710
     21          1           0       -2.900162    1.137499    1.881681
     22          1           0       -0.753246    2.490717    0.985232
     23          1           0       -1.990828    2.630498   -0.267122
     24          1           0       -1.139013    1.062705   -2.643406
     25          1           0       -0.058392   -0.346561   -2.235216
     26          1           0       -3.862796   -0.284411   -0.189232
     27          1           0       -3.466821    1.315650   -0.823051
     28          1           0       -2.634562   -1.827448    0.220427
     29          1           0        0.117093   -2.142338    0.006983
     30          1           0        3.989707   -1.128516   -0.738091
     31          1           0        3.017962   -2.273292    0.059384
 ---------------------------------------------------------------------

 SCF Done:  E(UB3LYP) =  -651.721018272     A.U. after   33 cycles
 SCF Done:  E(UB3LYP) =  -651.721018272     a.u. after    1 cycles

 The electronic state is 2-A.
 Alpha  occ. eigenvalues --  -18.96909 -14.17368 -14.12649 -10.09847 -10.08103
 Alpha  occ. eigenvalues --  -10.07836 -10.07791 -10.07011 -10.06772 -10.06315
 Alpha  occ. eigenvalues --  -10.06073 -10.06021 -10.05953 -10.00685 -10.00140
 Alpha  occ. eigenvalues --   -0.88533  -0.81027  -0.79578  -0.72138  -0.67488
 Alpha  occ. eigenvalues --   -0.62846  -0.62290  -0.61089  -0.52358  -0.51682
 Alpha  occ. eigenvalues --   -0.47231  -0.46208  -0.43638  -0.41378  -0.39584
 Alpha  occ. eigenvalues --   -0.39092  -0.37966  -0.37250  -0.36370  -0.33534
 Alpha  occ. eigenvalues --   -0.30957  -0.30079  -0.29449  -0.28029  -0.27119
 Alpha  occ. eigenvalues --   -0.26845  -0.26570  -0.25230  -0.23496  -0.22459
 Alpha  occ. eigenvalues --   -0.21701  -0.21295  -0.20897  -0.20039  -0.18367
 Alpha  occ. eigenvalues --   -0.13360  -0.12651  -0.10804  -0.10128  -0.09545
 Alpha  occ. eigenvalues --    0.05582
 Alpha virt. eigenvalues --    0.07516   0.08841   0.09224   0.09266   0.10135
 Alpha virt. eigenvalues --    0.10657   0.11474   0.11863   0.12227   0.12798
 Alpha virt. eigenvalues --    0.13386   0.13841   0.14429   0.15338   0.15986

  Beta  occ. eigenvalues --  -18.96888 -14.17309 -14.12397 -10.09846 -10.08103
  Beta  occ. eigenvalues --  -10.07836 -10.07546 -10.07014 -10.06772 -10.06309
  Beta  occ. eigenvalues --  -10.06074 -10.06015 -10.05928 -10.00538  -9.99747
  Beta  occ. eigenvalues --   -0.88485  -0.80866  -0.79344  -0.71851  -0.67481
  Beta  occ. eigenvalues --   -0.62794  -0.62145  -0.60494  -0.52234  -0.51663
  Beta  occ. eigenvalues --   -0.46878  -0.45676  -0.43593  -0.41095  -0.39498
  Beta  occ. eigenvalues --   -0.38927  -0.37875  -0.37201  -0.36312  -0.33407
  Beta  occ. eigenvalues --   -0.30880  -0.29824  -0.29236  -0.28008  -0.26926
  Beta  occ. eigenvalues --   -0.26667  -0.26491  -0.25151  -0.23099  -0.22194
  Beta  occ. eigenvalues --   -0.21523  -0.21183  -0.20721  -0.19848  -0.18161
  Beta  occ. eigenvalues --   -0.13257  -0.11033  -0.10689  -0.09863  -0.08304
  Beta virt. eigenvalues --    0.07438   0.08764   0.09192   0.09340   0.10288
  Beta virt. eigenvalues --    0.10649   0.11418   0.11499   0.12006   0.12250
  Beta virt. eigenvalues --    0.12941   0.13309   0.13905   0.14673   0.15286

 Mulliken charges and spin densities:
               1          2
     1  C   -0.562767   0.367120
     2  C    0.422699   0.131384
     3  C   -0.257689  -0.022938
     4  N   -0.102825   0.165872
     5  C   -0.300046  -0.732952
     6  C    0.175294  -0.020784
     7  C    0.401938  -0.004669
     8  C   -0.672210  -0.114034
     9  C    0.393011   0.339193
    10  C   -0.853856   0.001223
    11  C    0.529960   0.101833
    12  C   -0.741595  -0.017967
    13  C   -0.767295  -0.028281
    14  O   -0.219237   0.005999
    15  N   -0.381882   0.092443
    16  H    0.128450  -0.017027
    17  H   -0.123673   0.183963
    18  H    0.169402   0.012410
    19  H    0.235418  -0.027095
    20  H    0.207717  -0.005194
    21  H    0.199947   0.007388
    22  H    0.014654   0.103261
    23  H    0.112042   0.004635
    24  H    0.126906   0.009012
    25  H    0.138555   0.042525
    26  H    0.115927   0.001874
    27  H    0.111592  -0.002203
    28  H    0.151028   0.008741
    29  H    0.299439  -0.000310
    30  H   -0.170266   0.411034
    31  H    0.219363   0.003543
 Sum of Mulliken charges =  -1.00000   1.00000

 Dipole moment (field-independent basis, Debye):
    X=             -8.8465    Y=              1.3955    Z=              0.8109  Tot=              8.9925
 Quadrupole moment (field-independent basis, Debye-Ang):
   XX=           -148.1856   YY=           -116.1253   ZZ=           -104.8813
   XY=            -11.3116   XZ=              4.6969   YZ=             -1.1172

 Summary of Natural Population Analysis:

                                       Natural Population
                Natural  -----------------------------------------------
    Atom  No    Charge         Core      Valence    Rydberg      Total
 -----------------------------------------------------------------------
      C    1   -0.09784      0.99959     2.08939    0.00887     3.09784
      C    2   -0.12756      0.99953     2.11805    0.00998     3.12756
      C    3    0.26756      0.99956     1.71675    0.01613     2.73244
      N    4   -0.29876      0.99960     2.78613    0.01304     3.79876
      C    5   -0.02077      0.99951     2.00371    0.01756     3.02077
      C    6   -0.10447      0.99959     2.09322    0.01166     3.10447
      C    7   -0.10251      0.99964     2.09158    0.01129     3.10251
      C    8   -0.19359      0.99959     2.18503    0.00898     3.19359
      C    9   -0.02845      0.99945     2.01514    0.01386     3.02845
      C   10   -0.18779      0.99946     2.17563    0.01270     3.18779
      C   11   -0.04422      0.99945     2.03079    0.01397     3.04422
      C   12   -0.19343      0.99960     2.18503    0.00881     3.19343
      C   13    0.06881      0.99946     1.91416    0.01757     2.93119
      O   14   -0.39253      0.99988     3.38495    0.00770     4.39253
      N   15   -0.39808      0.99971     2.88843    0.00994     3.89808
      H   16    0.08540      0.00000     0.41345    0.00115     0.41460
      H   17    0.08121      0.00000     0.41788    0.00091     0.41879
      H   18    0.09334      0.00000     0.40464    0.00202     0.40666
      H   19    0.10023      0.00000     0.39830    0.00147     0.39977
      H   20    0.09369      0.00000     0.40457    0.00174     0.40631
      H   21    0.08758      0.00000     0.41031    0.00211     0.41242
      H   22    0.10351      0.00000     0.39516    0.00133     0.39649
      H   23    0.09409      0.00000     0.40472    0.00119     0.40591
      H   24    0.10313      0.00000     0.39582    0.00105     0.39687
      H   25    0.11924      0.00000     0.37933    0.00143     0.38076
      H   26    0.09749      0.00000     0.40094    0.00157     0.40251
      H   27    0.09546      0.00000     0.40332    0.00122     0.40454
      H   28    0.08081      0.00000     0.41772    0.00148     0.41919
      H   29    0.24736      0.00000     0.24776    0.00488     0.25264
      H   30    0.18933      0.00000     0.30715    0.00352     0.31067
      H   31    0.18175      0.00000     0.31635    0.00190     0.31825
 =======================================================================
   * Total *    0.00000     14.99361    39.79539    0.21100    55.00000

 Normal termination of Gaussian 16 at Thu Dec 10 16:35:31 2020.
