 Gaussian 16, Revision A.03,

 -----------------------------------------------------------
 # opt freq B3LYP/6-31G(d) empiricaldispersion=gd3bj scf=xqc
 -----------------------------------------------------------

 ------------------------------
 CID_80428703_JID_9208_neutraal
 ------------------------------
 Symbolic Z-matrix:
 Charge =  0 Multiplicity = 1

 SCF Done:  E(RB3LYP) =  -1559.98887958     A.U. after   15 cycles
 SCF Done:  E(RB3LYP) =  -1559.98991953     A.U. after   14 cycles
 SCF Done:  E(RB3LYP) =  -1559.98225338     A.U. after   14 cycles
 SCF Done:  E(RB3LYP) =  -1559.99346484     A.U. after   13 cycles
 SCF Done:  E(RB3LYP) =  -1559.98817408     A.U. after   14 cycles
 SCF Done:  E(RB3LYP) =  -1559.99309053     A.U. after   13 cycles
 SCF Done:  E(RB3LYP) =  -1559.99485414     A.U. after   10 cycles
 SCF Done:  E(RB3LYP) =  -1559.99568904     A.U. after   12 cycles
 SCF Done:  E(RB3LYP) =  -1559.99595195     A.U. after   13 cycles
 SCF Done:  E(RB3LYP) =  -1559.99613699     A.U. after   12 cycles
 SCF Done:  E(RB3LYP) =  -1559.99729226     A.U. after   10 cycles
 SCF Done:  E(RB3LYP) =  -1559.99729573     A.U. after   10 cycles
 SCF Done:  E(RB3LYP) =  -1559.99729687     A.U. after    9 cycles
 SCF Done:  E(RB3LYP) =  -1559.99729702     A.U. after    8 cycles
 SCF Done:  E(RB3LYP) =  -1559.99729708     A.U. after    7 cycles
 Optimization completed.
    -- Stationary point found.
 Normal termination of Gaussian 16 at Sun Dec 13 12:56:31 2020.

 --------------------------------------------------------------------
 #N Geom=AllCheck Guess=TCheck SCRF=Check GenChk RB3LYP/6-31G(d) Freq
 --------------------------------------------------------------------

 Structure from the checkpoint file:  "JID_9208.chk"
 ------------------------------
 CID_80428703_JID_9208_neutraal
 ------------------------------
 Charge =  0 Multiplicity = 1

 SCF Done:  E(RB3LYP) =  -1559.99729708     A.U. after    1 cycles

  Exact polarizability: 196.248   0.031 198.563  18.816   8.558 143.423
 Approx polarizability: 289.951  -1.946 321.939  49.359  15.783 232.838

                      1                      2                      3
                      A                      A                      A
 Frequencies --     28.3995                44.9016                52.8558
 Red. masses --      7.9189                 5.9590                 4.2011
 Frc consts  --      0.0038                 0.0071                 0.0069
 IR Inten    --      0.3134                 0.0814                 0.3361

                      4                      5                      6
                      A                      A                      A
 Frequencies --     68.3922                82.5986                93.3500
 Red. masses --      3.8728                 3.0628                 4.6971
 Frc consts  --      0.0107                 0.0123                 0.0241
 IR Inten    --      0.7419                 0.2702                 0.1697

                      7                      8                      9
                      A                      A                      A
 Frequencies --     97.4067               115.6359               145.6986
 Red. masses --      3.5148                 6.3560                 3.5785
 Frc consts  --      0.0196                 0.0501                 0.0448
 IR Inten    --      0.2203                 0.3261                 0.5178

                     10                     11                     12
                      A                      A                      A
 Frequencies --    154.2160               167.9415               199.7812
 Red. masses --      3.9737                 3.5281                 4.7789
 Frc consts  --      0.0557                 0.0586                 0.1124
 IR Inten    --      2.4298                 5.5943                 0.4962

                     13                     14                     15
                      A                      A                      A
 Frequencies --    225.3946               237.1249               260.8356
 Red. masses --      3.6323                 6.8340                 2.4001
 Frc consts  --      0.1087                 0.2264                 0.0962
 IR Inten    --      0.7702                 1.4899                 6.5929

                     16                     17                     18
                      A                      A                      A
 Frequencies --    275.9541               277.2278               294.2331
 Red. masses --      1.3456                 1.0567                 1.5632
 Frc consts  --      0.0604                 0.0478                 0.0797
 IR Inten    --     23.3328                 0.5018               150.0478

                     19                     20                     21
                      A                      A                      A
 Frequencies --    310.9715               318.4710               334.7084
 Red. masses --      2.6477                 2.1529                 2.8323
 Frc consts  --      0.1509                 0.1287                 0.1869
 IR Inten    --      4.8814                44.4687                28.8457

                     22                     23                     24
                      A                      A                      A
 Frequencies --    350.1209               355.1169               370.0873
 Red. masses --      4.2160                 2.9424                 2.9924
 Frc consts  --      0.3045                 0.2186                 0.2415
 IR Inten    --      4.2796                 3.9133                 7.2413

                     25                     26                     27
                      A                      A                      A
 Frequencies --    393.6204               467.5490               470.3505
 Red. masses --      3.0179                 4.5135                 2.9839
 Frc consts  --      0.2755                 0.5813                 0.3889
 IR Inten    --      9.5153                 2.7196                 1.7585

                     28                     29                     30
                      A                      A                      A
 Frequencies --    494.4658               552.2536               559.9839
 Red. masses --      2.8921                 3.0886                 7.3492
 Frc consts  --      0.4166                 0.5550                 1.3578
 IR Inten    --      2.2209                12.8626                 3.9601

                     31                     32                     33
                      A                      A                      A
 Frequencies --    587.9917               597.9377               644.0282
 Red. masses --      6.6741                 2.8189                 4.2952
 Frc consts  --      1.3595                 0.5938                 1.0496
 IR Inten    --      0.2224                 5.9868                 3.8643

                     34                     35                     36
                      A                      A                      A
 Frequencies --    666.0528               703.0887               718.5118
 Red. masses --      1.2542                 5.6324                 3.2717
 Frc consts  --      0.3278                 1.6404                 0.9951
 IR Inten    --      2.9512                 2.0652                 0.1543

                     37                     38                     39
                      A                      A                      A
 Frequencies --    748.8275               770.3234               777.4538
 Red. masses --      6.4833                 2.1922                 3.0083
 Frc consts  --      2.1420                 0.7664                 1.0713
 IR Inten    --      4.6026                 8.7708                 3.0640

                     40                     41                     42
                      A                      A                      A
 Frequencies --    782.4496               818.0624               821.5220
 Red. masses --      1.5971                 1.6754                 1.8941
 Frc consts  --      0.5761                 0.6606                 0.7532
 IR Inten    --      2.6528                 1.7506                16.2008

                     43                     44                     45
                      A                      A                      A
 Frequencies --    844.3836               861.1842               912.7691
 Red. masses --      1.5028                 2.2286                 2.0644
 Frc consts  --      0.6313                 0.9738                 1.0133
 IR Inten    --      9.4274                 2.5530                47.7626

                     46                     47                     48
                      A                      A                      A
 Frequencies --    918.4394               937.5464               951.8981
 Red. masses --      1.9442                 4.3155                 1.8129
 Frc consts  --      0.9663                 2.2349                 0.9678
 IR Inten    --      3.2015                14.0319                25.2702

                     49                     50                     51
                      A                      A                      A
 Frequencies --    969.6895              1004.1105              1010.3231
 Red. masses --      1.9089                 2.0214                 3.2270
 Frc consts  --      1.0575                 1.2008                 1.9407
 IR Inten    --      2.8381                13.4416                10.2373

                     52                     53                     54
                      A                      A                      A
 Frequencies --   1040.8444              1064.2341              1067.1894
 Red. masses --      1.7879                 2.7256                 1.6177
 Frc consts  --      1.1412                 1.8188                 1.0855
 IR Inten    --      1.8575                39.8252                15.9567

                     55                     56                     57
                      A                      A                      A
 Frequencies --   1069.8879              1082.7863              1093.8283
 Red. masses --      4.0321                 1.3846                 1.8208
 Frc consts  --      2.7193                 0.9564                 1.2835
 IR Inten    --     57.4382                 1.4356                17.7672

                     58                     59                     60
                      A                      A                      A
 Frequencies --   1104.0782              1107.8658              1138.3973
 Red. masses --      1.9023                 1.6595                 1.2209
 Frc consts  --      1.3663                 1.2001                 0.9322
 IR Inten    --      4.0898                 0.1421                 1.5641

                     61                     62                     63
                      A                      A                      A
 Frequencies --   1154.2307              1175.5086              1195.2938
 Red. masses --      1.4222                 2.1659                 1.7865
 Frc consts  --      1.1163                 1.7633                 1.5039
 IR Inten    --      7.1758                17.4448                 5.2538

                     64                     65                     66
                      A                      A                      A
 Frequencies --   1209.1575              1213.4150              1251.0411
 Red. masses --      1.3706                 2.1548                 1.8052
 Frc consts  --      1.1806                 1.8693                 1.6647
 IR Inten    --      0.8762                 9.3096                14.0694

                     67                     68                     69
                      A                      A                      A
 Frequencies --   1268.7564              1280.9692              1295.2189
 Red. masses --      2.0299                 1.6673                 1.3105
 Frc consts  --      1.9253                 1.6119                 1.2953
 IR Inten    --     29.3500                35.9188                18.6864

                     70                     71                     72
                      A                      A                      A
 Frequencies --   1340.7467              1343.7213              1380.9580
 Red. masses --      1.6616                 1.4455                 2.0245
 Frc consts  --      1.7598                 1.5377                 2.2747
 IR Inten    --     47.0698                 9.7591                16.2922

                     73                     74                     75
                      A                      A                      A
 Frequencies --   1383.2608              1393.2243              1426.8498
 Red. masses --      2.2380                 1.4356                 1.4929
 Frc consts  --      2.5230                 1.6418                 1.7907
 IR Inten    --     65.7901                17.4293                27.8311

                     76                     77                     78
                      A                      A                      A
 Frequencies --   1429.2177              1433.0687              1441.3086
 Red. masses --      2.0252                 1.2551                 2.1779
 Frc consts  --      2.4373                 1.5187                 2.6656
 IR Inten    --     31.5105                14.4703                16.8811

                     79                     80                     81
                      A                      A                      A
 Frequencies --   1483.3502              1493.5961              1497.4958
 Red. masses --      1.0930                 1.0943                 1.0859
 Frc consts  --      1.4169                 1.4383                 1.4347
 IR Inten    --      1.0882                 7.6573                11.8568

                     82                     83                     84
                      A                      A                      A
 Frequencies --   1507.1611              1521.9870              1525.0308
 Red. masses --      1.1018                 1.0735                 1.3072
 Frc consts  --      1.4746                 1.4651                 1.7912
 IR Inten    --      5.2822                 5.4594                37.6900

                     85                     86                     87
                      A                      A                      A
 Frequencies --   1529.3774              1530.8148              1543.0688
 Red. masses --      1.0730                 1.1145                 2.6068
 Frc consts  --      1.4787                 1.5387                 3.6570
 IR Inten    --      5.4719                11.5091                26.6338

                     88                     89                     90
                      A                      A                      A
 Frequencies --   1553.6544              1558.7165              1601.1236
 Red. masses --      1.4112                 1.1869                 1.3244
 Frc consts  --      2.0070                 1.6991                 2.0004
 IR Inten    --     29.2387                 4.6636               111.6602

                     91                     92                     93
                      A                      A                      A
 Frequencies --   1793.6562              3044.6749              3055.8977
 Red. masses --      9.6949                 1.0698                 1.0347
 Frc consts  --     18.3769                 5.8431                 5.6931
 IR Inten    --    207.0175                15.7961                23.1421

                     94                     95                     96
                      A                      A                      A
 Frequencies --   3069.6785              3075.1016              3079.2572
 Red. masses --      1.0344                 1.0613                 1.0848
 Frc consts  --      5.7427                 5.9132                 6.0601
 IR Inten    --     18.5149                13.3241                34.2690

                     97                     98                     99
                      A                      A                      A
 Frequencies --   3090.9041              3118.6312              3126.2650
 Red. masses --      1.0624                 1.1022                 1.1029
 Frc consts  --      5.9800                 6.3160                 6.3508
 IR Inten    --     22.7678                 3.2455                28.5520

                    100                    101                    102
                      A                      A                      A
 Frequencies --   3128.1924              3141.3130              3144.3832
 Red. masses --      1.0950                 1.1035                 1.1029
 Frc consts  --      6.3135                 6.4155                 6.4246
 IR Inten    --      0.6333                23.1569                17.8848

                    103                    104                    105
                      A                      A                      A
 Frequencies --   3146.1963              3150.2630              3154.0295
 Red. masses --      1.1019                 1.1019                 1.0533
 Frc consts  --      6.4265                 6.4430                 6.1733
 IR Inten    --      0.6252                19.1342                15.8312

                    106                    107                    108
                      A                      A                      A
 Frequencies --   3159.3967              3233.8697              3246.4999
 Red. masses --      1.0588                 1.1191                 1.1161
 Frc consts  --      6.2267                 6.8956                 6.9307
 IR Inten    --      9.0170                 0.1172                20.6574

                    109                    110                    111
                      A                      A                      A
 Frequencies --   3434.2700              3589.7164              3724.1217
 Red. masses --      1.0752                 1.0433                 1.1064
 Frc consts  --      7.4714                 7.9212                 9.0406
 IR Inten    --    120.7260                36.8018                62.8648

 - Thermochemistry -
 -------------------
 Temperature   298.150 Kelvin.  Pressure   1.00000 Atm.
 Atom     1 has atomic number  6 and mass  12.00000

 Molecular mass:   300.10786 amu.
 Principal axes and moments of inertia in atomic units:
                           1         2         3
     Eigenvalues --  4379.261276161.824507961.77219
           X            0.99984   0.01728   0.00487
           Y           -0.01731   0.99983   0.00660
           Z           -0.00475  -0.00668   0.99997
 This molecule is an asymmetric top.
 Rotational symmetry number  1.
 Warning -- assumption of classical behavior for rotation
           may cause significant error
 Rotational temperatures (Kelvin)      0.01978     0.01406     0.01088
 Rotational constants (GHZ):           0.41211     0.29289     0.22668
 Zero-point vibrational energy     851041.3 (Joules/Mol)
                                  203.40375 (Kcal/Mol)
 Warning -- explicit consideration of  32 degrees of freedom as
           vibrations may cause significant error
 Vibrational temperatures:     40.86    64.60    76.05    98.40   118.84
          (Kelvin)            134.31   140.15   166.37   209.63   221.88
                              241.63   287.44   324.29   341.17   375.28
                              397.04   398.87   423.34   447.42   458.21
                              481.57   503.75   510.93   532.47   566.33
                              672.70   676.73   711.43   794.57   805.69
                              845.99   860.30   926.61   958.30  1011.59
                             1033.78  1077.40  1108.32  1118.58  1125.77
                             1177.01  1181.99  1214.88  1239.05  1313.27
                             1321.43  1348.92  1369.57  1395.17  1444.69
                             1453.63  1497.54  1531.20  1535.45  1539.33
                             1557.89  1573.77  1588.52  1593.97  1637.90
                             1660.68  1691.29  1719.76  1739.71  1745.83
                             1799.97  1825.46  1843.03  1863.53  1929.04
                             1933.32  1986.89  1990.20  2004.54  2052.92
                             2056.33  2061.87  2073.72  2134.21  2148.95
                             2154.56  2168.47  2189.80  2194.18  2200.43
                             2202.50  2220.13  2235.36  2242.65  2303.66
                             2580.67  4380.61  4396.76  4416.58  4424.39
                             4430.36  4447.12  4487.01  4498.00  4500.77
                             4519.65  4524.07  4526.67  4532.53  4537.94
                             4545.67  4652.82  4670.99  4941.15  5164.80
                             5358.18

 Zero-point correction=                           0.324145 (Hartree/Particle)
 Thermal correction to Energy=                    0.344467
 Thermal correction to Enthalpy=                  0.345412
 Thermal correction to Gibbs Free Energy=         0.275090
 Sum of electronic and zero-point Energies=          -1559.673153
 Sum of electronic and thermal Energies=             -1559.652830
 Sum of electronic and thermal Enthalpies=           -1559.651886
 Sum of electronic and thermal Free Energies=        -1559.722207

                     E (Thermal)             CV                S
                      KCal/Mol        Cal/Mol-Kelvin    Cal/Mol-Kelvin
 Total                  216.157             76.740            148.003
 Electronic               0.000              0.000              0.000
 Translational            0.889              2.981             42.994
 Rotational               0.889              2.981             33.729
 Vibrational            214.379             70.778             71.280
 Vibration     1          0.593              1.984              5.938
 Vibration     2          0.595              1.979              5.030
 Vibration     3          0.596              1.976              4.708
 Vibration     4          0.598              1.969              4.199
 Vibration     5          0.600              1.961              3.828
 Vibration     6          0.602              1.954              3.589
 Vibration     7          0.603              1.951              3.506
 Vibration     8          0.608              1.936              3.172
 Vibration     9          0.617              1.907              2.728
 Vibration    10          0.620              1.898              2.620
 Vibration    11          0.625              1.882              2.458
 Vibration    12          0.638              1.840              2.135
 Vibration    13          0.650              1.802              1.915
 Vibration    14          0.656              1.784              1.824
 Vibration    15          0.669              1.744              1.656
 Vibration    16          0.678              1.718              1.559
 Vibration    17          0.678              1.716              1.551
 Vibration    18          0.689              1.684              1.449
 Vibration    19          0.700              1.653              1.357
 Vibration    20          0.705              1.638              1.318
 Vibration    21          0.716              1.606              1.237
 Vibration    22          0.727              1.575              1.166
 Vibration    23          0.731              1.565              1.143
 Vibration    24          0.742              1.534              1.079
 Vibration    25          0.761              1.484              0.986
 Vibration    26          0.825              1.322              0.744
 Vibration    27          0.827              1.316              0.737
 Vibration    28          0.850              1.262              0.672
 Vibration    29          0.908              1.135              0.540
 Vibration    30          0.916              1.118              0.524
 Vibration    31          0.945              1.057              0.471
 Vibration    32          0.956              1.036              0.453

 Optimization completed.
    -- Stationary point found.
 Normal termination of Gaussian 16 at Sun Dec 13 13:22:07 2020.

 ----------------------------------------------------------------------
 # B3LYP/6-311++G(d,p) empiricaldispersion=gd3bj scf=xqc pop=npa geom=c
 heck
 ----------------------------------------------------------------------

 --------------------------------------
 CID_80428703_JID_9208_Energie_neutraal
 --------------------------------------
 Structure from the checkpoint file:  "JID_9208.chk"
 Charge =  0 Multiplicity = 1

 SCF Done:  E(RB3LYP) =  -1560.26986436     A.U. after   16 cycles
 Normal termination of Gaussian 16 at Sun Dec 13 13:34:30 2020.

 ----------------------------------------------------------------------
 # B3LYP/6-311++G(d,p) empiricaldispersion=gd3bj scf=xqc pop=npa geom=c
 heck
 ----------------------------------------------------------------------

 ------------------------------------
 CID_80428703_JID_9208_Energie_kation
 ------------------------------------
 Structure from the checkpoint file:  "JID_9208.chk"
 Charge =  1 Multiplicity = 2

 SCF Done:  E(UB3LYP) =  -1559.97386119     A.U. after   27 cycles
 Normal termination of Gaussian 16 at Sun Dec 13 14:04:29 2020.
 Gaussian 16:  ES64L-G16RevA.03 25-Dec-2016

 ----------------------------------------------------------------------
 # B3LYP/6-311++G(d,p) empiricaldispersion=gd3bj scf=xqc pop=npa geom=c
 heck
 ----------------------------------------------------------------------

 -----------------------------------
 CID_80428703_JID_9208_Energie_anion
 -----------------------------------
 Structure from the checkpoint file:  "JID_9208.chk"
 Charge = -1 Multiplicity = 2

                         Standard orientation:
 ---------------------------------------------------------------------
 Center     Atomic      Atomic             Coordinates (Angstroms)
 Number     Number       Type             X           Y           Z
 ---------------------------------------------------------------------
      1          6           0        0.341445    3.384233    0.640407
      2          6           0        1.401718    3.061367   -0.425200
      3          6           0        1.920842    1.655351   -0.315067
      4          7           0        3.010209    1.395634    0.371195
      5         16           0        3.264061   -0.271869    0.332264
      6          6           0        1.855284   -0.514292   -0.674071
      7          7           0        1.239696    0.618640   -0.922281
      8         16           0        1.409758   -2.096611   -1.261032
      9          6           0       -0.371678   -1.868148   -1.672927
     10          6           0       -1.368181   -2.126953   -0.538097
     11          6           0       -1.545891   -1.021739    0.534653
     12          6           0       -2.799425   -1.361228    1.366133
     13          6           0       -0.369567   -1.078949    1.543520
     14          8           0        0.157640   -2.138925    1.857307
     15          7           0       -0.038756    0.115375    2.095882
     16          7           0       -1.656879    0.342305   -0.012687
     17          6           0       -2.806148    0.606844   -0.842289
     18          6           0       -4.006229    1.276620   -0.222461
     19          6           0       -3.106500    2.048386   -1.155545
     20          1           0       -0.530765    2.731145    0.539066
     21          1           0        0.001955    4.420589    0.540491
     22          1           0        0.757898    3.259212    1.645681
     23          1           0        0.977241    3.196093   -1.425786
     24          1           0        2.249534    3.744254   -0.321633
     25          1           0       -0.479710   -0.876630   -2.118192
     26          1           0       -0.532939   -2.602029   -2.468031
     27          1           0       -2.342524   -2.285345   -1.018781
     28          1           0       -1.108025   -3.055052   -0.023345
     29          1           0       -2.670174   -2.338619    1.838692
     30          1           0       -2.951814   -0.611022    2.147208
     31          1           0       -3.691415   -1.389290    0.734410
     32          1           0       -0.503414    0.954333    1.781206
     33          1           0        0.709012    0.152051    2.772637
     34          1           0       -0.804929    0.555296   -0.535065
     35          1           0       -3.018375   -0.105184   -1.644645
     36          1           0       -4.996033    0.991686   -0.567800
     37          1           0       -3.937888    1.505157    0.836073
     38          1           0       -2.454104    2.798191   -0.719316
     39          1           0       -3.469653    2.289613   -2.150133
 ---------------------------------------------------------------------

 SCF Done:  E(UB3LYP) =  -1560.26934075     A.U. after   33 cycles
 SCF Done:  E(UB3LYP) =  -1560.26934075     a.u. after    1 cycles

 The electronic state is 2-A.
 Alpha  occ. eigenvalues --  -88.75306 -88.73970 -18.97861 -14.22136 -14.20011
 Alpha  occ. eigenvalues --  -14.18065 -14.18006 -10.16387 -10.11880 -10.10966
 Alpha  occ. eigenvalues --  -10.10770 -10.10243 -10.10039 -10.07961 -10.07791
 Alpha  occ. eigenvalues --  -10.07374 -10.06931 -10.06657 -10.06137  -7.83796
 Alpha  occ. eigenvalues --   -7.82567  -5.80196  -5.79727  -5.79316  -5.78972
 Alpha  occ. eigenvalues --   -5.78560  -5.77967  -0.92958  -0.86762  -0.83106
 Alpha  occ. eigenvalues --   -0.79526  -0.75018  -0.74154  -0.70130  -0.68136
 Alpha  occ. eigenvalues --   -0.66073  -0.62908  -0.59173  -0.55321  -0.53026
 Alpha  occ. eigenvalues --   -0.51595  -0.51271  -0.48687  -0.45772  -0.44918
 Alpha  occ. eigenvalues --   -0.43448  -0.41867  -0.41576  -0.40071  -0.37593
 Alpha  occ. eigenvalues --   -0.37319  -0.34887  -0.34793  -0.34266  -0.33118
 Alpha  occ. eigenvalues --   -0.32338  -0.31398  -0.31065  -0.29761  -0.29187
 Alpha  occ. eigenvalues --   -0.28493  -0.27804  -0.27664  -0.26987  -0.26727
 Alpha  occ. eigenvalues --   -0.25938  -0.25046  -0.24425  -0.23207  -0.21787
 Alpha  occ. eigenvalues --   -0.21382  -0.20162  -0.18953  -0.17868  -0.16789
 Alpha  occ. eigenvalues --   -0.15639  -0.15025  -0.14760  -0.13419  -0.10602
 Alpha  occ. eigenvalues --    0.04361
 Alpha virt. eigenvalues --    0.05895   0.06951   0.07646   0.07951   0.09200
 Alpha virt. eigenvalues --    0.09615   0.09707   0.10210   0.10615   0.11098
 Alpha virt. eigenvalues --    0.11588   0.11763   0.12075   0.12857   0.12888

  Beta  occ. eigenvalues --  -88.75252 -88.73969 -18.97848 -14.22129 -14.20003
  Beta  occ. eigenvalues --  -14.18057 -14.17625 -10.16378 -10.11879 -10.10962
  Beta  occ. eigenvalues --  -10.10242 -10.10201 -10.10015 -10.07951 -10.07776
  Beta  occ. eigenvalues --  -10.07365 -10.06919 -10.06662 -10.06110  -7.83748
  Beta  occ. eigenvalues --   -7.82565  -5.80178  -5.79711  -5.79125  -5.78980
  Beta  occ. eigenvalues --   -5.78572  -5.77940  -0.92936  -0.86371  -0.83092
  Beta  occ. eigenvalues --   -0.79510  -0.74941  -0.73703  -0.69983  -0.68005
  Beta  occ. eigenvalues --   -0.66030  -0.62669  -0.59040  -0.55285  -0.52905
  Beta  occ. eigenvalues --   -0.51439  -0.51233  -0.48660  -0.45484  -0.44818
  Beta  occ. eigenvalues --   -0.43419  -0.41672  -0.41494  -0.40003  -0.37558
  Beta  occ. eigenvalues --   -0.37250  -0.34742  -0.34710  -0.34180  -0.32971
  Beta  occ. eigenvalues --   -0.32298  -0.31295  -0.30679  -0.29584  -0.29101
  Beta  occ. eigenvalues --   -0.28163  -0.27770  -0.27596  -0.26954  -0.26449
  Beta  occ. eigenvalues --   -0.25838  -0.24895  -0.24339  -0.22978  -0.21765
  Beta  occ. eigenvalues --   -0.21165  -0.20054  -0.18178  -0.17140  -0.16479
  Beta  occ. eigenvalues --   -0.15505  -0.14837  -0.14125  -0.13379  -0.09677
  Beta virt. eigenvalues --    0.06318   0.07220   0.07610   0.08067   0.09072
  Beta virt. eigenvalues --    0.09613   0.09661   0.09939   0.10570   0.10609
  Beta virt. eigenvalues --    0.11185   0.11627   0.11850   0.12221   0.12817

 Mulliken charges and spin densities:
               1          2
     1  C   -0.139711  -0.308102
     2  C   -0.888333   0.497402
     3  C   -0.490519  -0.243569
     4  N   -0.057873   0.150460
     5  S    0.121783   0.138078
     6  C    0.195242   0.222810
     7  N   -0.030265   0.005962
     8  S    0.186404   0.069758
     9  C   -0.429310   0.034822
    10  C   -0.366560  -0.281859
    11  C    0.456917   0.140393
    12  C   -0.147396  -0.330942
    13  C   -0.645585   0.136578
    14  O   -0.221432   0.003867
    15  N   -0.367231  -0.021213
    16  N   -0.030893  -0.009040
    17  C   -0.894732   0.825932
    18  C    0.316847  -0.670280
    19  C    0.342174  -0.734254
    20  H    0.587546  -0.462115
    21  H   -0.307866   0.467502
    22  H    0.109729   0.002302
    23  H    0.127602   0.003895
    24  H    0.097958   0.069107
    25  H    0.275836  -0.004092
    26  H    0.228985   0.001187
    27  H    0.026875   0.095862
    28  H    0.207880   0.006838
    29  H    0.113949   0.058029
    30  H    0.139500   0.010855
    31  H    0.032151   0.137039
    32  H    0.221683   0.038069
    33  H    0.288245   0.034911
    34  H    0.150052  -0.049684
    35  H    0.023708   0.165757
    36  H   -0.206002   0.358151
    37  H    0.001682   0.130806
    38  H    0.037993   0.093086
    39  H   -0.067032   0.215695
 Sum of Mulliken charges =  -1.00000   1.00000

 Dipole moment (field-independent basis, Debye):
    X=             -2.3675    Y=             -1.1333    Z=             -0.5000  Tot=              2.6719
 Quadrupole moment (field-independent basis, Debye-Ang):
   XX=           -193.4382   YY=           -172.2877   ZZ=           -149.4020
   XY=              5.6777   XZ=             -2.4062   YZ=              6.2785

 Summary of Natural Population Analysis:

                                       Natural Population
                Natural  -----------------------------------------------
    Atom  No    Charge         Core      Valence    Rydberg      Total
 -----------------------------------------------------------------------
      C    1   -0.28475      0.99965     2.27983    0.00527     3.28475
      C    2   -0.20638      0.99959     2.19624    0.01055     3.20638
      C    3    0.19438      0.99962     1.78512    0.02088     2.80562
      N    4   -0.28317      0.99968     2.77211    0.01138     3.78317
      S    5    0.28018      4.99938     2.69529    0.02516     7.71982
      C    6    0.02068      0.99960     1.96058    0.01915     2.97932
      N    7   -0.31116      0.99960     2.79920    0.01236     3.81116
      S    8    0.13983      4.99944     2.84203    0.01870     7.86017
      C    9   -0.24692      0.99957     2.23705    0.01029     3.24692
      C   10   -0.20789      0.99957     2.19562    0.01270     3.20789
      C   11    0.03262      0.99952     1.95391    0.01395     2.96738
      C   12   -0.28528      0.99963     2.27852    0.00714     3.28528
      C   13    0.34113      0.99962     1.63263    0.02663     2.65887
      O   14   -0.32412      0.99988     3.31842    0.00582     4.32412
      N   15   -0.40179      0.99968     2.89433    0.00777     3.90179
      N   16   -0.37846      0.99970     2.86499    0.01377     3.87846
      C   17   -0.02126      0.99957     2.00845    0.01324     3.02126
      C   18   -0.20197      0.99961     2.19288    0.00948     3.20197
      C   19   -0.19907      0.99962     2.19175    0.00770     3.19907
      H   20    0.09795      0.00000     0.40035    0.00170     0.40205
      H   21    0.09577      0.00000     0.40298    0.00125     0.40423
      H   22    0.09613      0.00000     0.40274    0.00113     0.40387
      H   23    0.10113      0.00000     0.39782    0.00105     0.39887
      H   24    0.10354      0.00000     0.39508    0.00138     0.39646
      H   25    0.11202      0.00000     0.38658    0.00141     0.38798
      H   26    0.10304      0.00000     0.39619    0.00077     0.39696
      H   27    0.09717      0.00000     0.40155    0.00128     0.40283
      H   28    0.11663      0.00000     0.38227    0.00110     0.38337
      H   29    0.10541      0.00000     0.39374    0.00085     0.39459
      H   30    0.10297      0.00000     0.39604    0.00098     0.39703
      H   31    0.10198      0.00000     0.39709    0.00092     0.39802
      H   32    0.20538      0.00000     0.29246    0.00217     0.29462
      H   33    0.19619      0.00000     0.30171    0.00210     0.30381
      H   34    0.20734      0.00000     0.28928    0.00339     0.29266
      H   35    0.08839      0.00000     0.41022    0.00139     0.41161
      H   36    0.10075      0.00000     0.39793    0.00132     0.39925
      H   37    0.10417      0.00000     0.39461    0.00122     0.39583
      H   38    0.10652      0.00000     0.39244    0.00104     0.39348
      H   39    0.10092      0.00000     0.39821    0.00087     0.39908
 =======================================================================
   * Total *    0.00000     26.99254    52.72822    0.27924    80.00000

 Normal termination of Gaussian 16 at Sun Dec 13 14:41:06 2020.
