 Gaussian 16, Revision A.03,

 -----------------------------------------------------------
 # opt freq B3LYP/6-31G(d) empiricaldispersion=gd3bj scf=xqc
 -----------------------------------------------------------

 ------------------------------
 CID_65209471_JID_5036_neutraal
 ------------------------------
 Symbolic Z-matrix:
 Charge =  0 Multiplicity = 1

 SCF Done:  E(RB3LYP) =  -1063.72050024     A.U. after   15 cycles
 SCF Done:  E(RB3LYP) =  -1063.72667287     A.U. after   13 cycles
 SCF Done:  E(RB3LYP) =  -1063.72770480     A.U. after   13 cycles
 SCF Done:  E(RB3LYP) =  -1063.72769290     A.U. after   13 cycles
 SCF Done:  E(RB3LYP) =  -1063.72818381     A.U. after   13 cycles
 SCF Done:  E(RB3LYP) =  -1063.72849243     A.U. after   12 cycles
 SCF Done:  E(RB3LYP) =  -1063.72877869     A.U. after   13 cycles
 SCF Done:  E(RB3LYP) =  -1063.72894805     A.U. after   12 cycles
 SCF Done:  E(RB3LYP) =  -1063.72903175     A.U. after   12 cycles
 SCF Done:  E(RB3LYP) =  -1063.72905743     A.U. after   10 cycles
 SCF Done:  E(RB3LYP) =  -1063.72907796     A.U. after   11 cycles
 SCF Done:  E(RB3LYP) =  -1063.72907961     A.U. after    9 cycles
 SCF Done:  E(RB3LYP) =  -1063.72908011     A.U. after    8 cycles
 SCF Done:  E(RB3LYP) =  -1063.72908025     A.U. after    8 cycles
 SCF Done:  E(RB3LYP) =  -1063.72908028     A.U. after    7 cycles
 Optimization completed.
    -- Stationary point found.
 Normal termination of Gaussian 16 at Thu Dec 10 14:47:25 2020.

 --------------------------------------------------------------------
 #N Geom=AllCheck Guess=TCheck SCRF=Check GenChk RB3LYP/6-31G(d) Freq
 --------------------------------------------------------------------

 Structure from the checkpoint file:  "JID_5036.chk"
 ------------------------------
 CID_65209471_JID_5036_neutraal
 ------------------------------
 Charge =  0 Multiplicity = 1

 SCF Done:  E(RB3LYP) =  -1063.72908028     A.U. after    1 cycles

  Exact polarizability: 165.091 -11.149 128.586 -16.310  -8.068  99.311
 Approx polarizability: 223.717 -11.848 228.307 -35.350 -29.661 165.749

                      1                      2                      3
                      A                      A                      A
 Frequencies --     37.3572                43.0656                71.7734
 Red. masses --      6.2177                 9.0631                 6.6024
 Frc consts  --      0.0051                 0.0099                 0.0200
 IR Inten    --      0.9232                 0.3632                 1.0407

                      4                      5                      6
                      A                      A                      A
 Frequencies --     84.6774               125.3540               146.7251
 Red. masses --      5.2909                 2.2824                 1.5152
 Frc consts  --      0.0224                 0.0211                 0.0192
 IR Inten    --      2.2878                 2.3053                 1.1398

                      7                      8                      9
                      A                      A                      A
 Frequencies --    163.5412               199.8582               253.8724
 Red. masses --      3.9950                 3.6476                 3.2923
 Frc consts  --      0.0630                 0.0858                 0.1250
 IR Inten    --      2.4233                 0.1004                 1.3776

                     10                     11                     12
                      A                      A                      A
 Frequencies --    278.9835               323.0945               338.9310
 Red. masses --      2.2984                 4.9239                 2.9207
 Frc consts  --      0.1054                 0.3028                 0.1977
 IR Inten    --      3.2604                 0.6005                 4.8503

                     13                     14                     15
                      A                      A                      A
 Frequencies --    356.9692               378.8573               437.8407
 Red. masses --      4.4573                 3.1037                 2.4967
 Frc consts  --      0.3346                 0.2625                 0.2820
 IR Inten    --      3.4951                 0.2230                 5.8737

                     16                     17                     18
                      A                      A                      A
 Frequencies --    470.2330               497.7674               544.5330
 Red. masses --      5.7584                 3.0521                 4.3271
 Frc consts  --      0.7502                 0.4456                 0.7560
 IR Inten    --      9.8714                 3.7124                 6.5224

                     19                     20                     21
                      A                      A                      A
 Frequencies --    552.3197               565.7796               604.3769
 Red. masses --      2.9369                 6.8188                 1.3854
 Frc consts  --      0.5279                 1.2860                 0.2982
 IR Inten    --     14.7854                 5.2545                91.3600

                     22                     23                     24
                      A                      A                      A
 Frequencies --    618.4618               628.3724               668.7857
 Red. masses --      6.5372                 8.4521                 5.7872
 Frc consts  --      1.4732                 1.9663                 1.5251
 IR Inten    --      9.2535                17.4937                 3.2804

                     25                     26                     27
                      A                      A                      A
 Frequencies --    698.6432               768.4183               774.8930
 Red. masses --      2.5926                 4.0852                 7.7605
 Frc consts  --      0.7456                 1.4212                 2.7455
 IR Inten    --     21.6690                29.3085                18.1403

                     28                     29                     30
                      A                      A                      A
 Frequencies --    810.6814               854.4947               876.9913
 Red. masses --      2.8380                 2.4806                 1.7229
 Frc consts  --      1.0989                 1.0672                 0.7807
 IR Inten    --      3.8417                 0.7116                11.5786

                     31                     32                     33
                      A                      A                      A
 Frequencies --    915.6326               936.7441               955.2108
 Red. masses --      3.0556                 2.6666                 2.3360
 Frc consts  --      1.5093                 1.3786                 1.2558
 IR Inten    --      6.8863                10.9059                 1.0465

                     34                     35                     36
                      A                      A                      A
 Frequencies --   1006.8471              1035.3531              1049.4479
 Red. masses --      1.9193                 2.1363                 2.0543
 Frc consts  --      1.1464                 1.3493                 1.3330
 IR Inten    --      5.5904                34.3892                 6.5709

                     37                     38                     39
                      A                      A                      A
 Frequencies --   1069.8065              1111.7602              1116.3685
 Red. masses --      1.3964                 2.0581                 1.8881
 Frc consts  --      0.9416                 1.4988                 1.3864
 IR Inten    --      0.5592                76.1991                 6.8232

                     40                     41                     42
                      A                      A                      A
 Frequencies --   1127.4679              1171.6962              1180.3823
 Red. masses --      4.6779                 2.0539                 2.5465
 Frc consts  --      3.5035                 1.6614                 2.0904
 IR Inten    --      2.5610                41.7912                38.5320

                     43                     44                     45
                      A                      A                      A
 Frequencies --   1203.8414              1232.3344              1257.2097
 Red. masses --      3.0284                 1.4789                 1.9201
 Frc consts  --      2.5858                 1.3232                 1.7881
 IR Inten    --     57.4625                43.9569                13.6627

                     46                     47                     48
                      A                      A                      A
 Frequencies --   1287.8419              1301.5075              1327.9466
 Red. masses --      1.7649                 1.4266                 1.3867
 Frc consts  --      1.7247                 1.4238                 1.4408
 IR Inten    --     65.2067                60.4877                 5.6155

                     49                     50                     51
                      A                      A                      A
 Frequencies --   1360.3402              1374.7690              1387.0733
 Red. masses --      1.4605                 1.3244                 1.8056
 Frc consts  --      1.5924                 1.4748                 2.0468
 IR Inten    --      4.8910                 2.0779                16.3227

                     52                     53                     54
                      A                      A                      A
 Frequencies --   1398.0728              1411.7393              1418.8380
 Red. masses --      1.7716                 1.4641                 1.5587
 Frc consts  --      2.0402                 1.7192                 1.8487
 IR Inten    --     16.0640                16.0354                33.5583

                     55                     56                     57
                      A                      A                      A
 Frequencies --   1422.8345              1436.3122              1504.1238
 Red. masses --      1.5305                 1.2976                 1.1371
 Frc consts  --      1.8255                 1.5772                 1.5157
 IR Inten    --     19.1732                 1.3946                33.9673

                     58                     59                     60
                      A                      A                      A
 Frequencies --   1505.3593              1507.2912              1514.2154
 Red. masses --      1.0483                 1.1542                 1.0828
 Frc consts  --      1.3997                 1.5450                 1.4628
 IR Inten    --      8.0443                10.9075                14.8078

                     61                     62                     63
                      A                      A                      A
 Frequencies --   1518.0986              1527.1219              1572.1413
 Red. masses --      1.1315                 1.1445                 3.8721
 Frc consts  --      1.5364                 1.5726                 5.6388
 IR Inten    --     27.0405                10.5322               275.5662

                     64                     65                     66
                      A                      A                      A
 Frequencies --   1593.5600              1850.8641              3035.0148
 Red. masses --      5.2487                 9.6200                 1.0684
 Frc consts  --      7.8531                19.4166                 5.7986
 IR Inten    --    168.7525               274.8557                23.6556

                     67                     68                     69
                      A                      A                      A
 Frequencies --   3046.6465              3053.4443              3061.5981
 Red. masses --      1.0689                 1.0370                 1.0708
 Frc consts  --      5.8454                 5.6963                 5.9134
 IR Inten    --     29.5203                28.0050                40.5833

                     70                     71                     72
                      A                      A                      A
 Frequencies --   3064.9331              3089.3410              3095.2840
 Red. masses --      1.0672                 1.0847                 1.0959
 Frc consts  --      5.9068                 6.0992                 6.1861
 IR Inten    --     48.3904                24.5155                25.5812

                     73                     74                     75
                      A                      A                      A
 Frequencies --   3107.5947              3117.0567              3133.1308
 Red. masses --      1.1019                 1.0959                 1.0982
 Frc consts  --      6.2696                 6.2734                 6.3516
 IR Inten    --     12.7658                14.9237                25.4006

                     76                     77                     78
                      A                      A                      A
 Frequencies --   3155.5581              3172.5216              3683.0142
 Red. masses --      1.1005                 1.0960                 1.0639
 Frc consts  --      6.4566                 6.4995                 8.5031
 IR Inten    --      4.0020                 0.7840                47.6601

 - Thermochemistry -
 -------------------
 Temperature   298.150 Kelvin.  Pressure   1.00000 Atm.
 Atom     1 has atomic number  6 and mass  12.00000

 Molecular mass:   227.07285 amu.
 Principal axes and moments of inertia in atomic units:
                           1         2         3
     Eigenvalues --  1941.166504191.573695091.62892
           X            0.99935  -0.03469  -0.00999
           Y            0.03468   0.99940  -0.00056
           Z            0.01001   0.00021   0.99995
 This molecule is an asymmetric top.
 Rotational symmetry number  1.
 Warning -- assumption of classical behavior for rotation
           may cause significant error
 Rotational temperatures (Kelvin)      0.04462     0.02066     0.01701
 Rotational constants (GHZ):           0.92972     0.43056     0.35445
 Zero-point vibrational energy     595626.3 (Joules/Mol)
                                  142.35811 (Kcal/Mol)
 Warning -- explicit consideration of  22 degrees of freedom as
           vibrations may cause significant error
 Vibrational temperatures:     53.75    61.96   103.27   121.83   180.36
          (Kelvin)            211.10   235.30   287.55   365.27   401.40
                              464.86   487.65   513.60   545.09   629.96
                              676.56   716.18   783.46   794.66   814.03
                              869.56   889.83   904.09   962.23  1005.19
                             1105.58  1114.90  1166.39  1229.43  1261.79
                             1317.39  1347.77  1374.34  1448.63  1489.64
                             1509.92  1539.21  1599.57  1606.21  1622.17
                             1685.81  1698.31  1732.06  1773.05  1808.84
                             1852.92  1872.58  1910.62  1957.23  1977.99
                             1995.69  2011.51  2031.18  2041.39  2047.14
                             2066.53  2164.10  2165.88  2168.66  2178.62
                             2184.21  2197.19  2261.96  2292.78  2662.98
                             4366.71  4383.44  4393.23  4404.96  4409.76
                             4444.87  4453.42  4471.14  4484.75  4507.88
                             4540.14  4564.55  5299.04

 Zero-point correction=                           0.226862 (Hartree/Particle)
 Thermal correction to Energy=                    0.240775
 Thermal correction to Enthalpy=                  0.241720
 Thermal correction to Gibbs Free Energy=         0.185149
 Sum of electronic and zero-point Energies=          -1063.502218
 Sum of electronic and thermal Energies=             -1063.488305
 Sum of electronic and thermal Enthalpies=           -1063.487361
 Sum of electronic and thermal Free Energies=        -1063.543931

                     E (Thermal)             CV                S
                      KCal/Mol        Cal/Mol-Kelvin    Cal/Mol-Kelvin
 Total                  151.089             52.714            119.063
 Electronic               0.000              0.000              0.000
 Translational            0.889              2.981             42.163
 Rotational               0.889              2.981             32.094
 Vibrational            149.311             46.752             44.807
 Vibration     1          0.594              1.982              5.395
 Vibration     2          0.595              1.980              5.113
 Vibration     3          0.598              1.967              4.104
 Vibration     4          0.601              1.960              3.779
 Vibration     5          0.610              1.928              3.016
 Vibration     6          0.617              1.906              2.714
 Vibration     7          0.623              1.887              2.508
 Vibration     8          0.638              1.840              2.134
 Vibration     9          0.665              1.756              1.704
 Vibration    10          0.679              1.712              1.540
 Vibration    11          0.708              1.629              1.294
 Vibration    12          0.719              1.598              1.217
 Vibration    13          0.732              1.561              1.135
 Vibration    14          0.749              1.515              1.044
 Vibration    15          0.798              1.388              0.833
 Vibration    16          0.827              1.316              0.737
 Vibration    17          0.853              1.255              0.664
 Vibration    18          0.900              1.152              0.556
 Vibration    19          0.908              1.135              0.539
 Vibration    20          0.922              1.105              0.512
 Vibration    21          0.963              1.023              0.442
 Vibration    22          0.978              0.993              0.419

 Optimization completed.
    -- Stationary point found.
 Normal termination of Gaussian 16 at Thu Dec 10 14:56:21 2020.

 ----------------------------------------------------------------------
 # B3LYP/6-311++G(d,p) empiricaldispersion=gd3bj scf=xqc pop=npa geom=c
 heck
 ----------------------------------------------------------------------

 --------------------------------------
 CID_65209471_JID_5036_Energie_neutraal
 --------------------------------------
 Structure from the checkpoint file:  "JID_5036.chk"
 Charge =  0 Multiplicity = 1

 SCF Done:  E(RB3LYP) =  -1063.94577981     A.U. after   16 cycles
 Normal termination of Gaussian 16 at Thu Dec 10 15:00:02 2020.

 ----------------------------------------------------------------------
 # B3LYP/6-311++G(d,p) empiricaldispersion=gd3bj scf=xqc pop=npa geom=c
 heck
 ----------------------------------------------------------------------

 ------------------------------------
 CID_65209471_JID_5036_Energie_kation
 ------------------------------------
 Structure from the checkpoint file:  "JID_5036.chk"
 Charge =  1 Multiplicity = 2

 SCF Done:  E(UB3LYP) =  -1063.65995619     A.U. after   22 cycles
 Normal termination of Gaussian 16 at Thu Dec 10 15:08:07 2020.
 Gaussian 16:  ES64L-G16RevA.03 25-Dec-2016

 ----------------------------------------------------------------------
 # B3LYP/6-311++G(d,p) empiricaldispersion=gd3bj scf=xqc pop=npa geom=c
 heck
 ----------------------------------------------------------------------

 -----------------------------------
 CID_65209471_JID_5036_Energie_anion
 -----------------------------------
 Structure from the checkpoint file:  "JID_5036.chk"
 Charge = -1 Multiplicity = 2

                         Standard orientation:
 ---------------------------------------------------------------------
 Center     Atomic      Atomic             Coordinates (Angstroms)
 Number     Number       Type             X           Y           Z
 ---------------------------------------------------------------------
      1          6           0       -4.284926    0.493314    0.577845
      2          6           0       -2.900959    0.320040    0.043997
      3          7           0       -2.255187    1.222807   -0.622318
      4          7           0       -0.996733    0.846152   -1.012109
      5          6           0       -0.691943   -0.373314   -0.642719
      6         16           0       -1.975150   -1.177413    0.271058
      7          7           0        0.488113   -0.987724   -0.958590
      8          6           0        0.965341   -2.137509   -0.189746
      9          6           0        1.781973   -1.685197    1.025353
     10          6           0        2.922335   -0.748761    0.593596
     11          6           0        2.473495    0.400121   -0.336928
     12          6           0        1.569579   -0.147270   -1.471490
     13          6           0        1.801669    1.577319    0.349723
     14          8           0        1.916568    2.726314   -0.008910
     15          8           0        1.040860    1.221247    1.416760
     16          1           0       -4.315391    0.378622    1.667549
     17          1           0       -4.626436    1.498308    0.318747
     18          1           0       -4.978170   -0.237262    0.145356
     19          1           0        1.585890   -2.741410   -0.864606
     20          1           0        0.113738   -2.757715    0.101845
     21          1           0        2.196606   -2.562457    1.536486
     22          1           0        1.121004   -1.172391    1.729020
     23          1           0        3.431189   -0.342496    1.474128
     24          1           0        3.669975   -1.335725    0.042170
     25          1           0        3.353121    0.838367   -0.819143
     26          1           0        1.138035    0.664154   -2.056487
     27          1           0        2.183540   -0.773010   -2.130083
     28          1           0        0.597132    2.040030    1.708631
 ---------------------------------------------------------------------

 SCF Done:  E(UB3LYP) =  -1063.93648813     A.U. after   33 cycles
 SCF Done:  E(UB3LYP) =  -1063.93648813     a.u. after    1 cycles

 The electronic state is 2-A.
 Alpha  occ. eigenvalues --  -88.78564 -19.07663 -19.01976 -14.25379 -14.23967
 Alpha  occ. eigenvalues --  -14.22277 -10.21104 -10.17170 -10.13956 -10.11892
 Alpha  occ. eigenvalues --  -10.11461 -10.10019 -10.09316 -10.07946 -10.07143
 Alpha  occ. eigenvalues --   -7.87231  -5.83502  -5.83193  -5.82778  -1.01636
 Alpha  occ. eigenvalues --   -0.93054  -0.92680  -0.87196  -0.74066  -0.72259
 Alpha  occ. eigenvalues --   -0.69173  -0.68156  -0.63169  -0.58669  -0.57859
 Alpha  occ. eigenvalues --   -0.53024  -0.50482  -0.48167  -0.44893  -0.42209
 Alpha  occ. eigenvalues --   -0.39868  -0.39737  -0.38489  -0.37134  -0.35921
 Alpha  occ. eigenvalues --   -0.35657  -0.35066  -0.33717  -0.32779  -0.32100
 Alpha  occ. eigenvalues --   -0.31437  -0.30561  -0.30080  -0.29715  -0.28383
 Alpha  occ. eigenvalues --   -0.26784  -0.24619  -0.23824  -0.23412  -0.21024
 Alpha  occ. eigenvalues --   -0.20250  -0.19033  -0.18627  -0.16454  -0.12011
 Alpha  occ. eigenvalues --    0.04047
 Alpha virt. eigenvalues --    0.05638   0.06694   0.07498   0.07747   0.08474
 Alpha virt. eigenvalues --    0.08738   0.09172   0.09609   0.10187   0.10654
 Alpha virt. eigenvalues --    0.10753   0.11091   0.11945   0.12129   0.12831

  Beta  occ. eigenvalues --  -88.78555 -19.07647 -19.01971 -14.25385 -14.23962
  Beta  occ. eigenvalues --  -14.22279 -10.21102 -10.17129 -10.13916 -10.11876
  Beta  occ. eigenvalues --  -10.11436 -10.10011 -10.09290 -10.07913 -10.07119
  Beta  occ. eigenvalues --   -7.87220  -5.83496  -5.83187  -5.82761  -1.01615
  Beta  occ. eigenvalues --   -0.93026  -0.92662  -0.87180  -0.74016  -0.72216
  Beta  occ. eigenvalues --   -0.69134  -0.68113  -0.63123  -0.58631  -0.57808
  Beta  occ. eigenvalues --   -0.52968  -0.50437  -0.48110  -0.44836  -0.42159
  Beta  occ. eigenvalues --   -0.39835  -0.39717  -0.38443  -0.37100  -0.35879
  Beta  occ. eigenvalues --   -0.35574  -0.35025  -0.33674  -0.32712  -0.32075
  Beta  occ. eigenvalues --   -0.31389  -0.30511  -0.30044  -0.29676  -0.28347
  Beta  occ. eigenvalues --   -0.26744  -0.24577  -0.23768  -0.23390  -0.20933
  Beta  occ. eigenvalues --   -0.20233  -0.18960  -0.18597  -0.16438  -0.11960
  Beta virt. eigenvalues --    0.06157   0.06755   0.07034   0.08171   0.08367
  Beta virt. eigenvalues --    0.08784   0.09036   0.09424   0.10251   0.10654
  Beta virt. eigenvalues --    0.10981   0.11037   0.11446   0.12233   0.12418

 Mulliken charges and spin densities:
               1          2
     1  C    1.061254  -1.489751
     2  C   -0.622225   0.713572
     3  N   -0.019252   0.020829
     4  N   -0.156473  -0.002882
     5  C   -0.739870   0.278956
     6  S    0.599294  -0.638667
     7  N    0.261000   0.043814
     8  C    0.386826  -0.684210
     9  C   -0.139292  -0.073496
    10  C    1.429259  -2.176570
    11  C   -1.094108   1.565438
    12  C    0.428322  -0.848783
    13  C    0.394850  -0.645637
    14  O   -0.288304   0.021107
    15  O   -0.130266   0.042630
    16  H   -0.398540   0.570657
    17  H    0.050448   0.112544
    18  H   -0.000094   0.150027
    19  H   -0.375463   0.554031
    20  H   -0.329249   0.479027
    21  H   -0.658288   0.852538
    22  H   -0.040232   0.185346
    23  H   -0.074579   0.250089
    24  H   -0.513116   0.683491
    25  H   -0.120799   0.398653
    26  H    0.282467  -0.036514
    27  H   -0.314298   0.513181
    28  H    0.120730   0.160582
 Sum of Mulliken charges =  -1.00000   1.00000

 Dipole moment (field-independent basis, Debye):
    X=             -3.6616    Y=              1.3075    Z=             -0.5652  Tot=              3.9289
 Quadrupole moment (field-independent basis, Debye-Ang):
   XX=           -163.6212   YY=           -149.6238   ZZ=           -129.1322
   XY=             14.7250   XZ=              5.1622   YZ=              5.7432

 Summary of Natural Population Analysis:

                                       Natural Population
                Natural  -----------------------------------------------
    Atom  No    Charge         Core      Valence    Rydberg      Total
 -----------------------------------------------------------------------
      C    1   -0.30759      0.99960     2.30132    0.00666     3.30759
      C    2    0.03006      0.99964     1.95332    0.01698     2.96994
      N    3   -0.14575      0.99961     2.63150    0.01463     3.64575
      N    4   -0.19488      0.99962     2.68156    0.01371     3.69488
      C    5    0.15013      0.99956     1.83054    0.01977     2.84987
      S    6    0.14777      4.99943     2.83636    0.01645     7.85223
      N    7   -0.25862      0.99963     2.74541    0.01359     3.75862
      C    8   -0.08204      0.99961     2.07078    0.01166     3.08204
      C    9   -0.20125      0.99962     2.19302    0.00860     3.20125
      C   10   -0.18933      0.99962     2.17952    0.01019     3.18933
      C   11   -0.16286      0.99953     2.15102    0.01231     3.16286
      C   12   -0.07901      0.99959     2.06734    0.01208     3.07901
      C   13    0.41369      0.99967     1.56071    0.02593     2.58631
      O   14   -0.30463      0.99987     3.29874    0.00603     4.30463
      O   15   -0.34753      0.99987     3.34035    0.00730     4.34753
      H   16    0.11038      0.00000     0.38752    0.00210     0.38962
      H   17    0.11446      0.00000     0.38415    0.00140     0.38554
      H   18    0.10477      0.00000     0.39431    0.00091     0.39523
      H   19    0.09991      0.00000     0.39797    0.00212     0.40009
      H   20    0.10290      0.00000     0.39570    0.00140     0.39710
      H   21    0.10558      0.00000     0.39199    0.00243     0.39442
      H   22    0.10609      0.00000     0.39194    0.00198     0.39391
      H   23    0.10439      0.00000     0.39410    0.00151     0.39561
      H   24    0.10386      0.00000     0.39303    0.00311     0.39614
      H   25    0.11716      0.00000     0.38165    0.00119     0.38284
      H   26    0.11857      0.00000     0.37953    0.00190     0.38143
      H   27    0.10188      0.00000     0.39687    0.00125     0.39812
      H   28    0.24188      0.00000     0.25465    0.00348     0.25812
 =======================================================================
   * Total *   -0.00000     18.99446    40.78488    0.22066    60.00000

 Normal termination of Gaussian 16 at Thu Dec 10 15:22:02 2020.
