 Gaussian 16, Revision A.03,

 -----------------------------------------------------------
 # opt freq B3LYP/6-31G(d) empiricaldispersion=gd3bj scf=xqc
 -----------------------------------------------------------

 ------------------------------
 CID_88341226_JID_9380_neutraal
 ------------------------------
 Symbolic Z-matrix:
 Charge =  0 Multiplicity = 1

 SCF Done:  E(RB3LYP) =  -1204.87027320     A.U. after   20 cycles
 SCF Done:  E(RB3LYP) =  -1204.99444968     A.U. after   17 cycles
 SCF Done:  E(RB3LYP) =  -1205.20614024     A.U. after   33 cycles
 SCF Done:  E(RB3LYP) =  -1205.20621697     a.u. after    5 cycles
 SCF Done:  E(RB3LYP) =  -1205.47315119     A.U. after   28 cycles
 SCF Done:  E(RB3LYP) =  -1205.66176196     A.U. after   17 cycles
 SCF Done:  E(RB3LYP) =  -1205.87062948     A.U. after   15 cycles
 SCF Done:  E(RB3LYP) =  -1206.01286761     A.U. after   13 cycles
 SCF Done:  E(RB3LYP) =  -1206.12166215     A.U. after   13 cycles
 SCF Done:  E(RB3LYP) =  -1206.17144089     A.U. after   13 cycles
 SCF Done:  E(RB3LYP) =  -1206.21722072     A.U. after   10 cycles
 SCF Done:  E(RB3LYP) =  -1206.21721181     A.U. after   10 cycles
 SCF Done:  E(RB3LYP) =  -1206.21722575     A.U. after   10 cycles
 SCF Done:  E(RB3LYP) =  -1206.21722675     A.U. after    9 cycles
 SCF Done:  E(RB3LYP) =  -1206.21722691     A.U. after    7 cycles
 Optimization completed.
    -- Stationary point found.
 Normal termination of Gaussian 16 at Sat Dec 12 10:37:13 2020.

 --------------------------------------------------------------------
 #N Geom=AllCheck Guess=TCheck SCRF=Check GenChk RB3LYP/6-31G(d) Freq
 --------------------------------------------------------------------

 Structure from the checkpoint file:  "JID_9380.chk"
 ------------------------------
 CID_88341226_JID_9380_neutraal
 ------------------------------
 Charge =  0 Multiplicity = 1

 SCF Done:  E(RB3LYP) =  -1206.21722691     A.U. after    1 cycles

  Exact polarizability: 223.879  -1.104 154.111 -11.608   0.418 140.580
 Approx polarizability: 317.301  -5.312 252.229 -16.575   4.434 244.547

                      1                      2                      3
                      A                      A                      A
 Frequencies --     35.0665                63.1559               116.5006
 Red. masses --      4.8187                 6.8084                 3.0805
 Frc consts  --      0.0035                 0.0160                 0.0246
 IR Inten    --      1.3248                 1.5941                 0.4746

                      4                      5                      6
                      A                      A                      A
 Frequencies --    117.0580               159.3009               161.8586
 Red. masses --      4.6559                 2.1809                 2.1154
 Frc consts  --      0.0376                 0.0326                 0.0327
 IR Inten    --      0.2411                45.0527                28.3313

                      7                      8                      9
                      A                      A                      A
 Frequencies --    180.6635               193.7258               207.0034
 Red. masses --      2.5056                 2.4205                 2.2076
 Frc consts  --      0.0482                 0.0535                 0.0557
 IR Inten    --      0.7757                 7.5213                10.7174

                     10                     11                     12
                      A                      A                      A
 Frequencies --    214.3471               220.2714               244.0044
 Red. masses --      1.3399                 2.1831                 1.3898
 Frc consts  --      0.0363                 0.0624                 0.0488
 IR Inten    --      0.2376                 2.9799                 0.8386

                     13                     14                     15
                      A                      A                      A
 Frequencies --    254.0722               307.9289               320.0812
 Red. masses --      1.7230                 3.6947                 4.1315
 Frc consts  --      0.0655                 0.2064                 0.2494
 IR Inten    --      0.2938                 0.7664                 3.6967

                     16                     17                     18
                      A                      A                      A
 Frequencies --    340.3051               358.2448               371.1754
 Red. masses --      2.6787                 4.4243                 4.2192
 Frc consts  --      0.1828                 0.3345                 0.3425
 IR Inten    --      1.6844                 0.1584                 2.8161

                     19                     20                     21
                      A                      A                      A
 Frequencies --    385.7514               390.8014               394.5509
 Red. masses --      2.9687                 2.9216                 3.2472
 Frc consts  --      0.2603                 0.2629                 0.2978
 IR Inten    --      3.3796                 0.8098                 2.8273

                     22                     23                     24
                      A                      A                      A
 Frequencies --    419.4837               444.4423               464.3684
 Red. masses --      3.0612                 2.9438                 4.5867
 Frc consts  --      0.3174                 0.3426                 0.5827
 IR Inten    --     11.4981                 9.1760                 6.0525

                     25                     26                     27
                      A                      A                      A
 Frequencies --    473.7847               491.7255               507.7069
 Red. masses --      2.8153                 5.3603                 5.5144
 Frc consts  --      0.3723                 0.7636                 0.8375
 IR Inten    --      2.7845                18.2732                 0.5123

                     28                     29                     30
                      A                      A                      A
 Frequencies --    534.2109               583.6237               615.1592
 Red. masses --      4.9960                 5.2103                 3.3185
 Frc consts  --      0.8400                 1.0456                 0.7399
 IR Inten    --     57.3233                 9.0531                 1.1855

                     31                     32                     33
                      A                      A                      A
 Frequencies --    624.6986               659.5593               676.6422
 Red. masses --      8.1393                 4.0882                 4.1673
 Frc consts  --      1.8714                 1.0478                 1.1241
 IR Inten    --     86.7245                 2.6878                14.3766

                     34                     35                     36
                      A                      A                      A
 Frequencies --    703.4116               709.8880               737.3640
 Red. masses --      1.6683                 2.9995                 4.7554
 Frc consts  --      0.4863                 0.8906                 1.5233
 IR Inten    --     29.1660                 5.7006                13.2649

                     37                     38                     39
                      A                      A                      A
 Frequencies --    761.5833               775.5026               830.7617
 Red. masses --      1.8845                12.1680                 1.6479
 Frc consts  --      0.6440                 4.3116                 0.6701
 IR Inten    --      1.7094               243.4985                 0.9858

                     40                     41                     42
                      A                      A                      A
 Frequencies --    852.8686               885.1704               887.5196
 Red. masses --      4.1265                 1.7865                 2.3844
 Frc consts  --      1.7684                 0.8247                 1.1066
 IR Inten    --      5.9736                10.3294                 7.0462

                     43                     44                     45
                      A                      A                      A
 Frequencies --    909.1093               923.1447               932.9858
 Red. masses --      4.4372                 2.4143                 1.6247
 Frc consts  --      2.1607                 1.2122                 0.8332
 IR Inten    --      6.8851                 1.9027                 2.3810

                     46                     47                     48
                      A                      A                      A
 Frequencies --    951.8311               982.3659               994.3185
 Red. masses --      2.0096                 1.6180                 1.2828
 Frc consts  --      1.0727                 0.9200                 0.7472
 IR Inten    --      0.9225                10.0935                 0.3214

                     49                     50                     51
                      A                      A                      A
 Frequencies --    995.6796              1010.2261              1035.4064
 Red. masses --      2.5993                 1.8122                 1.8640
 Frc consts  --      1.5183                 1.0897                 1.1774
 IR Inten    --     17.2093                 0.2465                 7.3882

                     52                     53                     54
                      A                      A                      A
 Frequencies --   1086.8799              1093.7188              1111.0597
 Red. masses --      1.4690                 2.2424                 1.6969
 Frc consts  --      1.0224                 1.5804                 1.2342
 IR Inten    --      2.9901                 4.9677                 0.0566

                     55                     56                     57
                      A                      A                      A
 Frequencies --   1124.4117              1132.7760              1146.3632
 Red. masses --      2.8162                 2.8043                 1.8339
 Frc consts  --      2.0978                 2.1201                 1.4200
 IR Inten    --     79.5653                26.6507                 6.4412

                     58                     59                     60
                      A                      A                      A
 Frequencies --   1164.0829              1168.9897              1177.9287
 Red. masses --      4.0558                 2.3118                 2.1854
 Frc consts  --      3.2381                 1.8613                 1.7866
 IR Inten    --      2.3770                16.9533               122.4550

                     61                     62                     63
                      A                      A                      A
 Frequencies --   1188.3704              1201.6175              1202.8196
 Red. masses --      2.2801                 1.3465                 1.7114
 Frc consts  --      1.8972                 1.1455                 1.4588
 IR Inten    --     28.8544                 0.0169                 0.4653

                     64                     65                     66
                      A                      A                      A
 Frequencies --   1220.3329              1262.1511              1312.1017
 Red. masses --      3.6738                 1.3237                 1.3959
 Frc consts  --      3.2235                 1.2424                 1.4159
 IR Inten    --      8.8230                 1.3822                 0.0485

                     67                     68                     69
                      A                      A                      A
 Frequencies --   1314.8890              1338.4951              1357.5877
 Red. masses --      1.3775                 1.3830                 3.7893
 Frc consts  --      1.4032                 1.4598                 4.1148
 IR Inten    --      1.6103                 0.1914               152.2387

                     70                     71                     72
                      A                      A                      A
 Frequencies --   1367.3294              1378.2945              1422.7277
 Red. masses --      1.4527                 1.6497                 1.5736
 Frc consts  --      1.6002                 1.8464                 1.8767
 IR Inten    --     24.5162                 5.2838                 1.2966

                     73                     74                     75
                      A                      A                      A
 Frequencies --   1429.0723              1443.2182              1444.3825
 Red. masses --      1.3302                 1.2410                 1.2298
 Frc consts  --      1.6006                 1.5229                 1.5117
 IR Inten    --      3.2212                 4.5619                 6.6874

                     76                     77                     78
                      A                      A                      A
 Frequencies --   1453.9226              1484.5325              1512.5093
 Red. masses --      1.2173                 1.5677                 1.0469
 Frc consts  --      1.5161                 2.0356                 1.4110
 IR Inten    --      2.8196                 1.3625                 4.8532

                     79                     80                     81
                      A                      A                      A
 Frequencies --   1523.8717              1525.0720              1529.8939
 Red. masses --      1.0526                 1.0665                 1.0457
 Frc consts  --      1.4402                 1.4615                 1.4420
 IR Inten    --      0.5739                 6.9238                 0.2737

                     82                     83                     84
                      A                      A                      A
 Frequencies --   1531.2614              1537.7567              1647.0651
 Red. masses --      1.0513                 1.0618                 6.6989
 Frc consts  --      1.4524                 1.4793                10.7072
 IR Inten    --      4.5472                19.9002                14.2206

                     85                     86                     87
                      A                      A                      A
 Frequencies --   1686.6332              1693.5719              1731.0183
 Red. masses --      8.0966                 6.8651                 5.6245
 Frc consts  --     13.5704                11.6012                 9.9297
 IR Inten    --      1.1157                 7.6965                 0.0105

                     88                     89                     90
                      A                      A                      A
 Frequencies --   3049.7512              3051.3371              3071.6182
 Red. masses --      1.0441                 1.0442                 1.0356
 Frc consts  --      5.7217                 5.7282                 5.7566
 IR Inten    --     32.3654                15.0558                17.5769

                     91                     92                     93
                      A                      A                      A
 Frequencies --   3103.8753              3105.4926              3111.2819
 Red. masses --      1.1017                 1.1018                 1.0871
 Frc consts  --      6.2533                 6.2605                 6.2000
 IR Inten    --     19.2814                16.1848                20.9845

                     94                     95                     96
                      A                      A                      A
 Frequencies --   3118.1196              3136.7189              3147.2515
 Red. masses --      1.0875                 1.1008                 1.1029
 Frc consts  --      6.2296                 6.3815                 6.4364
 IR Inten    --     19.9368                 5.6605                 7.4429

                     97                     98                     99
                      A                      A                      A
 Frequencies --   3155.7488              3161.3060              3171.7148
 Red. masses --      1.0831                 1.0857                 1.0891
 Frc consts  --      6.3550                 6.3927                 6.4550
 IR Inten    --      1.0836                 0.2304                22.9029

                    100                    101                    102
                      A                      A                      A
 Frequencies --   3176.7714              3188.6359              3198.6692
 Red. masses --      1.0937                 1.0955                 1.0925
 Frc consts  --      6.5030                 6.5627                 6.5858
 IR Inten    --     37.6338                46.6228                 9.5156

                    103                    104                    105
                      A                      A                      A
 Frequencies --   3202.0883              3207.6321              3702.0167
 Red. masses --      1.0925                 1.0886                 1.0658
 Frc consts  --      6.5997                 6.5993                 8.6062
 IR Inten    --     16.6496                 2.4699               117.0614

 - Thermochemistry -
 -------------------
 Temperature   298.150 Kelvin.  Pressure   1.00000 Atm.
 Atom     1 has atomic number  6 and mass  12.00000

 Molecular mass:   278.09767 amu.
 Principal axes and moments of inertia in atomic units:
                           1         2         3
     Eigenvalues --  2378.739107614.717807755.59478
           X            0.99991   0.00259  -0.01289
           Y           -0.00272   0.99995  -0.00983
           Z            0.01286   0.00986   0.99987
 This molecule is an asymmetric top.
 Rotational symmetry number  1.
 Warning -- assumption of classical behavior for rotation
           may cause significant error
 Rotational temperatures (Kelvin)      0.03641     0.01137     0.01117
 Rotational constants (GHZ):           0.75870     0.23701     0.23270
 Zero-point vibrational energy     798011.8 (Joules/Mol)
                                  190.72939 (Kcal/Mol)
 Warning -- explicit consideration of  30 degrees of freedom as
           vibrations may cause significant error
 Vibrational temperatures:     50.45    90.87   167.62   168.42   229.20
          (Kelvin)            232.88   259.93   278.73   297.83   308.40
                              316.92   351.07   365.55   443.04   460.53
                              489.62   515.43   534.04   555.01   562.28
                              567.67   603.54   639.45   668.12   681.67
                              707.48   730.48   768.61   839.70   885.08
                              898.80   948.96   973.54  1012.05  1021.37
                             1060.90  1095.75  1115.78  1195.28  1227.09
                             1273.56  1276.94  1308.01  1328.20  1342.36
                             1369.47  1413.41  1430.60  1432.56  1453.49
                             1489.72  1563.78  1573.62  1598.57  1617.78
                             1629.81  1649.36  1674.86  1681.92  1694.78
                             1709.80  1728.86  1730.59  1755.79  1815.95
                             1887.82  1891.83  1925.80  1953.27  1967.28
                             1983.06  2046.99  2056.12  2076.47  2078.14
                             2091.87  2135.91  2176.16  2192.51  2194.24
                             2201.18  2203.14  2212.49  2369.76  2426.69
                             2436.67  2490.55  4387.91  4390.19  4419.37
                             4465.78  4468.11  4476.44  4486.28  4513.04
                             4528.19  4540.42  4548.41  4563.39  4570.67
                             4587.74  4602.17  4607.09  4615.07  5326.38

 Zero-point correction=                           0.303947 (Hartree/Particle)
 Thermal correction to Energy=                    0.321640
 Thermal correction to Enthalpy=                  0.322584
 Thermal correction to Gibbs Free Energy=         0.260112
 Sum of electronic and zero-point Energies=          -1205.913280
 Sum of electronic and thermal Energies=             -1205.895587
 Sum of electronic and thermal Enthalpies=           -1205.894643
 Sum of electronic and thermal Free Energies=        -1205.957114

                     E (Thermal)             CV                S
                      KCal/Mol        Cal/Mol-Kelvin    Cal/Mol-Kelvin
 Total                  201.832             71.519            131.482
 Electronic               0.000              0.000              0.000
 Translational            0.889              2.981             42.767
 Rotational               0.889              2.981             33.307
 Vibrational            200.054             65.558             55.408
 Vibration     1          0.594              1.982              5.520
 Vibration     2          0.597              1.972              4.356
 Vibration     3          0.608              1.936              3.158
 Vibration     4          0.608              1.935              3.148
 Vibration     5          0.621              1.892              2.558
 Vibration     6          0.622              1.889              2.528
 Vibration     7          0.630              1.866              2.322
 Vibration     8          0.635              1.849              2.192
 Vibration     9          0.641              1.830              2.070
 Vibration    10          0.644              1.819              2.006
 Vibration    11          0.647              1.810              1.957
 Vibration    12          0.659              1.773              1.773
 Vibration    13          0.665              1.756              1.702
 Vibration    14          0.698              1.659              1.373
 Vibration    15          0.706              1.635              1.310
 Vibration    16          0.720              1.595              1.211
 Vibration    17          0.733              1.558              1.130
 Vibration    18          0.743              1.531              1.075
 Vibration    19          0.754              1.501              1.017
 Vibration    20          0.758              1.490              0.997
 Vibration    21          0.762              1.482              0.983
 Vibration    22          0.782              1.428              0.894
 Vibration    23          0.804              1.373              0.813
 Vibration    24          0.822              1.329              0.753
 Vibration    25          0.831              1.308              0.727
 Vibration    26          0.847              1.268              0.679
 Vibration    27          0.863              1.233              0.639
 Vibration    28          0.889              1.174              0.578
 Vibration    29          0.941              1.067              0.479
 Vibration    30          0.975              1.000              0.424

 Optimization completed.
    -- Stationary point found.
 Normal termination of Gaussian 16 at Sat Dec 12 10:59:50 2020.

 ----------------------------------------------------------------------
 # B3LYP/6-311++G(d,p) empiricaldispersion=gd3bj scf=xqc pop=npa geom=c
 heck
 ----------------------------------------------------------------------

 --------------------------------------
 CID_88341226_JID_9380_Energie_neutraal
 --------------------------------------
 Structure from the checkpoint file:  "JID_9380.chk"
 Charge =  0 Multiplicity = 1

 SCF Done:  E(RB3LYP) =  -1206.46657598     A.U. after   15 cycles
 Normal termination of Gaussian 16 at Sat Dec 12 11:10:11 2020.

 ----------------------------------------------------------------------
 # B3LYP/6-311++G(d,p) empiricaldispersion=gd3bj scf=xqc pop=npa geom=c
 heck
 ----------------------------------------------------------------------

 ------------------------------------
 CID_88341226_JID_9380_Energie_kation
 ------------------------------------
 Structure from the checkpoint file:  "JID_9380.chk"
 Charge =  1 Multiplicity = 2

 SCF Done:  E(UB3LYP) =  -1206.18996862     A.U. after   21 cycles
 Normal termination of Gaussian 16 at Sat Dec 12 11:30:44 2020.
 Gaussian 16:  ES64L-G16RevA.03 25-Dec-2016

 ----------------------------------------------------------------------
 # B3LYP/6-311++G(d,p) empiricaldispersion=gd3bj scf=xqc pop=npa geom=c
 heck
 ----------------------------------------------------------------------

 -----------------------------------
 CID_88341226_JID_9380_Energie_anion
 -----------------------------------
 Structure from the checkpoint file:  "JID_9380.chk"
 Charge = -1 Multiplicity = 2

                         Standard orientation:
 ---------------------------------------------------------------------
 Center     Atomic      Atomic             Coordinates (Angstroms)
 Number     Number       Type             X           Y           Z
 ---------------------------------------------------------------------
      1          6           0        0.878207   -2.336153    0.478716
      2          6           0        1.712925   -1.098283    0.154288
      3          6           0        3.127849   -1.564802   -0.098819
      4          6           0        4.204929   -0.828713   -0.415673
      5          6           0        4.228962    0.615146   -0.593023
      6          6           0        3.177566    1.440680   -0.468838
      7          6           0        1.748567    1.096732   -0.116724
      8          6           0        0.956334    2.402814   -0.107216
      9          6           0       -2.089120    0.357222    2.326455
     10          6           0       -0.926669    0.214107    1.367200
     11          6           0        0.330415    0.249403    1.861264
     12          6           0        1.638108    0.138366    1.134524
     13          6           0        1.194008   -0.113958   -0.971006
     14          6           0       -0.294122   -0.107142   -1.087720
     15          6           0       -1.186138    0.033734   -0.084063
     16         16           0       -2.889526    0.040555   -0.660470
     17          8           0       -3.578563    1.215067   -0.144642
     18          8           0       -2.940206   -0.290465   -2.086681
     19          8           0       -3.516457   -1.277841    0.119734
     20          1           0        1.304663   -2.844838    1.351600
     21          1           0       -0.164499   -2.118606    0.697506
     22          1           0        0.913431   -3.036845   -0.364426
     23          1           0        3.269367   -2.639799   -0.008542
     24          1           0        5.149673   -1.348598   -0.559291
     25          1           0        5.189821    1.053590   -0.853614
     26          1           0        3.354581    2.500331   -0.640445
     27          1           0        1.398642    3.091927    0.622176
     28          1           0        1.016487    2.878534   -1.093481
     29          1           0       -0.093917    2.280196    0.145430
     30          1           0       -1.714477    0.425461    3.350773
     31          1           0       -2.681369    1.250531    2.110990
     32          1           0       -2.770386   -0.497316    2.268977
     33          1           0        0.415701    0.378188    2.937666
     34          1           0        2.467361    0.211702    1.840932
     35          1           0        1.651501   -0.242711   -1.953559
     36          1           0       -0.697680   -0.229918   -2.087445
     37          1           0       -3.705608   -1.929706   -0.581203
 ---------------------------------------------------------------------

 SCF Done:  E(UB3LYP) =  -1206.48657229     A.U. after   33 cycles
 SCF Done:  E(UB3LYP) =  -1206.48657229     a.u. after    1 cycles

 The electronic state is 2-A.
 Alpha  occ. eigenvalues --  -88.94144 -19.04843 -18.99641 -18.99235 -10.06218
 Alpha  occ. eigenvalues --  -10.06184 -10.06107 -10.06079 -10.05832 -10.05759
 Alpha  occ. eigenvalues --  -10.05044 -10.05029 -10.04223 -10.03542 -10.03206
 Alpha  occ. eigenvalues --  -10.02932 -10.02802 -10.00841 -10.00810  -8.00256
 Alpha  occ. eigenvalues --   -5.96688  -5.96487  -5.96202  -1.01817  -0.91381
 Alpha  occ. eigenvalues --   -0.88907  -0.75933  -0.69674  -0.66589  -0.66444
 Alpha  occ. eigenvalues --   -0.63325  -0.59275  -0.58247  -0.57009  -0.55432
 Alpha  occ. eigenvalues --   -0.50947  -0.49315  -0.47215  -0.46840  -0.42339
 Alpha  occ. eigenvalues --   -0.39177  -0.38981  -0.38250  -0.37920  -0.36230
 Alpha  occ. eigenvalues --   -0.35593  -0.33025  -0.31869  -0.31573  -0.31149
 Alpha  occ. eigenvalues --   -0.31058  -0.29585  -0.28680  -0.27849  -0.27371
 Alpha  occ. eigenvalues --   -0.27045  -0.26599  -0.24858  -0.24319  -0.24223
 Alpha  occ. eigenvalues --   -0.22618  -0.22263  -0.21883  -0.21519  -0.21121
 Alpha  occ. eigenvalues --   -0.20178  -0.19077  -0.18520  -0.18412  -0.17333
 Alpha  occ. eigenvalues --   -0.15404  -0.15321  -0.12656  -0.07353   0.03657
 Alpha virt. eigenvalues --    0.06651   0.07246   0.08406   0.08880   0.09540
 Alpha virt. eigenvalues --    0.10211   0.10999   0.11317   0.11437   0.12167
 Alpha virt. eigenvalues --    0.12933   0.13323   0.13755   0.14218   0.14661

  Beta  occ. eigenvalues --  -88.94137 -19.04804 -18.99651 -18.99204 -10.06215
  Beta  occ. eigenvalues --  -10.06182 -10.06100 -10.06069 -10.05660 -10.05589
  Beta  occ. eigenvalues --  -10.05110 -10.05065 -10.04091 -10.03493 -10.03208
  Beta  occ. eigenvalues --  -10.02933 -10.02804 -10.00519 -10.00142  -8.00250
  Beta  occ. eigenvalues --   -5.96664  -5.96480  -5.96202  -1.01765  -0.91307
  Beta  occ. eigenvalues --   -0.88886  -0.75655  -0.69393  -0.66368  -0.66310
  Beta  occ. eigenvalues --   -0.62700  -0.59239  -0.58129  -0.56780  -0.55135
  Beta  occ. eigenvalues --   -0.50872  -0.49197  -0.47106  -0.46058  -0.42166
  Beta  occ. eigenvalues --   -0.39091  -0.38846  -0.38025  -0.37829  -0.36025
  Beta  occ. eigenvalues --   -0.35518  -0.32737  -0.31832  -0.31374  -0.31124
  Beta  occ. eigenvalues --   -0.30877  -0.29315  -0.28566  -0.27724  -0.27290
  Beta  occ. eigenvalues --   -0.26915  -0.26539  -0.24792  -0.24280  -0.24130
  Beta  occ. eigenvalues --   -0.22453  -0.22129  -0.21743  -0.21323  -0.21032
  Beta  occ. eigenvalues --   -0.20111  -0.18969  -0.18331  -0.17911  -0.17145
  Beta  occ. eigenvalues --   -0.15251  -0.13913  -0.11959  -0.05904
  Beta virt. eigenvalues --    0.06674   0.07226   0.08390   0.08850   0.09509
  Beta virt. eigenvalues --    0.10170   0.10312   0.11093   0.11369   0.11422
  Beta virt. eigenvalues --    0.12193   0.12905   0.13325   0.13707   0.14167

 Mulliken charges and spin densities:
               1          2
     1  C   -0.647045  -0.019937
     2  C    0.661095  -0.002075
     3  C   -0.054922   0.012531
     4  C   -0.328182   0.007291
     5  C   -0.299949   0.003023
     6  C   -0.082533   0.051419
     7  C    0.603312  -0.013319
     8  C   -0.600993  -0.044984
     9  C   -0.583487   0.025778
    10  C    0.218747  -0.025488
    11  C   -0.655373   0.297187
    12  C   -0.419867   0.038886
    13  C   -0.682721   0.009136
    14  C   -0.294447   0.570897
    15  C   -1.076887   0.073474
    16  S    0.839626   0.015465
    17  O   -0.163791   0.013939
    18  O   -0.113770  -0.002302
    19  O   -0.186105   0.005514
    20  H    0.120272   0.009054
    21  H    0.146495   0.006285
    22  H    0.124211   0.008426
    23  H    0.155752  -0.000185
    24  H    0.135681  -0.000255
    25  H    0.137835   0.000070
    26  H    0.154952  -0.000210
    27  H    0.121203   0.007428
    28  H    0.121622   0.009850
    29  H    0.170041   0.000228
    30  H    0.100836  -0.000991
    31  H    0.193838   0.000326
    32  H    0.178426   0.000048
    33  H    0.101595  -0.024917
    34  H    0.226285   0.001017
    35  H    0.224828   0.001754
    36  H    0.203998  -0.041324
    37  H    0.249423   0.006959
 Sum of Mulliken charges =  -1.00000   1.00000

 Dipole moment (field-independent basis, Debye):
    X=              3.6168    Y=             -2.1077    Z=              0.4554  Tot=              4.2109
 Quadrupole moment (field-independent basis, Debye-Ang):
   XX=           -164.6630   YY=           -132.5676   ZZ=           -142.2110
   XY=              9.1579   XZ=             -3.5719   YZ=              1.1883

 Summary of Natural Population Analysis:

                                       Natural Population
                Natural  -----------------------------------------------
    Atom  No    Charge         Core      Valence    Rydberg      Total
 -----------------------------------------------------------------------
      C    1   -0.28458      0.99963     2.27925    0.00570     3.28458
      C    2   -0.03170      0.99954     2.01834    0.01383     3.03170
      C    3   -0.06232      0.99952     2.05280    0.01000     3.06232
      C    4   -0.12498      0.99954     2.11600    0.00944     3.12498
      C    5   -0.12691      0.99954     2.11793    0.00944     3.12691
      C    6   -0.06023      0.99952     2.05072    0.00999     3.06023
      C    7   -0.03182      0.99954     2.01849    0.01380     3.03182
      C    8   -0.28458      0.99963     2.27921    0.00574     3.28458
      C    9   -0.29493      0.99963     2.29034    0.00495     3.29493
      C   10   -0.03381      0.99945     2.02251    0.01185     3.03381
      C   11   -0.03790      0.99949     2.02779    0.01063     3.03790
      C   12   -0.10412      0.99953     2.09115    0.01344     3.10412
      C   13   -0.10756      0.99953     2.09465    0.01338     3.10756
      C   14    0.06831      0.99949     1.92152    0.01068     2.93169
      C   15   -0.15161      0.99931     2.13208    0.02022     3.15161
      S   16    1.12974      4.99925     1.77103    0.09997     6.87026
      O   17   -0.45604      0.99990     3.45022    0.00592     4.45604
      O   18   -0.47425      0.99990     3.46888    0.00546     4.47425
      O   19   -0.44408      0.99991     3.43766    0.00651     4.44408
      H   20    0.09294      0.00000     0.40617    0.00088     0.40706
      H   21    0.11661      0.00000     0.38236    0.00103     0.38339
      H   22    0.09389      0.00000     0.40525    0.00085     0.40611
      H   23    0.09184      0.00000     0.40705    0.00111     0.40816
      H   24    0.09115      0.00000     0.40698    0.00187     0.40885
      H   25    0.09128      0.00000     0.40685    0.00187     0.40872
      H   26    0.09216      0.00000     0.40673    0.00111     0.40784
      H   27    0.09276      0.00000     0.40636    0.00088     0.40724
      H   28    0.09466      0.00000     0.40450    0.00084     0.40534
      H   29    0.11770      0.00000     0.38130    0.00100     0.38230
      H   30    0.09327      0.00000     0.40584    0.00089     0.40673
      H   31    0.10761      0.00000     0.39133    0.00106     0.39239
      H   32    0.10319      0.00000     0.39560    0.00121     0.39681
      H   33    0.08781      0.00000     0.41119    0.00099     0.41219
      H   34    0.09932      0.00000     0.39960    0.00108     0.40068
      H   35    0.10095      0.00000     0.39802    0.00103     0.39905
      H   36    0.10425      0.00000     0.39465    0.00110     0.39575
      H   37    0.24198      0.00000     0.25516    0.00286     0.25802
 =======================================================================
   * Total *   -0.00000     22.99184    50.70549    0.30267    74.00000

 Normal termination of Gaussian 16 at Sat Dec 12 12:02:55 2020.
