 Gaussian 16, Revision A.03,

 -----------------------------------------------------------
 # opt freq B3LYP/6-31G(d) empiricaldispersion=gd3bj scf=xqc
 -----------------------------------------------------------

 -------------------------------
 CID_118856807_JID_4676_neutraal
 -------------------------------
 Symbolic Z-matrix:
 Charge =  0 Multiplicity = 1

 SCF Done:  E(RB3LYP) =  -764.657282809     A.U. after   14 cycles
 SCF Done:  E(RB3LYP) =  -764.661826770     A.U. after   12 cycles
 SCF Done:  E(RB3LYP) =  -764.661185737     A.U. after   12 cycles
 SCF Done:  E(RB3LYP) =  -764.662963816     A.U. after   12 cycles
 SCF Done:  E(RB3LYP) =  -764.663137480     A.U. after   13 cycles
 SCF Done:  E(RB3LYP) =  -764.663450815     A.U. after   13 cycles
 SCF Done:  E(RB3LYP) =  -764.663479467     A.U. after   13 cycles
 SCF Done:  E(RB3LYP) =  -764.664158279     A.U. after   13 cycles
 SCF Done:  E(RB3LYP) =  -764.664650560     A.U. after   12 cycles
 SCF Done:  E(RB3LYP) =  -764.665327072     A.U. after   13 cycles
 SCF Done:  E(RB3LYP) =  -764.666051497     A.U. after    9 cycles
 SCF Done:  E(RB3LYP) =  -764.666057066     A.U. after   10 cycles
 SCF Done:  E(RB3LYP) =  -764.666058083     A.U. after    8 cycles
 SCF Done:  E(RB3LYP) =  -764.666058453     A.U. after    8 cycles
 SCF Done:  E(RB3LYP) =  -764.666058533     A.U. after    8 cycles
 Optimization completed.
    -- Stationary point found.

 1\1\GINC-NODE356\FOpt\RB3LYP\6-31G(d)\C8H14O6\VSC10255\10-Dec-2020\0\\
 # opt freq B3LYP/6-31G(d) empiricaldispersion=gd3bj scf=xqc\\CID_11885
 6807_JID_4676_neutraal\\0,1\C,1.4421499453,-0.0295236503,0.1087748699\
 C,0.7642967231,0.6932163588,-1.0519934386\O,1.6107590429,0.8412965652,
 -2.192637091\C,2.6336059732,1.8138870368,-2.095823154\C,2.1432559013,3
 .2517698795,-2.233663013\O,1.5742885383,3.7413466878,-0.9950449909\C,2
 .3866390102,4.4748680259,-0.1983339628\O,3.5164547579,4.8035823529,-0.
 4834093608\C,1.6943009435,4.7881398484,1.1093033983\C,1.595923544,3.55

 Normal termination of Gaussian 16 at Thu Dec 10 10:25:03 2020.

 --------------------------------------------------------------------
 #N Geom=AllCheck Guess=TCheck SCRF=Check GenChk RB3LYP/6-31G(d) Freq
 --------------------------------------------------------------------

 Structure from the checkpoint file:  "JID_4676.chk"
 -------------------------------
 CID_118856807_JID_4676_neutraal
 -------------------------------
 Charge =  0 Multiplicity = 1

 SCF Done:  E(RB3LYP) =  -764.666058533     A.U. after    1 cycles

  Exact polarizability: 116.658   2.438  93.780   1.474   4.759  91.747
 Approx polarizability: 159.381   2.318 124.725  -2.680  13.823 141.868

                      1                      2                      3
                      A                      A                      A
 Frequencies --     24.0305                33.3523                43.9387
 Red. masses --      9.6434                 4.4403                 4.1167
 Frc consts  --      0.0033                 0.0029                 0.0047
 IR Inten    --      1.1527                 0.1357                 0.3748

                      4                      5                      6
                      A                      A                      A
 Frequencies --     50.2169                64.1952                94.7793
 Red. masses --      4.9376                 5.2596                 3.9956
 Frc consts  --      0.0073                 0.0128                 0.0211
 IR Inten    --      0.6545                 1.4985                 0.9791

                      7                      8                      9
                      A                      A                      A
 Frequencies --    105.0665               141.0392               172.8427
 Red. masses --      5.6680                 4.4549                 2.0968
 Frc consts  --      0.0369                 0.0522                 0.0369
 IR Inten    --      0.7474                 1.9227                 6.8025

                     10                     11                     12
                      A                      A                      A
 Frequencies --    245.9137               267.5846               269.7765
 Red. masses --      1.9496                 2.0146                 5.1205
 Frc consts  --      0.0695                 0.0850                 0.2196
 IR Inten    --      0.6107                 3.7812                 3.9714

                     13                     14                     15
                      A                      A                      A
 Frequencies --    293.5923               324.4132               337.4239
 Red. masses --      4.9452                 3.9919                 2.3820
 Frc consts  --      0.2511                 0.2475                 0.1598
 IR Inten    --     15.0068                 4.2341                 1.9973

                     16                     17                     18
                      A                      A                      A
 Frequencies --    363.0491               404.6105               451.7569
 Red. masses --      3.3219                 1.1419                 2.8658
 Frc consts  --      0.2580                 0.1101                 0.3446
 IR Inten    --      3.3505                98.4923                10.8266

                     19                     20                     21
                      A                      A                      A
 Frequencies --    459.5423               489.1293               513.1972
 Red. masses --      2.4946                 4.8994                 2.1028
 Frc consts  --      0.3104                 0.6906                 0.3263
 IR Inten    --      5.3111                13.2919                12.5934

                     22                     23                     24
                      A                      A                      A
 Frequencies --    589.4382               647.9853               656.1345
 Red. masses --      1.3588                 4.4471                 3.3717
 Frc consts  --      0.2781                 1.1002                 0.8552
 IR Inten    --     79.9481                18.0209                11.0151

                     25                     26                     27
                      A                      A                      A
 Frequencies --    732.7424               762.7599               806.5690
 Red. masses --      4.8929                 3.1251                 1.4944
 Frc consts  --      1.5478                 1.0713                 0.5728
 IR Inten    --     13.1663                24.9196                 4.5526

                     28                     29                     30
                      A                      A                      A
 Frequencies --    818.8635               828.7294               848.7518
 Red. masses --      2.9537                 1.9890                 3.0743
 Frc consts  --      1.1669                 0.8049                 1.3048
 IR Inten    --     17.2725                 3.0507                23.0369

                     31                     32                     33
                      A                      A                      A
 Frequencies --    911.2929               976.5084              1006.9607
 Red. masses --      2.5068                 2.7619                 2.2075
 Frc consts  --      1.2265                 1.5517                 1.3188
 IR Inten    --     10.1883                47.4542                26.9762

                     34                     35                     36
                      A                      A                      A
 Frequencies --   1031.8793              1040.8063              1072.1903
 Red. masses --      2.7557                 3.9309                 3.7065
 Frc consts  --      1.7288                 2.5089                 2.5105
 IR Inten    --     12.2003                24.2464                26.7451

                     37                     38                     39
                      A                      A                      A
 Frequencies --   1112.7620              1122.3813              1126.2621
 Red. masses --      2.0939                 2.2691                 4.0388
 Frc consts  --      1.5276                 1.6841                 3.0184
 IR Inten    --     13.9085                 8.4862               226.5554

                     40                     41                     42
                      A                      A                      A
 Frequencies --   1160.7674              1168.3871              1185.7996
 Red. masses --      3.0804                 1.4841                 2.2947
 Frc consts  --      2.4454                 1.1937                 1.9011
 IR Inten    --    138.6006                57.5606               100.7739

                     43                     44                     45
                      A                      A                      A
 Frequencies --   1219.5017              1270.4931              1283.9119
 Red. masses --      1.8580                 1.5637                 1.3880
 Frc consts  --      1.6280                 1.4871                 1.3480
 IR Inten    --     31.5133               101.6386                91.5173

                     46                     47                     48
                      A                      A                      A
 Frequencies --   1306.8886              1329.8261              1343.1445
 Red. masses --      1.3060                 1.7353                 1.1724
 Frc consts  --      1.3142                 1.8081                 1.2462
 IR Inten    --     48.1959               121.9713                30.2758

                     49                     50                     51
                      A                      A                      A
 Frequencies --   1361.6824              1370.6014              1382.0273
 Red. masses --      1.1146                 1.6171                 1.3823
 Frc consts  --      1.2177                 1.7898                 1.5556
 IR Inten    --      6.3209                48.1863                38.8391

                     52                     53                     54
                      A                      A                      A
 Frequencies --   1406.3774              1423.4498              1438.0908
 Red. masses --      1.2301                 1.3055                 1.2898
 Frc consts  --      1.4335                 1.5586                 1.5717
 IR Inten    --     17.9698                 2.0716                16.6637

                     55                     56                     57
                      A                      A                      A
 Frequencies --   1446.5194              1487.1278              1500.5055
 Red. masses --      1.3104                 1.5458                 1.0999
 Frc consts  --      1.6155                 2.0142                 1.4591
 IR Inten    --     11.9560                27.3799                13.7890

                     58                     59                     60
                      A                      A                      A
 Frequencies --   1504.4014              1509.8277              1527.0102
 Red. masses --      1.1200                 1.0784                 1.0565
 Frc consts  --      1.4934                 1.4483                 1.4514
 IR Inten    --     13.0156                 3.1843                 2.9821

                     61                     62                     63
                      A                      A                      A
 Frequencies --   1531.2743              1547.7706              1830.1830
 Red. masses --      1.0626                 1.0738                10.9808
 Frc consts  --      1.4680                 1.5156                21.6708
 IR Inten    --      5.4312                 2.6400               220.8606

                     64                     65                     66
                      A                      A                      A
 Frequencies --   1841.1075              3041.3498              3052.6760
 Red. masses --      9.9309                 1.0600                 1.0556
 Frc consts  --     19.8333                 5.7769                 5.7958
 IR Inten    --    300.4552                37.0826                23.1044

                     67                     68                     69
                      A                      A                      A
 Frequencies --   3056.7750              3092.6362              3094.3965
 Red. masses --      1.0454                 1.0867                 1.0656
 Frc consts  --      5.7553                 6.1237                 6.0117
 IR Inten    --     10.1956                 7.4666                 0.8861

                     70                     71                     72
                      A                      A                      A
 Frequencies --   3100.3546              3100.9138              3107.2607
 Red. masses --      1.0829                 1.0977                 1.0724
 Frc consts  --      6.1327                 6.2191                 6.1005
 IR Inten    --      3.7140                37.2870                50.9405

                     73                     74                     75
                      A                      A                      A
 Frequencies --   3121.1188              3143.1179              3155.1327
 Red. masses --      1.0998                 1.1028                 1.1076
 Frc consts  --      6.3123                 6.4188                 6.4964
 IR Inten    --     27.5725                35.0463                 6.2422

                     76                     77                     78
                      A                      A                      A
 Frequencies --   3162.6466              3663.3623              3678.0687
 Red. masses --      1.1103                 1.0650                 1.0642
 Frc consts  --      6.5432                 8.4213                 8.4822
 IR Inten    --      7.6342                66.4757                63.7207

 - Thermochemistry -
 -------------------
 Temperature   298.150 Kelvin.  Pressure   1.00000 Atm.
 Atom     1 has atomic number  6 and mass  12.00000

 Molecular mass:   206.07904 amu.
 Principal axes and moments of inertia in atomic units:
                           1         2         3
     Eigenvalues --  1988.221993885.485664606.63949
           X            0.99982  -0.01731   0.00768
           Y            0.01732   0.99985  -0.00177
           Z           -0.00764   0.00190   0.99997
 This molecule is an asymmetric top.
 Rotational symmetry number  1.
 Warning -- assumption of classical behavior for rotation
           may cause significant error
 Rotational temperatures (Kelvin)      0.04356     0.02229     0.01880
 Rotational constants (GHZ):           0.90772     0.46448     0.39177
 Zero-point vibrational energy     605244.4 (Joules/Mol)
                                  144.65687 (Kcal/Mol)
 Warning -- explicit consideration of  22 degrees of freedom as
           vibrations may cause significant error
 Vibrational temperatures:     34.57    47.99    63.22    72.25    92.36
          (Kelvin)            136.37   151.17   202.92   248.68   353.81
                              384.99   388.15   422.41   466.76   485.48
                              522.35   582.14   649.98   661.18   703.75
                              738.38   848.07   932.31   944.03  1054.25
                             1097.44  1160.47  1178.16  1192.36  1221.16
                             1311.15  1404.98  1448.79  1484.64  1497.49
                             1542.64  1601.02  1614.86  1620.44  1670.09
                             1681.05  1706.10  1754.59  1827.96  1847.26
                             1880.32  1913.32  1932.49  1959.16  1971.99
                             1988.43  2023.46  2048.03  2069.09  2081.22
                             2139.65  2158.89  2164.50  2172.31  2197.03
                             2203.16  2226.90  2633.23  2648.94  4375.82
                             4392.12  4398.02  4449.61  4452.15  4460.72
                             4461.52  4470.66  4490.59  4522.25  4539.53
                             4550.34  5270.76  5291.92

 Zero-point correction=                           0.230525 (Hartree/Particle)
 Thermal correction to Energy=                    0.245974
 Thermal correction to Enthalpy=                  0.246919
 Thermal correction to Gibbs Free Energy=         0.185344
 Sum of electronic and zero-point Energies=           -764.435533
 Sum of electronic and thermal Energies=              -764.420084
 Sum of electronic and thermal Enthalpies=            -764.419140
 Sum of electronic and thermal Free Energies=         -764.480715

                     E (Thermal)             CV                S
                      KCal/Mol        Cal/Mol-Kelvin    Cal/Mol-Kelvin
 Total                  154.351             54.610            129.596
 Electronic               0.000              0.000              0.000
 Translational            0.889              2.981             41.873
 Rotational               0.889              2.981             31.943
 Vibrational            152.574             48.649             55.779
 Vibration     1          0.593              1.985              6.270
 Vibration     2          0.594              1.983              5.619
 Vibration     3          0.595              1.980              5.073
 Vibration     4          0.595              1.978              4.809
 Vibration     5          0.597              1.971              4.324
 Vibration     6          0.603              1.953              3.559
 Vibration     7          0.605              1.945              3.358
 Vibration     8          0.615              1.912              2.790
 Vibration     9          0.626              1.876              2.404
 Vibration    10          0.660              1.770              1.760
 Vibration    11          0.673              1.733              1.612
 Vibration    12          0.674              1.729              1.598
 Vibration    13          0.688              1.686              1.453
 Vibration    14          0.709              1.627              1.288
 Vibration    15          0.718              1.601              1.224
 Vibration    16          0.737              1.548              1.109
 Vibration    17          0.770              1.460              0.946
 Vibration    18          0.810              1.357              0.790
 Vibration    19          0.817              1.340              0.767
 Vibration    20          0.845              1.274              0.686
 Vibration    21          0.868              1.221              0.626
 Vibration    22          0.947              1.054              0.468

                           ! Non-Optimized Parameters !

 1\1\GINC-NODE356\Freq\RB3LYP\6-31G(d)\C8H14O6\VSC10255\10-Dec-2020\0\\
 #N Geom=AllCheck Guess=TCheck SCRF=Check GenChk RB3LYP/6-31G(d) Freq\\
 CID_118856807_JID_4676_neutraal\\0,1\C,1.4421499453,-0.0295236503,0.10
 87748699\C,0.7642967231,0.6932163588,-1.0519934386\O,1.6107590429,0.84
 12965652,-2.192637091\C,2.6336059732,1.8138870368,-2.095823154\C,2.143
 2559013,3.2517698795,-2.233663013\O,1.5742885383,3.7413466878,-0.99504
 49909\C,2.3866390102,4.4748680259,-0.1983339628\O,3.5164547579,4.80358
 23529,-0.4834093608\C,1.6943009435,4.7881398484,1.1093033983\C,1.59592

 Normal termination of Gaussian 16 at Thu Dec 10 10:32:33 2020.

 ----------------------------------------------------------------------
 # B3LYP/6-311++G(d,p) empiricaldispersion=gd3bj scf=xqc pop=npa geom=c
 heck
 ----------------------------------------------------------------------

 ---------------------------------------
 CID_118856807_JID_4676_Energie_neutraal
 ---------------------------------------
 Structure from the checkpoint file:  "JID_4676.chk"
 Charge =  0 Multiplicity = 1

 SCF Done:  E(RB3LYP) =  -764.914234693     A.U. after   14 cycles
 Normal termination of Gaussian 16 at Thu Dec 10 10:36:19 2020.

 ----------------------------------------------------------------------
 # B3LYP/6-311++G(d,p) empiricaldispersion=gd3bj scf=xqc pop=npa geom=c
 heck
 ----------------------------------------------------------------------

 -------------------------------------
 CID_118856807_JID_4676_Energie_kation
 -------------------------------------
 Structure from the checkpoint file:  "JID_4676.chk"
 Charge =  1 Multiplicity = 2

 SCF Done:  E(UB3LYP) =  -764.571378004     A.U. after   28 cycles
 Normal termination of Gaussian 16 at Thu Dec 10 10:46:15 2020.
 Gaussian 16:  ES64L-G16RevA.03 25-Dec-2016

 ------------------------------------
 CID_118856807_JID_4676_Energie_anion
 ------------------------------------
 Structure from the checkpoint file:  "JID_4676.chk"
 Charge = -1 Multiplicity = 2

                         Standard orientation:
 ---------------------------------------------------------------------
 Center     Atomic      Atomic             Coordinates (Angstroms)
 Number     Number       Type             X           Y           Z
 ---------------------------------------------------------------------
      1          6           0        1.651093   -2.483965    0.060396
      2          6           0        2.416540   -1.457390   -0.769939
      3          8           0        3.228806   -0.588579    0.020558
      4          6           0        2.550479    0.411799    0.755837
      5          6           0        2.062388    1.584708   -0.088556
      6          8           0        0.828181    1.267953   -0.777022
      7          6           0       -0.320610    1.678435   -0.190081
      8          8           0       -0.378000    2.345089    0.818921
      9          6           0       -1.515767    1.151834   -0.952758
     10          6           0       -1.750045   -0.368751   -0.738888
     11          6           0       -2.108487   -0.634574    0.716403
     12          8           0       -3.248648   -0.805164    1.091259
     13          8           0       -1.042859   -0.619931    1.537318
     14          8           0       -2.792487   -0.827176   -1.562483
     15          1           0        2.343040   -3.056862    0.686437
     16          1           0        1.124310   -3.182686   -0.600680
     17          1           0        0.906167   -2.013888    0.709253
     18          1           0        3.124072   -1.967412   -1.431430
     19          1           0        1.731482   -0.877900   -1.401705
     20          1           0        1.706842    0.007996    1.332470
     21          1           0        3.289032    0.794734    1.469083
     22          1           0        1.893707    2.463186    0.537876
     23          1           0        2.787226    1.811282   -0.873286
     24          1           0       -2.403911    1.702202   -0.633358
     25          1           0       -1.370391    1.293316   -2.026929
     26          1           0       -0.834490   -0.911060   -0.994810
     27          1           0       -1.376406   -0.705895    2.451000
     28          1           0       -3.594161   -0.827113   -1.006820
 ---------------------------------------------------------------------

 SCF Done:  E(UB3LYP) =  -764.901884738     A.U. after   33 cycles
 SCF Done:  E(UB3LYP) =  -764.901884738     a.u. after    1 cycles

 The electronic state is 2-A.
 Alpha  occ. eigenvalues --  -19.07646 -19.07561 -19.03937 -19.02537 -19.02439
 Alpha  occ. eigenvalues --  -19.02115 -10.21248 -10.20732 -10.15425 -10.13085
 Alpha  occ. eigenvalues --  -10.12043 -10.11346 -10.09897 -10.05587  -1.02067
 Alpha  occ. eigenvalues --   -1.01515  -0.95296  -0.93781  -0.92833  -0.92606
 Alpha  occ. eigenvalues --   -0.71103  -0.67568  -0.64259  -0.60229  -0.56369
 Alpha  occ. eigenvalues --   -0.51986  -0.50095  -0.46677  -0.45245  -0.42712
 Alpha  occ. eigenvalues --   -0.41301  -0.40245  -0.39074  -0.38690  -0.38100
 Alpha  occ. eigenvalues --   -0.36879  -0.36006  -0.33575  -0.32941  -0.32740
 Alpha  occ. eigenvalues --   -0.32020  -0.30436  -0.29962  -0.28611  -0.27735
 Alpha  occ. eigenvalues --   -0.26896  -0.26324  -0.25349  -0.23531  -0.22715
 Alpha  occ. eigenvalues --   -0.21018  -0.20569  -0.19700  -0.18479  -0.16088
 Alpha  occ. eigenvalues --    0.04706
 Alpha virt. eigenvalues --    0.07000   0.07389   0.07570   0.07727   0.09013
 Alpha virt. eigenvalues --    0.09316   0.10106   0.10308   0.10599   0.10773
 Alpha virt. eigenvalues --    0.12269   0.13019   0.13875   0.14765   0.14935

  Beta  occ. eigenvalues --  -19.07641 -19.07480 -19.03925 -19.02457 -19.02437
  Beta  occ. eigenvalues --  -19.02103 -10.21239 -10.20607 -10.15421 -10.13068
  Beta  occ. eigenvalues --  -10.12022 -10.11329 -10.09868 -10.05554  -1.01912
  Beta  occ. eigenvalues --   -1.01474  -0.95240  -0.93767  -0.92815  -0.92481
  Beta  occ. eigenvalues --   -0.71050  -0.67522  -0.64207  -0.60083  -0.56297
  Beta  occ. eigenvalues --   -0.51853  -0.50032  -0.46628  -0.45141  -0.42659
  Beta  occ. eigenvalues --   -0.41214  -0.40191  -0.38913  -0.38629  -0.38049
  Beta  occ. eigenvalues --   -0.36820  -0.35862  -0.33551  -0.32857  -0.32576
  Beta  occ. eigenvalues --   -0.31978  -0.30396  -0.29913  -0.28567  -0.27688
  Beta  occ. eigenvalues --   -0.26864  -0.26252  -0.25302  -0.23289  -0.22655
  Beta  occ. eigenvalues --   -0.20983  -0.20544  -0.19605  -0.18455  -0.16073
  Beta virt. eigenvalues --    0.07039   0.07800   0.08076   0.08328   0.08533
  Beta virt. eigenvalues --    0.09289   0.10041   0.10266   0.10642   0.11043
  Beta virt. eigenvalues --    0.11105   0.12465   0.13275   0.14239   0.14847

 Mulliken charges and spin densities:
               1          2
     1  C    0.740301  -1.108673
     2  C   -0.313227  -0.050347
     3  O   -0.112392   0.031619
     4  C   -0.134639  -0.229213
     5  C    0.352006  -0.489356
     6  O    0.006618   0.035068
     7  C   -0.172512  -0.037203
     8  O   -0.228460   0.027599
     9  C    0.216056  -0.314495
    10  C   -0.345204  -0.281612
    11  C    0.516617  -0.302005
    12  O   -0.329654   0.037821
    13  O   -0.242939   0.085030
    14  O   -0.191921   0.023297
    15  H   -0.147374   0.311767
    16  H   -0.180984   0.303946
    17  H   -0.164870   0.338376
    18  H   -0.152338   0.319279
    19  H    0.033244   0.126868
    20  H    0.420558  -0.232256
    21  H   -0.531598   0.716859
    22  H   -0.043673   0.208241
    23  H   -0.103890   0.310653
    24  H    0.231242  -0.049590
    25  H   -0.289495   0.510526
    26  H    0.414046  -0.136255
    27  H   -0.453177   0.790807
    28  H    0.207657   0.053249
 Sum of Mulliken charges =  -1.00000   1.00000

 Dipole moment (field-independent basis, Debye):
    X=             -1.3636    Y=              2.1370    Z=             -3.7806  Tot=              4.5519
 Quadrupole moment (field-independent basis, Debye-Ang):
   XX=           -137.2622   YY=           -123.1211   ZZ=           -127.1806
   XY=             -1.2959   XZ=              2.7831   YZ=              0.9997

 Summary of Natural Population Analysis:

                                       Natural Population
                Natural  -----------------------------------------------
    Atom  No    Charge         Core      Valence    Rydberg      Total
 -----------------------------------------------------------------------
      C    1   -0.30644      0.99966     2.30140    0.00538     3.30644
      C    2   -0.01129      0.99959     2.00071    0.01099     3.01129
      O    3   -0.30298      0.99989     3.29285    0.01024     4.30298
      C    4   -0.02584      0.99956     2.01329    0.01299     3.02584
      C    5   -0.03341      0.99955     2.02237    0.01149     3.03341
      O    6   -0.28837      0.99986     3.27849    0.01002     4.28837
      C    7    0.41092      0.99968     1.56466    0.02475     2.58908
      O    8   -0.29985      0.99987     3.29413    0.00586     4.29985
      C    9   -0.23797      0.99956     2.22953    0.00888     3.23797
      C   10    0.02413      0.99954     1.96252    0.01381     2.97587
      C   11    0.41023      0.99970     1.56387    0.02620     2.58977
      O   12   -0.30987      0.99987     3.30345    0.00656     4.30987
      O   13   -0.33926      0.99987     3.33069    0.00869     4.33926
      O   14   -0.36729      0.99990     3.36083    0.00657     4.36729
      H   15    0.09970      0.00000     0.39900    0.00129     0.40030
      H   16    0.09956      0.00000     0.39927    0.00118     0.40044
      H   17    0.10579      0.00000     0.39197    0.00224     0.39421
      H   18    0.08529      0.00000     0.41322    0.00149     0.41471
      H   19    0.08284      0.00000     0.41513    0.00203     0.41716
      H   20    0.09284      0.00000     0.40511    0.00206     0.40716
      H   21    0.09463      0.00000     0.40376    0.00161     0.40537
      H   22    0.10297      0.00000     0.39554    0.00149     0.39703
      H   23    0.09522      0.00000     0.40337    0.00141     0.40478
      H   24    0.11042      0.00000     0.38835    0.00122     0.38958
      H   25    0.11736      0.00000     0.38094    0.00170     0.38264
      H   26    0.10183      0.00000     0.39502    0.00315     0.39817
      H   27    0.25009      0.00000     0.23281    0.01710     0.24991
      H   28    0.23876      0.00000     0.25806    0.00318     0.26124
 =======================================================================
   * Total *    0.00000     13.99608    40.80033    0.20359    55.00000

 Normal termination of Gaussian 16 at Thu Dec 10 10:55:36 2020.
