 Gaussian 16, Revision A.03,

 -----------------------------------------------------------
 # opt freq B3LYP/6-31G(d) empiricaldispersion=gd3bj scf=xqc
 -----------------------------------------------------------

 ------------------------------
 CID_63926860_JID_5253_neutraal
 ------------------------------
 Symbolic Z-matrix:
 Charge =  0 Multiplicity = 1

 SCF Done:  E(RB3LYP) =  -993.323002446     A.U. after   15 cycles
 SCF Done:  E(RB3LYP) =  -993.327875496     A.U. after   13 cycles
 SCF Done:  E(RB3LYP) =  -993.328431606     A.U. after   12 cycles
 SCF Done:  E(RB3LYP) =  -993.328846558     A.U. after   12 cycles
 SCF Done:  E(RB3LYP) =  -993.328935670     A.U. after   11 cycles
 SCF Done:  E(RB3LYP) =  -993.329005139     A.U. after   12 cycles
 SCF Done:  E(RB3LYP) =  -993.329056444     A.U. after   10 cycles
 SCF Done:  E(RB3LYP) =  -993.329105432     A.U. after   11 cycles
 SCF Done:  E(RB3LYP) =  -993.329122837     A.U. after   10 cycles
 SCF Done:  E(RB3LYP) =  -993.329148750     A.U. after   11 cycles
 SCF Done:  E(RB3LYP) =  -993.329666714     A.U. after   10 cycles
 SCF Done:  E(RB3LYP) =  -993.329667306     A.U. after   10 cycles
 SCF Done:  E(RB3LYP) =  -993.329667533     A.U. after   10 cycles
 SCF Done:  E(RB3LYP) =  -993.329667607     A.U. after   10 cycles
 SCF Done:  E(RB3LYP) =  -993.329667733     A.U. after    7 cycles
 SCF Done:  E(RB3LYP) =  -993.329668029     A.U. after   10 cycles
 Optimization completed.
    -- Stationary point found.
 Normal termination of Gaussian 16 at Thu Dec 10 15:17:08 2020.

 --------------------------------------------------------------------
 #N Geom=AllCheck Guess=TCheck SCRF=Check GenChk RB3LYP/6-31G(d) Freq
 --------------------------------------------------------------------

 Structure from the checkpoint file:  "JID_5253.chk"
 ------------------------------
 CID_63926860_JID_5253_neutraal
 ------------------------------
 Charge =  0 Multiplicity = 1

 SCF Done:  E(RB3LYP) =  -993.329668029     A.U. after    1 cycles

  Exact polarizability: 228.222   1.593 160.596  -5.703   8.363  83.425
 Approx polarizability: 319.763  -8.093 288.825 -14.789  27.033 136.380

                      1                      2                      3
                      A                      A                      A
 Frequencies --     26.3427                42.7176                52.2129
 Red. masses --      1.0472                 4.8058                 4.2642
 Frc consts  --      0.0004                 0.0052                 0.0068
 IR Inten    --      0.0503                 0.6440                 0.3634

                      4                      5                      6
                      A                      A                      A
 Frequencies --     84.4871                88.8335               102.5870
 Red. masses --      1.3216                 2.4014                 1.0571
 Frc consts  --      0.0056                 0.0112                 0.0066
 IR Inten    --      0.1057                 0.4002                 0.0163

                      7                      8                      9
                      A                      A                      A
 Frequencies --    129.5990               149.5487               192.0807
 Red. masses --      5.0197                 2.8943                 4.9460
 Frc consts  --      0.0497                 0.0381                 0.1075
 IR Inten    --      1.0207                 0.3896                 1.0084

                     10                     11                     12
                      A                      A                      A
 Frequencies --    203.1588               235.2827               267.4220
 Red. masses --      5.9002                 4.1617                 2.5812
 Frc consts  --      0.1435                 0.1357                 0.1088
 IR Inten    --      2.9052                 1.1684                 0.4543

                     13                     14                     15
                      A                      A                      A
 Frequencies --    292.3745               302.3775               334.9826
 Red. masses --      3.8793                 3.5870                 4.4281
 Frc consts  --      0.1954                 0.1932                 0.2928
 IR Inten    --      0.9392                 6.3355                 5.4042

                     16                     17                     18
                      A                      A                      A
 Frequencies --    385.6568               452.9291               493.8509
 Red. masses --      8.1979                 5.5467                 4.5499
 Frc consts  --      0.7184                 0.6704                 0.6538
 IR Inten    --      5.3132                 0.6332                 0.8083

                     19                     20                     21
                      A                      A                      A
 Frequencies --    516.5869               552.8620               581.2843
 Red. masses --      1.3328                 3.9019                 4.3288
 Frc consts  --      0.2096                 0.7027                 0.8618
 IR Inten    --     84.1468                 5.0314                 0.5359

                     22                     23                     24
                      A                      A                      A
 Frequencies --    582.8660               655.1524               678.4872
 Red. masses --      3.7731                 3.2599                 4.0199
 Frc consts  --      0.7552                 0.8244                 1.0903
 IR Inten    --      8.8165                 5.2809                 1.6624

                     25                     26                     27
                      A                      A                      A
 Frequencies --    685.7922               713.8349               727.8447
 Red. masses --      8.2266                 4.1684                 1.2223
 Frc consts  --      2.2796                 1.2515                 0.3815
 IR Inten    --      4.9676                 5.4386                39.1325

                     28                     29                     30
                      A                      A                      A
 Frequencies --    757.4012               765.1376               784.3038
 Red. masses --      5.8516                 5.9415                 5.0114
 Frc consts  --      1.9778                 2.0494                 1.8162
 IR Inten    --     10.8507                14.0465                55.1371

                     31                     32                     33
                      A                      A                      A
 Frequencies --    852.1292               865.4405               891.1234
 Red. masses --      3.0672                 1.4337                 4.0754
 Frc consts  --      1.3122                 0.6327                 1.9068
 IR Inten    --     78.7287                 3.5455                16.0910

                     34                     35                     36
                      A                      A                      A
 Frequencies --    922.3671               984.8392              1013.5646
 Red. masses --      1.3314                 1.6328                 1.4894
 Frc consts  --      0.6674                 0.9331                 0.9015
 IR Inten    --      0.5839                 6.3714                 0.2897

                     37                     38                     39
                      A                      A                      A
 Frequencies --   1061.1591              1071.8515              1077.1006
 Red. masses --      1.3672                 1.4587                 1.6138
 Frc consts  --      0.9071                 0.9874                 1.1031
 IR Inten    --      1.4985                 4.2247                29.0333

                     40                     41                     42
                      A                      A                      A
 Frequencies --   1090.2919              1106.6097              1122.8518
 Red. masses --      1.5519                 1.7427                 1.3233
 Frc consts  --      1.0869                 1.2574                 0.9830
 IR Inten    --      2.0512                 4.1556                18.1532

                     43                     44                     45
                      A                      A                      A
 Frequencies --   1157.0786              1213.0492              1227.8110
 Red. masses --      3.0422                 2.8371                 3.3550
 Frc consts  --      2.3998                 2.4597                 2.9799
 IR Inten    --     30.7545                20.7050                13.9745

                     46                     47                     48
                      A                      A                      A
 Frequencies --   1268.6242              1302.0988              1356.4719
 Red. masses --      1.4765                 3.0925                 5.6719
 Frc consts  --      1.4000                 3.0892                 6.1489
 IR Inten    --     18.4578               221.0536                61.3313

                     49                     50                     51
                      A                      A                      A
 Frequencies --   1397.9421              1436.4846              1437.4196
 Red. masses --      2.4504                 1.3139                 1.3041
 Frc consts  --      2.8214                 1.5974                 1.5875
 IR Inten    --     10.9790                20.6202                20.0626

                     52                     53                     54
                      A                      A                      A
 Frequencies --   1452.6845              1472.6600              1475.6522
 Red. masses --      1.2798                 3.2184                 5.6357
 Frc consts  --      1.5912                 4.1125                 7.2305
 IR Inten    --     28.7820                65.8294                57.2054

                     55                     56                     57
                      A                      A                      A
 Frequencies --   1498.6870              1508.2519              1510.6008
 Red. masses --      1.5071                 1.2302                 1.0778
 Frc consts  --      1.9944                 1.6488                 1.4491
 IR Inten    --     45.5479                18.1196                 3.1859

                     58                     59                     60
                      A                      A                      A
 Frequencies --   1514.6053              1526.8764              1529.9110
 Red. masses --      1.0654                 1.0800                 1.2385
 Frc consts  --      1.4399                 1.4835                 1.7079
 IR Inten    --     10.8925                 8.8619                 3.1786

                     61                     62                     63
                      A                      A                      A
 Frequencies --   1537.5396              1559.0766              1576.8918
 Red. masses --      1.7844                 3.5333                 4.9631
 Frc consts  --      2.4854                 5.0601                 7.2712
 IR Inten    --      1.8100               197.8181                33.4594

                     64                     65                     66
                      A                      A                      A
 Frequencies --   1640.8801              1693.6070              3035.5922
 Red. masses --      4.5118                12.2029                 1.0422
 Frc consts  --      7.1574                20.6223                 5.6585
 IR Inten    --     35.8248               222.4153                49.1462

                     67                     68                     69
                      A                      A                      A
 Frequencies --   3036.0203              3038.3409              3077.2967
 Red. masses --      1.0403                 1.0397                 1.1000
 Frc consts  --      5.6497                 5.6549                 6.1373
 IR Inten    --     28.0748                51.7037                28.8299

                     70                     71                     72
                      A                      A                      A
 Frequencies --   3081.5762              3083.5687              3122.3164
 Red. masses --      1.1013                 1.1004                 1.0988
 Frc consts  --      6.1618                 6.1645                 6.3111
 IR Inten    --     18.0640                18.1536                24.1681

                     73                     74                     75
                      A                      A                      A
 Frequencies --   3146.6634              3176.9753              3221.0467
 Red. masses --      1.0955                 1.0957                 1.0885
 Frc consts  --      6.3907                 6.5156                 6.6541
 IR Inten    --     14.3445                 1.1120                 9.2528

                     76                     77                     78
                      A                      A                      A
 Frequencies --   3236.8718              3266.9589              3652.2239
 Red. masses --      1.0949                 1.0970                 1.0797
 Frc consts  --      6.7592                 6.8983                 8.4850
 IR Inten    --      3.2211                 1.1732                57.0336

 - Thermochemistry -
 -------------------
 Temperature   298.150 Kelvin.  Pressure   1.00000 Atm.
 Atom     1 has atomic number  6 and mass  12.00000

 Molecular mass:   219.07179 amu.
 Principal axes and moments of inertia in atomic units:
                           1         2         3
     Eigenvalues --  1633.006055708.659767073.38294
           X            0.99996   0.00904   0.00178
           Y           -0.00902   0.99990  -0.01110
           Z           -0.00188   0.01108   0.99994
 This molecule is an asymmetric top.
 Rotational symmetry number  1.
 Warning -- assumption of classical behavior for rotation
           may cause significant error
 Rotational temperatures (Kelvin)      0.05304     0.01517     0.01225
 Rotational constants (GHZ):           1.10517     0.31614     0.25515
 Zero-point vibrational energy     588369.4 (Joules/Mol)
                                  140.62366 (Kcal/Mol)
 Warning -- explicit consideration of  22 degrees of freedom as
           vibrations may cause significant error
 Vibrational temperatures:     37.90    61.46    75.12   121.56   127.81
          (Kelvin)            147.60   186.46   215.17   276.36   292.30
                              338.52   384.76   420.66   435.05   481.97
                              554.87   651.66   710.54   743.25   795.45
                              836.34   838.61   942.62   976.19   986.70
                             1027.05  1047.21  1089.73  1100.86  1128.44
                             1226.02  1245.18  1282.13  1327.08  1416.96
                             1458.29  1526.77  1542.16  1549.71  1568.69
                             1592.16  1615.53  1664.78  1745.31  1766.55
                             1825.27  1873.43  1951.66  2011.33  2066.78
                             2068.13  2090.09  2118.83  2123.13  2156.28
                             2170.04  2173.42  2179.18  2196.83  2201.20
                             2212.18  2243.16  2268.80  2360.86  2436.72
                             4367.54  4368.16  4371.49  4427.54  4433.70
                             4436.57  4492.32  4527.35  4570.96  4634.37
                             4657.14  4700.43  5254.74

 Zero-point correction=                           0.224098 (Hartree/Particle)
 Thermal correction to Energy=                    0.239422
 Thermal correction to Enthalpy=                  0.240366
 Thermal correction to Gibbs Free Energy=         0.179837
 Sum of electronic and zero-point Energies=           -993.105570
 Sum of electronic and thermal Energies=              -993.090247
 Sum of electronic and thermal Enthalpies=            -993.089302
 Sum of electronic and thermal Free Energies=         -993.149831

                     E (Thermal)             CV                S
                      KCal/Mol        Cal/Mol-Kelvin    Cal/Mol-Kelvin
 Total                  150.239             55.597            127.394
 Electronic               0.000              0.000              0.000
 Translational            0.889              2.981             42.056
 Rotational               0.889              2.981             32.556
 Vibrational            148.462             49.635             52.783
 Vibration     1          0.593              1.985              6.087
 Vibration     2          0.595              1.980              5.129
 Vibration     3          0.596              1.977              4.732
 Vibration     4          0.601              1.960              3.784
 Vibration     5          0.602              1.957              3.686
 Vibration     6          0.605              1.947              3.405
 Vibration     7          0.612              1.924              2.952
 Vibration     8          0.618              1.903              2.678
 Vibration     9          0.634              1.851              2.208
 Vibration    10          0.639              1.835              2.104
 Vibration    11          0.655              1.787              1.838
 Vibration    12          0.673              1.733              1.613
 Vibration    13          0.688              1.688              1.460
 Vibration    14          0.694              1.669              1.404
 Vibration    15          0.716              1.606              1.236
 Vibration    16          0.754              1.501              1.017
 Vibration    17          0.811              1.354              0.787
 Vibration    18          0.850              1.264              0.674
 Vibration    19          0.872              1.213              0.618
 Vibration    20          0.908              1.133              0.538
 Vibration    21          0.938              1.072              0.483
 Vibration    22          0.940              1.068              0.480

 Optimization completed.
    -- Stationary point found.
 Normal termination of Gaussian 16 at Thu Dec 10 15:26:08 2020.

 ----------------------------------------------------------------------
 # B3LYP/6-311++G(d,p) empiricaldispersion=gd3bj scf=xqc pop=npa geom=c
 heck
 ----------------------------------------------------------------------

 --------------------------------------
 CID_63926860_JID_5253_Energie_neutraal
 --------------------------------------
 Structure from the checkpoint file:  "JID_5253.chk"
 Charge =  0 Multiplicity = 1

 SCF Done:  E(RB3LYP) =  -993.515489100     A.U. after   16 cycles
 Normal termination of Gaussian 16 at Thu Dec 10 15:30:50 2020.

 ----------------------------------------------------------------------
 # B3LYP/6-311++G(d,p) empiricaldispersion=gd3bj scf=xqc pop=npa geom=c
 heck
 ----------------------------------------------------------------------

 ------------------------------------
 CID_63926860_JID_5253_Energie_kation
 ------------------------------------
 Structure from the checkpoint file:  "JID_5253.chk"
 Charge =  1 Multiplicity = 2

 SCF Done:  E(UB3LYP) =  -993.234478448     A.U. after   30 cycles
 Normal termination of Gaussian 16 at Thu Dec 10 15:42:54 2020.
 Gaussian 16:  ES64L-G16RevA.03 25-Dec-2016

 ----------------------------------------------------------------------
 # B3LYP/6-311++G(d,p) empiricaldispersion=gd3bj scf=xqc pop=npa geom=c
 heck
 ----------------------------------------------------------------------

 -----------------------------------
 CID_63926860_JID_5253_Energie_anion
 -----------------------------------
 Structure from the checkpoint file:  "JID_5253.chk"
 Charge = -1 Multiplicity = 2

                         Standard orientation:
 ---------------------------------------------------------------------
 Center     Atomic      Atomic             Coordinates (Angstroms)
 Number     Number       Type             X           Y           Z
 ---------------------------------------------------------------------
      1          6           0       -4.409233   -0.136452    0.197158
      2          6           0       -2.932730    0.060287    0.032309
      3          6           0       -2.265109    1.253952   -0.230462
      4          7           0       -0.925510    0.982260   -0.256977
      5          6           0       -0.704259   -0.377796   -0.061922
      6          6           0       -1.954954   -0.969342    0.126705
      7          6           0       -2.240341   -2.410536    0.413827
      8          6           0        0.621763   -0.978442   -0.074370
      9          8           0        0.798799   -2.190940   -0.229708
     10          6           0        1.800632   -0.089667    0.088341
     11          6           0        1.948592    1.128336    0.720638
     12          6           0        3.289919    1.603316    0.711283
     13          6           0        4.144552    0.738261    0.076971
     14         16           0        3.336729   -0.677338   -0.497610
     15          6           0       -2.778788    2.637851   -0.458712
     16          1           0       -4.660307   -0.482980    1.208160
     17          1           0       -4.792432   -0.891257   -0.500934
     18          1           0       -4.966907    0.788411    0.021001
     19          1           0       -0.211857    1.624305   -0.567538
     20          1           0       -2.844834   -2.854645   -0.388328
     21          1           0       -1.315845   -2.982670    0.491750
     22          1           0       -2.815788   -2.521789    1.342101
     23          1           0        1.132868    1.638499    1.219228
     24          1           0        3.604775    2.538001    1.161892
     25          1           0        5.209028    0.855094   -0.077704
     26          1           0       -2.417183    3.053051   -1.408409
     27          1           0       -3.870651    2.640926   -0.493340
     28          1           0       -2.470621    3.325561    0.339789
 ---------------------------------------------------------------------

 SCF Done:  E(UB3LYP) =  -993.530364213     A.U. after   28 cycles

 The electronic state is 2-A.
 Alpha  occ. eigenvalues --  -88.71751 -18.90776 -14.21484 -10.07289 -10.06961
 Alpha  occ. eigenvalues --  -10.06516 -10.06206 -10.04961 -10.04370 -10.04012
 Alpha  occ. eigenvalues --  -10.03542 -10.03513 -10.03144 -10.02390 -10.02208
 Alpha  occ. eigenvalues --   -7.80393  -5.76678  -5.76317  -5.76028  -0.85402
 Alpha  occ. eigenvalues --   -0.83935  -0.72895  -0.67671  -0.65495  -0.60484
 Alpha  occ. eigenvalues --   -0.59331  -0.58760  -0.56571  -0.54836  -0.46818
 Alpha  occ. eigenvalues --   -0.43574  -0.41505  -0.40783  -0.40135  -0.37500
 Alpha  occ. eigenvalues --   -0.34485  -0.33237  -0.30831  -0.30631  -0.30202
 Alpha  occ. eigenvalues --   -0.28476  -0.28294  -0.27919  -0.27056  -0.26632
 Alpha  occ. eigenvalues --   -0.25503  -0.24990  -0.24348  -0.23441  -0.23097
 Alpha  occ. eigenvalues --   -0.21415  -0.20362  -0.19444  -0.11343  -0.10767
 Alpha  occ. eigenvalues --   -0.09896  -0.08118  -0.07638   0.04188
 Alpha virt. eigenvalues --    0.06998   0.08392   0.09086   0.10220   0.10582
 Alpha virt. eigenvalues --    0.11149   0.11428   0.11907   0.12904   0.12988
 Alpha virt. eigenvalues --    0.13703   0.14055   0.14550   0.15090   0.15494

  Beta  occ. eigenvalues --  -88.71694 -18.90186 -14.21382 -10.07298 -10.06860
  Beta  occ. eigenvalues --  -10.06204 -10.06174 -10.05035 -10.04073 -10.03953
  Beta  occ. eigenvalues --  -10.03611 -10.03591 -10.03156 -10.02232 -10.01996
  Beta  occ. eigenvalues --   -7.80342  -5.76646  -5.76287  -5.75852  -0.84791
  Beta  occ. eigenvalues --   -0.83321  -0.72607  -0.67568  -0.65345  -0.60428
  Beta  occ. eigenvalues --   -0.58779  -0.58501  -0.56497  -0.54608  -0.46099
  Beta  occ. eigenvalues --   -0.43483  -0.41275  -0.40590  -0.39890  -0.37313
  Beta  occ. eigenvalues --   -0.34334  -0.33059  -0.30794  -0.30440  -0.30120
  Beta  occ. eigenvalues --   -0.28321  -0.28138  -0.27850  -0.26899  -0.26322
  Beta  occ. eigenvalues --   -0.24965  -0.24718  -0.23765  -0.23147  -0.22669
  Beta  occ. eigenvalues --   -0.21251  -0.19377  -0.17997  -0.10508  -0.10288
  Beta  occ. eigenvalues --   -0.08390  -0.07527  -0.06656
  Beta virt. eigenvalues --    0.06961   0.08361   0.09035   0.10056   0.10201
  Beta virt. eigenvalues --    0.10622   0.11135   0.11578   0.11913   0.12962
  Beta virt. eigenvalues --    0.13482   0.14041   0.14222   0.14612   0.15077

 Mulliken charges and spin densities:
               1          2
     1  C   -0.300570   0.005775
     2  C    0.844946  -0.035528
     3  C   -0.893343   0.055970
     4  N    0.085299   0.046590
     5  C   -0.516894  -0.058232
     6  C    1.071410   0.086991
     7  C   -0.595747   0.000717
     8  C   -1.415750   0.216884
     9  O   -0.382827   0.216573
    10  C    0.488984   0.023634
    11  C    0.416838   0.191282
    12  C   -0.657910  -0.059448
    13  C    0.120689   0.192035
    14  S   -0.422772   0.104909
    15  C   -0.685672  -0.016453
    16  H    0.137208  -0.001578
    17  H    0.133516  -0.000908
    18  H    0.115621  -0.000246
    19  H    0.240224   0.012668
    20  H    0.113643   0.007309
    21  H    0.213922  -0.001185
    22  H    0.096646   0.003605
    23  H    0.156865  -0.010995
    24  H    0.090630   0.004691
    25  H    0.183126  -0.013360
    26  H    0.110778   0.024669
    27  H    0.115174   0.000871
    28  H    0.135966   0.002757
 Sum of Mulliken charges =  -1.00000   1.00000

 Dipole moment (field-independent basis, Debye):
    X=             -4.6282    Y=              4.8419    Z=              0.1718  Tot=              6.7003
 Quadrupole moment (field-independent basis, Debye-Ang):
   XX=           -131.5810   YY=           -116.9486   ZZ=           -106.4455
   XY=              2.3324   XZ=             -0.0911   YZ=             -1.3103

 Summary of Natural Population Analysis:

                                       Natural Population
                Natural  -----------------------------------------------
    Atom  No    Charge         Core      Valence    Rydberg      Total
 -----------------------------------------------------------------------
      C    1   -0.28859      0.99965     2.28442    0.00452     3.28859
      C    2   -0.07444      0.99945     2.06617    0.00883     3.07444
      C    3    0.08605      0.99951     1.90367    0.01076     2.91395
      N    4   -0.25307      0.99963     2.74521    0.00822     3.75307
      C    5    0.02703      0.99946     1.96144    0.01207     2.97297
      C    6    0.00168      0.99935     1.98993    0.00904     2.99832
      C    7   -0.29582      0.99960     2.29163    0.00459     3.29582
      C    8    0.26823      0.99951     1.71262    0.01964     2.73177
      O    9   -0.24992      0.99989     3.24412    0.00592     4.24992
      C   10   -0.12069      0.99949     2.10869    0.01251     3.12069
      C   11   -0.09860      0.99949     2.09002    0.00909     3.09860
      C   12   -0.16582      0.99954     2.15568    0.01060     3.16582
      C   13   -0.14884      0.99956     2.13732    0.01196     3.14884
      S   14    0.23016      4.99942     2.74606    0.02436     7.76984
      C   15   -0.29787      0.99965     2.29420    0.00403     3.29787
      H   16    0.09556      0.00000     0.40323    0.00121     0.40444
      H   17    0.09640      0.00000     0.40241    0.00119     0.40360
      H   18    0.09435      0.00000     0.40469    0.00096     0.40565
      H   19    0.20082      0.00000     0.29719    0.00200     0.29918
      H   20    0.09380      0.00000     0.40479    0.00141     0.40620
      H   21    0.12332      0.00000     0.37529    0.00140     0.37668
      H   22    0.09012      0.00000     0.40849    0.00139     0.40988
      H   23    0.09955      0.00000     0.39923    0.00122     0.40045
      H   24    0.09477      0.00000     0.40406    0.00117     0.40523
      H   25    0.09460      0.00000     0.40438    0.00102     0.40540
      H   26    0.09816      0.00000     0.40055    0.00129     0.40184
      H   27    0.10080      0.00000     0.39838    0.00082     0.39920
      H   28    0.09830      0.00000     0.40044    0.00127     0.40170
 =======================================================================
   * Total *    0.00001     18.99320    38.83429    0.17250    57.99999

 Normal termination of Gaussian 16 at Thu Dec 10 15:54:18 2020.
