 Gaussian 16, Revision A.03,

 -----------------------------------------------------------
 # opt freq B3LYP/6-31G(d) empiricaldispersion=gd3bj scf=xqc
 -----------------------------------------------------------

 ------------------------------
 CID_91578745_JID_2012_neutraal
 ------------------------------
 Symbolic Z-matrix:
 Charge =  0 Multiplicity = 1

 SCF Done:  E(RB3LYP) =  -534.900981407     A.U. after   15 cycles
 SCF Done:  E(RB3LYP) =  -534.903939530     A.U. after   13 cycles
 SCF Done:  E(RB3LYP) =  -534.904173507     A.U. after   12 cycles
 SCF Done:  E(RB3LYP) =  -534.904750704     A.U. after   12 cycles
 SCF Done:  E(RB3LYP) =  -534.904939093     A.U. after   12 cycles
 SCF Done:  E(RB3LYP) =  -534.905017166     A.U. after   12 cycles
 SCF Done:  E(RB3LYP) =  -534.905037870     A.U. after   10 cycles
 SCF Done:  E(RB3LYP) =  -534.905096165     A.U. after   11 cycles
 SCF Done:  E(RB3LYP) =  -534.905120788     A.U. after   11 cycles
 SCF Done:  E(RB3LYP) =  -534.905128306     A.U. after   10 cycles
 SCF Done:  E(RB3LYP) =  -534.905130303     A.U. after    8 cycles
 SCF Done:  E(RB3LYP) =  -534.905130591     A.U. after    8 cycles
 SCF Done:  E(RB3LYP) =  -534.905130659     A.U. after    7 cycles
 SCF Done:  E(RB3LYP) =  -534.905130717     A.U. after    7 cycles
 SCF Done:  E(RB3LYP) =  -534.905130735     A.U. after    7 cycles
 Optimization completed.
    -- Stationary point found.
 Normal termination of Gaussian 16 at Wed Dec  9 16:46:15 2020.

 --------------------------------------------------------------------
 #N Geom=AllCheck Guess=TCheck SCRF=Check GenChk RB3LYP/6-31G(d) Freq
 --------------------------------------------------------------------

 Structure from the checkpoint file:  "JID_2012.chk"
 ------------------------------
 CID_91578745_JID_2012_neutraal
 ------------------------------
 Charge =  0 Multiplicity = 1

 SCF Done:  E(RB3LYP) =  -534.905130735     A.U. after    1 cycles

  Exact polarizability: 157.103   4.915 101.485 -11.849  -8.259  77.104
 Approx polarizability: 202.677   0.638 172.549 -27.847 -19.293 123.883

                      1                      2                      3
                      A                      A                      A
 Frequencies --     35.0058                51.1352                89.8398
 Red. masses --      4.0458                 3.2991                 4.3636
 Frc consts  --      0.0029                 0.0051                 0.0208
 IR Inten    --      4.2698                 2.7701                 1.4252

                      4                      5                      6
                      A                      A                      A
 Frequencies --     92.7784               111.5652               141.6160
 Red. masses --      2.5612                 2.8571                 1.7178
 Frc consts  --      0.0130                 0.0210                 0.0203
 IR Inten    --      3.6164                 1.7282                 1.0520

                      7                      8                      9
                      A                      A                      A
 Frequencies --    176.1994               194.5654               268.0713
 Red. masses --      1.9638                 2.4399                 3.3113
 Frc consts  --      0.0359                 0.0544                 0.1402
 IR Inten    --      4.4547                 1.3308                 2.0038

                     10                     11                     12
                      A                      A                      A
 Frequencies --    321.4619               359.4998               420.6975
 Red. masses --      3.1891                 4.2431                 2.2191
 Frc consts  --      0.1942                 0.3231                 0.2314
 IR Inten    --      2.8237                 3.3426                 4.3342

                     13                     14                     15
                      A                      A                      A
 Frequencies --    448.1854               534.5389               548.9999
 Red. masses --      2.6497                 4.6630                 2.2559
 Frc consts  --      0.3136                 0.7850                 0.4006
 IR Inten    --      2.1512                18.1634                30.9307

                     16                     17                     18
                      A                      A                      A
 Frequencies --    557.9052               600.1818               641.5778
 Red. masses --      7.1206                 1.7233                 4.9934
 Frc consts  --      1.3058                 0.3657                 1.2110
 IR Inten    --      3.1188                46.1298                 8.0086

                     19                     20                     21
                      A                      A                      A
 Frequencies --    721.1916               775.7706               810.0866
 Red. masses --      4.1926                 1.4281                 4.5207
 Frc consts  --      1.2848                 0.5064                 1.7479
 IR Inten    --     38.6296                 7.6860                 2.8779

                     22                     23                     24
                      A                      A                      A
 Frequencies --    855.7659               885.0764               896.0433
 Red. masses --      1.4964                 3.1105                 1.6819
 Frc consts  --      0.6457                 1.4356                 0.7956
 IR Inten    --      1.4048                15.5115                 8.8669

                     25                     26                     27
                      A                      A                      A
 Frequencies --    921.1554               954.5466               984.2813
 Red. masses --      2.6135                 4.3749                 3.6248
 Frc consts  --      1.3066                 2.3486                 2.0690
 IR Inten    --      8.1698                28.4100                 4.7567

                     28                     29                     30
                      A                      A                      A
 Frequencies --   1017.3375              1019.9176              1031.0523
 Red. masses --      1.3856                 1.6310                 1.6469
 Frc consts  --      0.8449                 0.9996                 1.0315
 IR Inten    --     19.7879                19.7730                 9.0545

                     31                     32                     33
                      A                      A                      A
 Frequencies --   1072.6759              1105.4896              1158.4331
 Red. masses --      1.6851                 1.8384                 1.3019
 Frc consts  --      1.1424                 1.3238                 1.0293
 IR Inten    --     21.7936                45.6517                 9.3914

                     34                     35                     36
                      A                      A                      A
 Frequencies --   1196.1531              1196.6479              1217.5488
 Red. masses --      2.3010                 2.8162                 1.1422
 Frc consts  --      1.9397                 2.3760                 0.9976
 IR Inten    --     13.9360                 5.4866                 0.3471

                     37                     38                     39
                      A                      A                      A
 Frequencies --   1280.5383              1291.4405              1332.2240
 Red. masses --      1.0952                 1.3104                 1.4116
 Frc consts  --      1.0581                 1.2877                 1.4761
 IR Inten    --      0.9269                 4.9389                 2.1947

                     40                     41                     42
                      A                      A                      A
 Frequencies --   1360.6205              1381.8120              1389.6014
 Red. masses --      1.3760                 1.9794                 2.0202
 Frc consts  --      1.5009                 2.2268                 2.2984
 IR Inten    --      0.8462               108.6797               121.2356

                     43                     44                     45
                      A                      A                      A
 Frequencies --   1412.7450              1425.2740              1483.0028
 Red. masses --      2.0154                 1.2672                 1.6920
 Frc consts  --      2.3700                 1.5167                 2.1925
 IR Inten    --     15.6201                10.9680                45.7547

                     46                     47                     48
                      A                      A                      A
 Frequencies --   1490.6205              1494.6695              1499.4178
 Red. masses --      1.0988                 1.2251                 1.0816
 Frc consts  --      1.4385                 1.6126                 1.4327
 IR Inten    --      6.1277                32.2065                 2.1636

                     49                     50                     51
                      A                      A                      A
 Frequencies --   1524.3049              1554.1779              1692.8710
 Red. masses --      1.0742                 1.0950                 6.5145
 Frc consts  --      1.4706                 1.5584                10.9997
 IR Inten    --      5.1091                29.4004                36.8409

                     52                     53                     54
                      A                      A                      A
 Frequencies --   1728.0850              1765.2077              1776.2959
 Red. masses --      6.5733                 7.2133                 7.9296
 Frc consts  --     11.5654                13.2426                14.7411
 IR Inten    --     42.0412               294.9597                49.1928

                     55                     56                     57
                      A                      A                      A
 Frequencies --   2994.1144              3016.9111              3025.4319
 Red. masses --      1.0703                 1.0597                 1.0887
 Frc consts  --      5.6530                 5.6829                 5.8712
 IR Inten    --     26.5717                35.6799                23.7070

                     58                     59                     60
                      A                      A                      A
 Frequencies --   3033.8837              3035.4904              3097.7757
 Red. masses --      1.1007                 1.0463                 1.0952
 Frc consts  --      5.9691                 5.6801                 6.1920
 IR Inten    --     13.4412                60.6651                36.7722

                     61                     62                     63
                      A                      A                      A
 Frequencies --   3104.1188              3154.1735              3159.8676
 Red. masses --      1.0887                 1.0903                 1.0972
 Frc consts  --      6.1806                 6.3908                 6.4548
 IR Inten    --     70.3904                24.7327                 2.9440

                     64                     65                     66
                      A                      A                      A
 Frequencies --   3178.4068              3205.4181              3597.9536
 Red. masses --      1.0900                 1.0889                 1.0757
 Frc consts  --      6.4879                 6.5917                 8.2042
 IR Inten    --     12.7193                 5.3325                27.8208

 - Thermochemistry -
 -------------------
 Temperature   298.150 Kelvin.  Pressure   1.00000 Atm.
 Atom     1 has atomic number  6 and mass  12.00000

 Molecular mass:   164.09496 amu.
 Principal axes and moments of inertia in atomic units:
                           1         2         3
     Eigenvalues --   815.662644578.070404866.17772
           X            0.99973   0.02284   0.00349
           Y           -0.02274   0.99941  -0.02578
           Z           -0.00408   0.02570   0.99966
 This molecule is an asymmetric top.
 Rotational symmetry number  1.
 Warning -- assumption of classical behavior for rotation
           may cause significant error
 Rotational temperatures (Kelvin)      0.10619     0.01892     0.01780
 Rotational constants (GHZ):           2.21261     0.39421     0.37087
 Zero-point vibrational energy     525755.5 (Joules/Mol)
                                  125.65858 (Kcal/Mol)
 Warning -- explicit consideration of  17 degrees of freedom as
           vibrations may cause significant error
 Vibrational temperatures:     50.37    73.57   129.26   133.49   160.52
          (Kelvin)            203.75   253.51   279.94   385.69   462.51
                              517.24   605.29   644.84   769.08   789.89
                              802.70   863.53   923.09  1037.63  1116.16
                             1165.53  1231.26  1273.43  1289.21  1325.34
                             1373.38  1416.16  1463.72  1467.43  1483.45
                             1543.34  1590.55  1666.73  1721.00  1721.71
                             1751.78  1842.41  1858.09  1916.77  1957.63
                             1988.12  1999.33  2032.62  2050.65  2133.71
                             2144.67  2150.50  2157.33  2193.13  2236.12
                             2435.66  2486.33  2539.74  2555.69  4307.86
                             4340.66  4352.92  4365.08  4367.39  4457.01
                             4466.13  4538.15  4546.34  4573.02  4611.88
                             5176.65

 Zero-point correction=                           0.200250 (Hartree/Particle)
 Thermal correction to Energy=                    0.212363
 Thermal correction to Enthalpy=                  0.213307
 Thermal correction to Gibbs Free Energy=         0.160501
 Sum of electronic and zero-point Energies=           -534.704881
 Sum of electronic and thermal Energies=              -534.692768
 Sum of electronic and thermal Enthalpies=            -534.691824
 Sum of electronic and thermal Free Energies=         -534.744630

                     E (Thermal)             CV                S
                      KCal/Mol        Cal/Mol-Kelvin    Cal/Mol-Kelvin
 Total                  133.260             43.560            111.140
 Electronic               0.000              0.000              0.000
 Translational            0.889              2.981             41.194
 Rotational               0.889              2.981             31.275
 Vibrational            131.482             37.599             38.671
 Vibration     1          0.594              1.982              5.523
 Vibration     2          0.595              1.977              4.773
 Vibration     3          0.602              1.956              3.664
 Vibration     4          0.602              1.954              3.601
 Vibration     5          0.607              1.940              3.241
 Vibration     6          0.615              1.912              2.782
 Vibration     7          0.628              1.872              2.368
 Vibration     8          0.635              1.847              2.184
 Vibration     9          0.673              1.732              1.609
 Vibration    10          0.707              1.632              1.303
 Vibration    11          0.734              1.556              1.124
 Vibration    12          0.783              1.425              0.890
 Vibration    13          0.807              1.365              0.801
 Vibration    14          0.890              1.174              0.577
 Vibration    15          0.904              1.142              0.546
 Vibration    16          0.913              1.122              0.528
 Vibration    17          0.958              1.031              0.449

                           ! Non-Optimized Parameters !
 Normal termination of Gaussian 16 at Wed Dec  9 16:50:39 2020.

 ----------------------------------------------------------------------
 # B3LYP/6-311++G(d,p) empiricaldispersion=gd3bj scf=xqc pop=npa geom=c
 heck
 ----------------------------------------------------------------------

 --------------------------------------
 CID_91578745_JID_2012_Energie_neutraal
 --------------------------------------
 Structure from the checkpoint file:  "JID_2012.chk"
 Charge =  0 Multiplicity = 1

 SCF Done:  E(RB3LYP) =  -535.058620071     A.U. after   16 cycles
 Normal termination of Gaussian 16 at Wed Dec  9 16:52:30 2020.

 ----------------------------------------------------------------------
 # B3LYP/6-311++G(d,p) empiricaldispersion=gd3bj scf=xqc pop=npa geom=c
 heck
 ----------------------------------------------------------------------

 ------------------------------------
 CID_91578745_JID_2012_Energie_kation
 ------------------------------------
 Structure from the checkpoint file:  "JID_2012.chk"
 Charge =  1 Multiplicity = 2

 SCF Done:  E(UB3LYP) =  -534.750626863     A.U. after   28 cycles
 Normal termination of Gaussian 16 at Wed Dec  9 16:56:58 2020.
 Gaussian 16:  ES64L-G16RevA.03 25-Dec-2016

 ----------------------------------------------------------------------
 # B3LYP/6-311++G(d,p) empiricaldispersion=gd3bj scf=xqc pop=npa geom=c
 heck
 ----------------------------------------------------------------------

 -----------------------------------
 CID_91578745_JID_2012_Energie_anion
 -----------------------------------
 Structure from the checkpoint file:  "JID_2012.chk"
 Charge = -1 Multiplicity = 2

                         Standard orientation:
 ---------------------------------------------------------------------
 Center     Atomic      Atomic             Coordinates (Angstroms)
 Number     Number       Type             X           Y           Z
 ---------------------------------------------------------------------
      1          6           0        2.931604    1.567900    1.027507
      2          7           0        3.380274    0.558503    0.081989
      3          6           0        2.761350   -0.612336   -0.284794
      4          8           0        3.391969   -1.516100   -0.828317
      5          6           0        1.297300   -0.761499   -0.059085
      6          6           0        0.380898    0.211986   -0.198870
      7          6           0       -1.070734    0.037509   -0.087041
      8          6           0       -1.643182   -0.851380    0.738247
      9          6           0       -3.130777   -1.009520    0.822535
     10          6           0       -3.861521    0.081099    0.073863
     11          7           0       -3.361415    0.955905   -0.699043
     12          6           0       -1.923593    0.953761   -0.939834
     13          1           0        2.107334    1.179120    1.627793
     14          1           0        2.592654    2.486587    0.530420
     15          1           0        3.753654    1.829433    1.701915
     16          1           0        4.364566    0.550047   -0.154904
     17          1           0        0.987721   -1.792424    0.086604
     18          1           0        0.715652    1.214092   -0.466720
     19          1           0       -1.027804   -1.467952    1.389606
     20          1           0       -3.447746   -1.987147    0.421513
     21          1           0       -3.468359   -1.016607    1.870173
     22          1           0       -4.945946    0.116935    0.218990
     23          1           0       -1.572002    1.990561   -0.829634
     24          1           0       -1.775565    0.720179   -2.005013
 ---------------------------------------------------------------------

 SCF Done:  E(UB3LYP) =  -535.065816131     A.U. after   33 cycles
 SCF Done:  E(UB3LYP) =  -535.065816131     a.u. after    1 cycles

 The electronic state is 2-A.
 Alpha  occ. eigenvalues --  -18.92554 -14.19266 -14.18390 -10.10898 -10.09074
 Alpha  occ. eigenvalues --  -10.08345 -10.06940 -10.05867 -10.02503 -10.01190
 Alpha  occ. eigenvalues --  -10.00982 -10.00040  -0.88008  -0.80499  -0.77704
 Alpha  occ. eigenvalues --   -0.67124  -0.64134  -0.60354  -0.57761  -0.52659
 Alpha  occ. eigenvalues --   -0.49537  -0.44747  -0.41400  -0.37849  -0.36196
 Alpha  occ. eigenvalues --   -0.34545  -0.33876  -0.33370  -0.32196  -0.30826
 Alpha  occ. eigenvalues --   -0.29709  -0.28333  -0.27713  -0.25710  -0.24866
 Alpha  occ. eigenvalues --   -0.24145  -0.23122  -0.20308  -0.18414  -0.15081
 Alpha  occ. eigenvalues --   -0.12659  -0.11734  -0.10392  -0.08556   0.04892
 Alpha virt. eigenvalues --    0.07643   0.07911   0.10054   0.10259   0.10756
 Alpha virt. eigenvalues --    0.10823   0.11212   0.11846   0.12860   0.13510
 Alpha virt. eigenvalues --    0.14393   0.14782   0.15238   0.16247   0.17293

  Beta  occ. eigenvalues --  -18.92341 -14.19234 -14.18357 -10.10795 -10.09025
  Beta  occ. eigenvalues --  -10.08333 -10.06931 -10.05889 -10.02482 -10.00847
  Beta  occ. eigenvalues --  -10.00698  -9.99814  -0.87661  -0.80412  -0.77552
  Beta  occ. eigenvalues --   -0.66633  -0.63888  -0.59922  -0.57681  -0.52442
  Beta  occ. eigenvalues --   -0.48884  -0.44536  -0.41027  -0.37673  -0.36121
  Beta  occ. eigenvalues --   -0.34368  -0.33607  -0.33149  -0.32061  -0.30616
  Beta  occ. eigenvalues --   -0.29568  -0.28148  -0.27645  -0.25427  -0.24433
  Beta  occ. eigenvalues --   -0.23871  -0.22691  -0.20023  -0.17915  -0.13850
  Beta  occ. eigenvalues --   -0.12524  -0.11249  -0.09952  -0.06851
  Beta virt. eigenvalues --    0.07586   0.07902   0.09971   0.10138   0.10306
  Beta virt. eigenvalues --    0.10731   0.11116   0.11574   0.11915   0.12833
  Beta virt. eigenvalues --    0.13512   0.14292   0.14748   0.15260   0.16290

 Mulliken charges and spin densities:
               1          2
     1  C   -0.158532  -0.269295
     2  N   -0.265806   0.031961
     3  C   -0.199604   0.177809
     4  O   -0.430016   0.073258
     5  C   -0.342519   0.286318
     6  C   -0.485438   0.340871
     7  C    1.362575  -0.226558
     8  C   -0.384699   0.183118
     9  C   -0.433875  -0.189909
    10  C   -0.011391   0.028280
    11  N   -0.029126   0.015426
    12  C   -0.935320   0.049617
    13  H    0.060036   0.107525
    14  H    0.068929   0.071024
    15  H   -0.066009   0.171941
    16  H    0.213781   0.059200
    17  H    0.166080  -0.012063
    18  H    0.125647  -0.034884
    19  H    0.131901   0.001636
    20  H    0.085824   0.050242
    21  H    0.099070   0.011447
    22  H    0.114380   0.049661
    23  H    0.161180   0.005077
    24  H    0.152934   0.018299
 Sum of Mulliken charges =  -1.00000   1.00000

 Dipole moment (field-independent basis, Debye):
    X=             -2.6135    Y=              2.3885    Z=              2.1971  Tot=              4.1668
 Quadrupole moment (field-independent basis, Debye-Ang):
   XX=           -123.5895   YY=            -89.9017   ZZ=            -85.8466
   XY=             16.1828   XZ=              1.3440   YZ=             -2.3819

 Summary of Natural Population Analysis:

                                       Natural Population
                Natural  -----------------------------------------------
    Atom  No    Charge         Core      Valence    Rydberg      Total
 -----------------------------------------------------------------------
      C    1   -0.17919      0.99965     2.17220    0.00733     3.17919
      N    2   -0.32557      0.99968     2.81630    0.00960     3.82557
      C    3    0.34184      0.99964     1.63631    0.02220     2.65816
      O    4   -0.31893      0.99988     3.31296    0.00610     4.31893
      C    5   -0.10352      0.99949     2.09292    0.01111     3.10352
      C    6   -0.04280      0.99952     2.03384    0.00945     3.04280
      C    7   -0.03888      0.99947     2.03040    0.00901     3.03888
      C    8   -0.03254      0.99948     2.02382    0.00924     3.03254
      C    9   -0.23913      0.99961     2.23177    0.00774     3.23913
      C   10    0.07807      0.99964     1.90650    0.01578     2.92193
      N   11   -0.22663      0.99970     2.71561    0.01133     3.72663
      C   12   -0.10610      0.99957     2.09434    0.01218     3.10610
      H   13    0.10875      0.00000     0.39004    0.00121     0.39125
      H   14    0.08278      0.00000     0.41538    0.00184     0.41722
      H   15    0.08549      0.00000     0.41306    0.00145     0.41451
      H   16    0.18236      0.00000     0.31404    0.00361     0.31764
      H   17    0.09634      0.00000     0.40248    0.00119     0.40366
      H   18    0.08249      0.00000     0.41506    0.00245     0.41751
      H   19    0.09189      0.00000     0.40684    0.00127     0.40811
      H   20    0.10290      0.00000     0.39502    0.00208     0.39710
      H   21    0.09929      0.00000     0.39897    0.00174     0.40071
      H   22    0.07194      0.00000     0.42622    0.00184     0.42806
      H   23    0.09269      0.00000     0.40464    0.00267     0.40731
      H   24    0.09645      0.00000     0.40144    0.00211     0.40355
 =======================================================================
   * Total *    0.00000     11.99533    31.85014    0.15452    44.00000

 Normal termination of Gaussian 16 at Wed Dec  9 17:02:49 2020.
