 Gaussian 16, Revision A.03,

 -----------------------------------------------------------
 # opt freq B3LYP/6-31G(d) empiricaldispersion=gd3bj scf=xqc
 -----------------------------------------------------------

 ------------------------------
 CID_91548794_JID_1333_neutraal
 ------------------------------
 Symbolic Z-matrix:
 Charge =  0 Multiplicity = 1

 SCF Done:  E(RB3LYP) =  -480.701147359     A.U. after   14 cycles
 SCF Done:  E(RB3LYP) =  -480.704551884     A.U. after   13 cycles
 SCF Done:  E(RB3LYP) =  -480.705184927     A.U. after   13 cycles
 SCF Done:  E(RB3LYP) =  -480.705352260     A.U. after   12 cycles
 SCF Done:  E(RB3LYP) =  -480.705406289     A.U. after   11 cycles
 SCF Done:  E(RB3LYP) =  -480.705422380     A.U. after   10 cycles
 SCF Done:  E(RB3LYP) =  -480.705423317     A.U. after    8 cycles
 SCF Done:  E(RB3LYP) =  -480.705423775     A.U. after    8 cycles
 SCF Done:  E(RB3LYP) =  -480.705423859     A.U. after    7 cycles
 SCF Done:  E(RB3LYP) =  -480.705423906     A.U. after    6 cycles
 Optimization completed.
    -- Stationary point found.
 Normal termination of Gaussian 16 at Tue Dec  8 19:41:55 2020.

 --------------------------------------------------------------------
 #N Geom=AllCheck Guess=TCheck SCRF=Check GenChk RB3LYP/6-31G(d) Freq
 --------------------------------------------------------------------

 Structure from the checkpoint file:  "JID_1333.chk"
 ------------------------------
 CID_91548794_JID_1333_neutraal
 ------------------------------
 Charge =  0 Multiplicity = 1

 SCF Done:  E(RB3LYP) =  -480.705423906     A.U. after    1 cycles

  Exact polarizability: 131.474  -9.982  94.248  10.339  -1.898  78.270
 Approx polarizability: 175.146 -23.176 160.311  18.692   1.118 114.699

                      1                      2                      3
                      A                      A                      A
 Frequencies --     36.3882                53.0180                73.0245
 Red. masses --      3.1734                 2.9800                 3.3975
 Frc consts  --      0.0025                 0.0049                 0.0107
 IR Inten    --      1.3719                 0.1049                 2.9625

                      4                      5                      6
                      A                      A                      A
 Frequencies --    117.4808               178.9318               226.0888
 Red. masses --      3.6362                 1.0838                 1.1127
 Frc consts  --      0.0296                 0.0204                 0.0335
 IR Inten    --      0.8635                 0.1753                 0.1587

                      7                      8                      9
                      A                      A                      A
 Frequencies --    254.0508               280.5306               321.4213
 Red. masses --      2.6766                 3.1945                 5.9039
 Frc consts  --      0.1018                 0.1481                 0.3594
 IR Inten    --      2.5210                 0.2622                 0.5607

                     10                     11                     12
                      A                      A                      A
 Frequencies --    354.7709               394.2167               410.1646
 Red. masses --      3.2543                 2.7527                 2.2016
 Frc consts  --      0.2413                 0.2520                 0.2182
 IR Inten    --      3.5929                 1.7994                 1.9019

                     13                     14                     15
                      A                      A                      A
 Frequencies --    448.0626               466.2950               552.3133
 Red. masses --      2.4109                 2.5259                 3.1047
 Frc consts  --      0.2852                 0.3236                 0.5580
 IR Inten    --      5.2950                 1.6859                 6.4238

                     16                     17                     18
                      A                      A                      A
 Frequencies --    614.6395               648.6201               701.2001
 Red. masses --      6.2549                 3.2604                 1.4044
 Frc consts  --      1.3922                 0.8082                 0.4069
 IR Inten    --      3.2807                12.6866                 2.4327

                     19                     20                     21
                      A                      A                      A
 Frequencies --    757.2197               815.3753               822.6623
 Red. masses --      1.8246                 2.6818                 2.9044
 Frc consts  --      0.6164                 1.0505                 1.1581
 IR Inten    --     13.1973                14.3957                15.5408

                     22                     23                     24
                      A                      A                      A
 Frequencies --    848.5252               905.1233               926.1589
 Red. masses --      2.8358                 2.3049                 1.3504
 Frc consts  --      1.2030                 1.1125                 0.6825
 IR Inten    --      3.5041                 9.0204                42.1561

                     25                     26                     27
                      A                      A                      A
 Frequencies --    934.2035               947.7052               975.3016
 Red. masses --      3.3409                 1.7978                 1.3319
 Frc consts  --      1.7179                 0.9513                 0.7464
 IR Inten    --     26.4470                 9.7189                 1.0742

                     28                     29                     30
                      A                      A                      A
 Frequencies --    992.9693              1013.2676              1060.3199
 Red. masses --      1.6468                 2.2745                 1.6357
 Frc consts  --      0.9567                 1.3759                 1.0835
 IR Inten    --      5.6038                21.8968                 9.1177

                     31                     32                     33
                      A                      A                      A
 Frequencies --   1072.3168              1086.3782              1130.3249
 Red. masses --      2.3064                 1.5126                 1.6529
 Frc consts  --      1.5625                 1.0518                 1.2443
 IR Inten    --     42.0578                 0.7040                10.9365

                     34                     35                     36
                      A                      A                      A
 Frequencies --   1178.3468              1197.2371              1213.2276
 Red. masses --      1.9934                 1.3007                 1.3562
 Frc consts  --      1.6307                 1.0985                 1.1761
 IR Inten    --      4.5108                 6.7222                 3.1169

                     37                     38                     39
                      A                      A                      A
 Frequencies --   1263.7870              1317.8772              1343.5928
 Red. masses --      2.2672                 2.2131                 1.6227
 Frc consts  --      2.1334                 2.2646                 1.7260
 IR Inten    --      9.5815                 4.2341                 0.7621

                     40                     41                     42
                      A                      A                      A
 Frequencies --   1361.4677              1379.2385              1435.4567
 Red. masses --      1.3419                 1.4197                 1.2848
 Frc consts  --      1.4655                 1.5912                 1.5598
 IR Inten    --      6.2604                 4.3779                 4.6730

                     43                     44                     45
                      A                      A                      A
 Frequencies --   1442.1769              1447.1295              1471.9981
 Red. masses --      1.2611                 1.9314                 1.1949
 Frc consts  --      1.5454                 2.3830                 1.5254
 IR Inten    --      5.3781                22.8979                 0.5523

                     46                     47                     48
                      A                      A                      A
 Frequencies --   1494.8004              1509.9639              1514.3436
 Red. masses --      1.0931                 1.0486                 1.0552
 Frc consts  --      1.4391                 1.4086                 1.4257
 IR Inten    --      3.8400                 9.2884                 4.0835

                     49                     50                     51
                      A                      A                      A
 Frequencies --   1523.2665              1530.1577              1626.8080
 Red. masses --      1.0629                 1.0501                 9.4465
 Frc consts  --      1.4532                 1.4486                14.7296
 IR Inten    --      8.0149                 4.1017                 4.3411

                     52                     53                     54
                      A                      A                      A
 Frequencies --   1715.0620              1741.4177              2945.6585
 Red. masses --      7.0169                 5.0695                 1.0815
 Frc consts  --     12.1607                 9.0577                 5.5291
 IR Inten    --      2.9221                12.9091                60.9019

                     55                     56                     57
                      A                      A                      A
 Frequencies --   3039.8160              3045.8539              3062.3672
 Red. masses --      1.0392                 1.0590                 1.0356
 Frc consts  --      5.6580                 5.7883                 5.7222
 IR Inten    --     24.2098                12.6833                19.7273

                     58                     59                     60
                      A                      A                      A
 Frequencies --   3088.8793              3096.2517              3132.8913
 Red. masses --      1.0990                 1.1024                 1.1022
 Frc consts  --      6.1782                 6.2267                 6.3741
 IR Inten    --     18.9090                12.7359                18.8936

                     61                     62                     63
                      A                      A                      A
 Frequencies --   3133.6600              3148.9741              3157.6761
 Red. masses --      1.1011                 1.1033                 1.0602
 Frc consts  --      6.3704                 6.4460                 6.2282
 IR Inten    --     24.1921                16.0037                10.1548

                     64                     65                     66
                      A                      A                      A
 Frequencies --   3188.3265              3214.0679              3234.6460
 Red. masses --      1.0872                 1.0982                 1.1160
 Frc consts  --      6.5113                 6.6839                 6.8797
 IR Inten    --      7.0305                 9.2917                19.1749

 - Thermochemistry -
 -------------------
 Temperature   298.150 Kelvin.  Pressure   1.00000 Atm.
 Atom     1 has atomic number  6 and mass  12.00000

 Molecular mass:   151.09971 amu.
 Principal axes and moments of inertia in atomic units:
                           1         2         3
     Eigenvalues --   719.700922974.157283096.92677
           X            0.99996   0.00826   0.00363
           Y           -0.00778   0.99329  -0.11536
           Z           -0.00456   0.11532   0.99332
 This molecule is an asymmetric top.
 Rotational symmetry number  1.
 Warning -- assumption of classical behavior for rotation
           may cause significant error
 Rotational temperatures (Kelvin)      0.12035     0.02912     0.02797
 Rotational constants (GHZ):           2.50763     0.60681     0.58275
 Zero-point vibrational energy     536019.7 (Joules/Mol)
                                  128.11178 (Kcal/Mol)
 Warning -- explicit consideration of  16 degrees of freedom as
           vibrations may cause significant error
 Vibrational temperatures:     52.35    76.28   105.07   169.03   257.44
          (Kelvin)            325.29   365.52   403.62   462.45   510.44
                              567.19   590.14   644.66   670.89   794.66
                              884.33   933.22  1008.87  1089.47  1173.14
                             1183.63  1220.84  1302.27  1332.54  1344.11
                             1363.54  1403.24  1428.66  1457.87  1525.56
                             1542.82  1563.06  1626.29  1695.38  1722.56
                             1745.56  1818.31  1896.13  1933.13  1958.85
                             1984.42  2065.30  2074.97  2082.10  2117.88
                             2150.68  2172.50  2178.80  2191.64  2201.56
                             2340.61  2467.59  2505.51  4238.15  4373.62
                             4382.30  4406.06  4444.21  4454.82  4507.53
                             4508.64  4530.67  4543.19  4587.29  4624.33
                             4653.93

 Zero-point correction=                           0.204159 (Hartree/Particle)
 Thermal correction to Energy=                    0.215554
 Thermal correction to Enthalpy=                  0.216498
 Thermal correction to Gibbs Free Energy=         0.166209
 Sum of electronic and zero-point Energies=           -480.501265
 Sum of electronic and thermal Energies=              -480.489870
 Sum of electronic and thermal Enthalpies=            -480.488926
 Sum of electronic and thermal Free Energies=         -480.539215

                     E (Thermal)             CV                S
                      KCal/Mol        Cal/Mol-Kelvin    Cal/Mol-Kelvin
 Total                  135.262             42.499            105.843
 Electronic               0.000              0.000              0.000
 Translational            0.889              2.981             40.948
 Rotational               0.889              2.981             30.273
 Vibrational            133.485             36.537             34.621
 Vibration     1          0.594              1.982              5.447
 Vibration     2          0.596              1.976              4.702
 Vibration     3          0.599              1.967              4.070
 Vibration     4          0.608              1.935              3.141
 Vibration     5          0.629              1.868              2.340
 Vibration     6          0.650              1.801              1.910
 Vibration     7          0.665              1.756              1.702
 Vibration     8          0.680              1.710              1.530
 Vibration     9          0.707              1.633              1.303
 Vibration    10          0.731              1.565              1.145
 Vibration    11          0.761              1.483              0.984
 Vibration    12          0.774              1.448              0.926
 Vibration    13          0.807              1.365              0.802
 Vibration    14          0.824              1.325              0.748
 Vibration    15          0.908              1.135              0.539
 Vibration    16          0.974              1.001              0.425

                           ! Non-Optimized Parameters !
 Normal termination of Gaussian 16 at Tue Dec  8 19:46:19 2020.

 ----------------------------------------------------------------------
 # B3LYP/6-311++G(d,p) empiricaldispersion=gd3bj scf=xqc pop=npa geom=c
 heck
 ----------------------------------------------------------------------

 --------------------------------------
 CID_91548794_JID_1333_Energie_neutraal
 --------------------------------------
 Structure from the checkpoint file:  "JID_1333.chk"
 Charge =  0 Multiplicity = 1

 SCF Done:  E(RB3LYP) =  -480.839036486     A.U. after   15 cycles
 Normal termination of Gaussian 16 at Tue Dec  8 19:48:35 2020.

 ----------------------------------------------------------------------
 # B3LYP/6-311++G(d,p) empiricaldispersion=gd3bj scf=xqc pop=npa geom=c
 heck
 ----------------------------------------------------------------------

 ------------------------------------
 CID_91548794_JID_1333_Energie_kation
 ------------------------------------
 Structure from the checkpoint file:  "JID_1333.chk"
 Charge =  1 Multiplicity = 2

 SCF Done:  E(UB3LYP) =  -480.526900289     A.U. after   24 cycles
 Normal termination of Gaussian 16 at Tue Dec  8 19:53:09 2020.
 Gaussian 16:  ES64L-G16RevA.03 25-Dec-2016

 ----------------------------------------------------------------------
 # B3LYP/6-311++G(d,p) empiricaldispersion=gd3bj scf=xqc pop=npa geom=c
 heck
 ----------------------------------------------------------------------

 -----------------------------------
 CID_91548794_JID_1333_Energie_anion
 -----------------------------------
 Structure from the checkpoint file:  "JID_1333.chk"
 Charge = -1 Multiplicity = 2

                         Standard orientation:
 ---------------------------------------------------------------------
 Center     Atomic      Atomic             Coordinates (Angstroms)
 Number     Number       Type             X           Y           Z
 ---------------------------------------------------------------------
      1          6           0        3.701503    0.232463    0.529034
      2          6           0        2.188175    0.087912    0.503231
      3          6           0        1.459092    1.317067    0.029235
      4          6           0        0.254491    1.131041   -0.520331
      5          6           0       -0.224481   -0.241209   -0.684696
      6          7           0        0.554011   -1.271985   -0.647091
      7          8           0        1.910959   -1.006815   -0.393252
      8          6           0       -1.684655   -0.501185   -0.969974
      9          6           0       -2.574815   -0.018658    0.158451
     10          6           0       -3.460912    0.963780   -0.025160
     11          6           0       -2.381310   -0.705288    1.484446
     12          1           0        4.167633   -0.708337    0.833542
     13          1           0        3.991588    1.014464    1.239381
     14          1           0        4.074409    0.502337   -0.463898
     15          1           0        1.824471   -0.196094    1.508224
     16          1           0        1.906173    2.299571    0.158128
     17          1           0       -0.373420    1.945298   -0.868401
     18          1           0       -1.963056    0.007921   -1.901558
     19          1           0       -1.806283   -1.579407   -1.125900
     20          1           0       -4.098892    1.314864    0.781745
     21          1           0       -3.587375    1.445903   -0.991410
     22          1           0       -2.563380   -1.784337    1.394372
     23          1           0       -1.348032   -0.595686    1.836884
     24          1           0       -3.052115   -0.303617    2.249134
 ---------------------------------------------------------------------

 SCF Done:  E(UB3LYP) =  -480.836276386     A.U. after   33 cycles
 SCF Done:  E(UB3LYP) =  -480.836276386     a.u. after    1 cycles

 The electronic state is 2-A.
 Alpha  occ. eigenvalues --  -18.99235 -14.16995 -10.08068 -10.05767 -10.04556
 Alpha  occ. eigenvalues --  -10.03907 -10.03814 -10.03671 -10.03150 -10.00780
 Alpha  occ. eigenvalues --  -10.00318  -0.91693  -0.71886  -0.67979  -0.65476
 Alpha  occ. eigenvalues --   -0.58909  -0.57208  -0.55881  -0.48505  -0.45934
 Alpha  occ. eigenvalues --   -0.40543  -0.37529  -0.34729  -0.34107  -0.32974
 Alpha  occ. eigenvalues --   -0.32539  -0.30372  -0.28352  -0.27212  -0.26755
 Alpha  occ. eigenvalues --   -0.25506  -0.25030  -0.23132  -0.23076  -0.22442
 Alpha  occ. eigenvalues --   -0.20481  -0.18056  -0.15194  -0.12820  -0.10441
 Alpha  occ. eigenvalues --   -0.07693   0.05741
 Alpha virt. eigenvalues --    0.08265   0.08707   0.09595   0.10396   0.10823
 Alpha virt. eigenvalues --    0.11245   0.11905   0.12824   0.12925   0.13374
 Alpha virt. eigenvalues --    0.13974   0.14946   0.15576   0.16540   0.16848

  Beta  occ. eigenvalues --  -18.99112 -14.16430 -10.08071 -10.05737 -10.04551
  Beta  occ. eigenvalues --  -10.03918 -10.03792 -10.03582 -10.03089 -10.00682
  Beta  occ. eigenvalues --   -9.99931  -0.91259  -0.71455  -0.67734  -0.65032
  Beta  occ. eigenvalues --   -0.58670  -0.57097  -0.55669  -0.48183  -0.45328
  Beta  occ. eigenvalues --   -0.40383  -0.37233  -0.34490  -0.33877  -0.32849
  Beta  occ. eigenvalues --   -0.32438  -0.30164  -0.28187  -0.27088  -0.26402
  Beta  occ. eigenvalues --   -0.25428  -0.24924  -0.22978  -0.22807  -0.22244
  Beta  occ. eigenvalues --   -0.19774  -0.17486  -0.14021  -0.12462  -0.09546
  Beta  occ. eigenvalues --   -0.06053
  Beta virt. eigenvalues --    0.08201   0.08708   0.09660   0.10237   0.10753
  Beta virt. eigenvalues --    0.11131   0.11832   0.12453   0.12785   0.12981
  Beta virt. eigenvalues --    0.13641   0.13960   0.14902   0.15620   0.16453

 Mulliken charges and spin densities:
               1          2
     1  C   -0.296398  -0.346682
     2  C   -0.304472   0.002629
     3  C   -0.532946   0.588549
     4  C   -0.037633  -0.206942
     5  C    0.327616   0.263157
     6  N   -0.488753   0.309277
     7  O    0.160480   0.003590
     8  C    0.203783  -0.893985
     9  C    0.207994   0.937367
    10  C   -0.172326  -0.572685
    11  C   -0.688643  -0.075672
    12  H    0.002324   0.131746
    13  H    0.067602   0.045077
    14  H    0.047957   0.097695
    15  H    0.103038  -0.020460
    16  H    0.015435   0.077062
    17  H    0.106094   0.010616
    18  H    0.021139   0.117623
    19  H    0.101753   0.068826
    20  H    0.017914   0.069511
    21  H   -0.114891   0.222351
    22  H    0.075375   0.059167
    23  H    0.131761   0.047051
    24  H    0.045797   0.065134
 Sum of Mulliken charges =  -1.00000   1.00000

 Dipole moment (field-independent basis, Debye):
    X=             -0.4746    Y=              1.3769    Z=              2.3343  Tot=              2.7514
 Quadrupole moment (field-independent basis, Debye-Ang):
   XX=           -111.2983   YY=            -87.0417   ZZ=            -80.6877
   XY=              2.3262   XZ=              0.6095   YZ=             -1.6539

 Summary of Natural Population Analysis:

                                       Natural Population
                Natural  -----------------------------------------------
    Atom  No    Charge         Core      Valence    Rydberg      Total
 -----------------------------------------------------------------------
      C    1   -0.28510      0.99964     2.27957    0.00589     3.28510
      C    2    0.04671      0.99957     1.94070    0.01303     2.95329
      C    3   -0.02414      0.99952     2.01377    0.01085     3.02414
      C    4   -0.12057      0.99948     2.11206    0.00902     3.12057
      C    5    0.08382      0.99958     1.89911    0.01750     2.91618
      N    6   -0.00545      0.99960     2.49146    0.01439     3.50545
      O    7   -0.21916      0.99988     3.20839    0.01089     4.21916
      C    8   -0.21414      0.99955     2.20330    0.01129     3.21414
      C    9    0.01513      0.99953     1.97548    0.00986     2.98487
      C   10   -0.20390      0.99948     2.19732    0.00710     3.20390
      C   11   -0.30203      0.99961     2.29642    0.00600     3.30203
      H   12    0.09701      0.00000     0.40115    0.00184     0.40299
      H   13    0.09274      0.00000     0.40601    0.00125     0.40726
      H   14    0.09903      0.00000     0.39868    0.00229     0.40097
      H   15    0.07046      0.00000     0.42712    0.00242     0.42954
      H   16    0.08473      0.00000     0.41416    0.00112     0.41527
      H   17    0.09475      0.00000     0.40364    0.00161     0.40525
      H   18    0.09955      0.00000     0.39909    0.00136     0.40045
      H   19    0.10804      0.00000     0.38974    0.00221     0.39196
      H   20    0.08598      0.00000     0.41303    0.00099     0.41402
      H   21    0.09039      0.00000     0.40852    0.00110     0.40961
      H   22    0.10077      0.00000     0.39813    0.00110     0.39923
      H   23    0.11080      0.00000     0.38809    0.00112     0.38920
      H   24    0.09460      0.00000     0.40462    0.00078     0.40540
 =======================================================================
   * Total *   -0.00000     10.99544    29.86955    0.13501    41.00000

 Normal termination of Gaussian 16 at Tue Dec  8 19:57:59 2020.
