 Gaussian 16, Revision A.03,

 -----------------------------------------------------------
 # opt freq B3LYP/6-31G(d) empiricaldispersion=gd3bj scf=xqc
 -----------------------------------------------------------

 -------------------------------
 CID_116728963_JID_5235_neutraal
 -------------------------------
 Symbolic Z-matrix:
 Charge =  0 Multiplicity = 1

 SCF Done:  E(RB3LYP) =  -670.139905366     A.U. after   14 cycles
 SCF Done:  E(RB3LYP) =  -670.146368879     A.U. after   12 cycles
 SCF Done:  E(RB3LYP) =  -670.148700430     A.U. after   12 cycles
 SCF Done:  E(RB3LYP) =  -670.149944426     A.U. after   12 cycles
 SCF Done:  E(RB3LYP) =  -670.150328633     A.U. after   12 cycles
 SCF Done:  E(RB3LYP) =  -670.150546360     A.U. after   11 cycles
 SCF Done:  E(RB3LYP) =  -670.150633631     A.U. after   10 cycles
 SCF Done:  E(RB3LYP) =  -670.150665072     A.U. after   10 cycles
 SCF Done:  E(RB3LYP) =  -670.150676635     A.U. after   10 cycles
 SCF Done:  E(RB3LYP) =  -670.150682691     A.U. after    9 cycles
 SCF Done:  E(RB3LYP) =  -670.150698263     A.U. after    9 cycles
 SCF Done:  E(RB3LYP) =  -670.150702752     A.U. after    9 cycles
 SCF Done:  E(RB3LYP) =  -670.150703435     A.U. after    8 cycles
 SCF Done:  E(RB3LYP) =  -670.150703785     A.U. after    7 cycles
 SCF Done:  E(RB3LYP) =  -670.150703970     A.U. after    7 cycles
 Optimization completed.
    -- Stationary point found.
 Normal termination of Gaussian 16 at Thu Dec 10 14:59:18 2020.

 --------------------------------------------------------------------
 #N Geom=AllCheck Guess=TCheck SCRF=Check GenChk RB3LYP/6-31G(d) Freq
 --------------------------------------------------------------------

 Structure from the checkpoint file:  "JID_5235.chk"
 -------------------------------
 CID_116728963_JID_5235_neutraal
 -------------------------------
 Charge =  0 Multiplicity = 1

 SCF Done:  E(RB3LYP) =  -670.150703970     A.U. after    1 cycles

  Exact polarizability: 164.274   5.075 120.802   2.966  11.312 127.711
 Approx polarizability: 238.835   9.972 153.942   8.074  23.422 207.128

                      1                      2                      3
                      A                      A                      A
 Frequencies --     18.3005                51.2177                65.7747
 Red. masses --      3.9271                 3.0101                 3.3140
 Frc consts  --      0.0008                 0.0047                 0.0084
 IR Inten    --      1.0786                 0.1054                 0.1436

                      4                      5                      6
                      A                      A                      A
 Frequencies --     75.2370                90.3558               107.0331
 Red. masses --      2.7522                 1.4490                 2.1001
 Frc consts  --      0.0092                 0.0070                 0.0142
 IR Inten    --      1.9625                 2.6158                 0.2485

                      7                      8                      9
                      A                      A                      A
 Frequencies --    117.8053               126.3923               156.0983
 Red. masses --      2.5565                 2.5292                 2.4569
 Frc consts  --      0.0209                 0.0238                 0.0353
 IR Inten    --      7.5957                 4.3012                 1.4301

                     10                     11                     12
                      A                      A                      A
 Frequencies --    191.0034               212.6184               219.1088
 Red. masses --      3.3174                 1.4018                 5.7960
 Frc consts  --      0.0713                 0.0373                 0.1639
 IR Inten    --      2.2315                 1.0415                 5.8443

                     13                     14                     15
                      A                      A                      A
 Frequencies --    248.7442               271.3359               282.0717
 Red. masses --      1.6129                 2.3478                 2.1069
 Frc consts  --      0.0588                 0.1018                 0.0988
 IR Inten    --      4.0818                 0.1265                10.7324

                     16                     17                     18
                      A                      A                      A
 Frequencies --    298.6929               354.7424               386.7209
 Red. masses --      2.2471                 1.2518                 2.1888
 Frc consts  --      0.1181                 0.0928                 0.1929
 IR Inten    --      2.0111                77.9720                14.3338

                     19                     20                     21
                      A                      A                      A
 Frequencies --    421.1752               449.4207               467.5573
 Red. masses --      2.9784                 3.3434                 3.4784
 Frc consts  --      0.3113                 0.3979                 0.4480
 IR Inten    --      5.2967                 3.0435                 3.7913

                     22                     23                     24
                      A                      A                      A
 Frequencies --    496.2467               533.5300               618.2255
 Red. masses --      3.7852                 3.7364                 3.9724
 Frc consts  --      0.5492                 0.6266                 0.8945
 IR Inten    --      6.7985                 2.8331                 6.6556

                     25                     26                     27
                      A                      A                      A
 Frequencies --    650.7805               718.7800               744.6658
 Red. masses --      3.4452                 4.3344                 2.0041
 Frc consts  --      0.8597                 1.3194                 0.6548
 IR Inten    --      2.9503                 5.4993                 5.0871

                     28                     29                     30
                      A                      A                      A
 Frequencies --    793.1039               808.5766               821.8697
 Red. masses --      1.9017                 1.2912                 1.5422
 Frc consts  --      0.7048                 0.4974                 0.6138
 IR Inten    --     12.1841                11.1310                27.4279

                     31                     32                     33
                      A                      A                      A
 Frequencies --    847.7385               863.7486               890.7014
 Red. masses --      3.1240                 2.6138                 2.3867
 Frc consts  --      1.3228                 1.1489                 1.1156
 IR Inten    --     16.4817                 4.1515                 3.1787

                     34                     35                     36
                      A                      A                      A
 Frequencies --    917.4181               954.8493               991.3236
 Red. masses --      1.9681                 2.0823                 1.3949
 Frc consts  --      0.9760                 1.1186                 0.8076
 IR Inten    --     11.7728                 4.8706                 1.4127

                     37                     38                     39
                      A                      A                      A
 Frequencies --   1002.5747              1002.9600              1026.1708
 Red. masses --      4.1273                 3.8230                 1.8717
 Frc consts  --      2.4443                 2.2658                 1.1613
 IR Inten    --     20.7649                13.0379                 3.4945

                     40                     41                     42
                      A                      A                      A
 Frequencies --   1077.8750              1106.5279              1109.0671
 Red. masses --      2.3414                 2.2202                 2.8978
 Frc consts  --      1.6028                 1.6016                 2.1001
 IR Inten    --     11.3814                51.4500                49.0812

                     43                     44                     45
                      A                      A                      A
 Frequencies --   1120.2195              1130.9365              1144.1026
 Red. masses --      2.0118                 2.3806                 1.6770
 Frc consts  --      1.4875                 1.7940                 1.2934
 IR Inten    --     14.8320                83.3675                10.9702

                     46                     47                     48
                      A                      A                      A
 Frequencies --   1156.7403              1162.4599              1184.6709
 Red. masses --      2.1611                 1.2991                 1.7873
 Frc consts  --      1.7037                 1.0343                 1.4779
 IR Inten    --      8.8030                12.9509                 1.8088

                     49                     50                     51
                      A                      A                      A
 Frequencies --   1213.6511              1259.5195              1276.5633
 Red. masses --      1.8105                 1.5534                 3.3518
 Frc consts  --      1.5712                 1.4519                 3.2182
 IR Inten    --     23.6581                 1.0939                11.0168

                     52                     53                     54
                      A                      A                      A
 Frequencies --   1303.0150              1313.3004              1346.2321
 Red. masses --      1.6531                 1.3069                 1.1123
 Frc consts  --      1.6537                 1.3281                 1.1877
 IR Inten    --      6.8885                 6.6730                 0.9488

                     55                     56                     57
                      A                      A                      A
 Frequencies --   1360.7552              1369.8277              1386.0396
 Red. masses --      1.5683                 1.5964                 1.7941
 Frc consts  --      1.7109                 1.7650                 2.0307
 IR Inten    --     39.9968                 9.2909                23.9365

                     58                     59                     60
                      A                      A                      A
 Frequencies --   1398.1365              1419.8497              1426.5838
 Red. masses --      1.4320                 1.2243                 1.2906
 Frc consts  --      1.6493                 1.4542                 1.5476
 IR Inten    --      9.4796                 6.5381                 2.5956

                     61                     62                     63
                      A                      A                      A
 Frequencies --   1442.3089              1445.2303              1458.5061
 Red. masses --      1.2885                 1.2747                 2.5394
 Frc consts  --      1.5792                 1.5687                 3.1827
 IR Inten    --     22.4789                 4.8830                14.1609

                     64                     65                     66
                      A                      A                      A
 Frequencies --   1469.4172              1503.7701              1506.0754
 Red. masses --      1.3572                 1.4379                 1.1140
 Frc consts  --      1.7265                 1.9158                 1.4887
 IR Inten    --     65.3299                25.5083                18.7980

                     67                     68                     69
                      A                      A                      A
 Frequencies --   1510.2556              1517.6434              1521.5884
 Red. masses --      1.2017                 1.0440                 1.0683
 Frc consts  --      1.6149                 1.4168                 1.4572
 IR Inten    --      8.8848                 0.8314                 1.7928

                     70                     71                     72
                      A                      A                      A
 Frequencies --   1525.2957              1533.4691              1536.3332
 Red. masses --      1.0580                 1.1517                 1.2368
 Frc consts  --      1.4503                 1.5957                 1.7199
 IR Inten    --      1.8136                 2.2672                 7.7334

                     73                     74                     75
                      A                      A                      A
 Frequencies --   1538.0474              1543.7015              1560.3236
 Red. masses --      1.1166                 1.0624                 1.9624
 Frc consts  --      1.5563                 1.4916                 2.8150
 IR Inten    --     12.1101                 3.1233               129.5511

                     76                     77                     78
                      A                      A                      A
 Frequencies --   1630.1774              1654.9779              3042.2517
 Red. masses --      3.8294                 5.5273                 1.0403
 Frc consts  --      5.9959                 8.9197                 5.6731
 IR Inten    --     59.8199               542.9903                17.9845

                     79                     80                     81
                      A                      A                      A
 Frequencies --   3043.5976              3044.7408              3045.4540
 Red. masses --      1.0596                 1.0628                 1.0455
 Frc consts  --      5.7833                 5.8049                 5.7132
 IR Inten    --     39.1334                43.2557                53.1586

                     82                     83                     84
                      A                      A                      A
 Frequencies --   3051.1275              3052.0645              3079.3952
 Red. masses --      1.0425                 1.0618                 1.0970
 Frc consts  --      5.7183                 5.8275                 6.1292
 IR Inten    --     24.9207                38.3210                21.3644

                     85                     86                     87
                      A                      A                      A
 Frequencies --   3098.5279              3105.0872              3107.9346
 Red. masses --      1.0983                 1.0982                 1.1003
 Frc consts  --      6.2129                 6.2383                 6.2618
 IR Inten    --      4.9544                 2.2256                45.9105

                     88                     89                     90
                      A                      A                      A
 Frequencies --   3115.0619              3119.5286              3121.7106
 Red. masses --      1.1020                 1.0982                 1.0901
 Frc consts  --      6.3001                 6.2968                 6.2592
 IR Inten    --     73.0380                31.0801                29.1641

                     91                     92                     93
                      A                      A                      A
 Frequencies --   3123.5391              3137.9335              3161.4289
 Red. masses --      1.0911                 1.1040                 1.1054
 Frc consts  --      6.2719                 6.4049                 6.5094
 IR Inten    --     30.8671                49.3947                14.8062

                     94                     95                     96
                      A                      A                      A
 Frequencies --   3172.6219              3204.7863              3645.4938
 Red. masses --      1.0892                 1.0949                 1.0773
 Frc consts  --      6.4596                 6.6253                 8.4352
 IR Inten    --     24.6790                19.8967                39.4787

 - Thermochemistry -
 -------------------
 Temperature   298.150 Kelvin.  Pressure   1.00000 Atm.
 Atom     1 has atomic number  6 and mass  12.00000

 Molecular mass:   209.15281 amu.
 Principal axes and moments of inertia in atomic units:
                           1         2         3
     Eigenvalues --  2686.341193875.612064856.42851
           X            0.99980  -0.00978   0.01730
           Y            0.00956   0.99987   0.01283
           Z           -0.01742  -0.01266   0.99977
 This molecule is an asymmetric top.
 Rotational symmetry number  1.
 Warning -- assumption of classical behavior for rotation
           may cause significant error
 Rotational temperatures (Kelvin)      0.03224     0.02235     0.01783
 Rotational constants (GHZ):           0.67182     0.46567     0.37162
 Zero-point vibrational energy     783136.2 (Joules/Mol)
                                  187.17405 (Kcal/Mol)
 Warning -- explicit consideration of  24 degrees of freedom as
           vibrations may cause significant error
 Vibrational temperatures:     26.33    73.69    94.64   108.25   130.00
          (Kelvin)            154.00   169.50   181.85   224.59   274.81
                              305.91   315.25   357.89   390.39   405.84
                              429.75   510.40   556.41   605.98   646.62
                              672.71   713.99   767.63   889.49   936.33
                             1034.16  1071.41  1141.10  1163.36  1182.49
                             1219.71  1242.74  1281.52  1319.96  1373.82
                             1426.29  1442.48  1443.04  1476.43  1550.82
                             1592.05  1595.70  1611.75  1627.17  1646.11
                             1664.29  1672.52  1704.48  1746.17  1812.17
                             1836.69  1874.75  1889.55  1936.93  1957.82
                             1970.88  1994.20  2011.61  2042.85  2052.54
                             2075.16  2079.36  2098.46  2114.16  2163.59
                             2166.91  2172.92  2183.55  2189.23  2194.56
                             2206.32  2210.44  2212.91  2221.04  2244.96
                             2345.46  2381.14  4377.12  4379.06  4380.70
                             4381.73  4389.89  4391.24  4430.56  4458.09
                             4467.53  4471.62  4481.88  4488.31  4491.45
                             4494.08  4514.79  4548.59  4564.70  4610.97
                             5245.05

 Zero-point correction=                           0.298281 (Hartree/Particle)
 Thermal correction to Energy=                    0.314826
 Thermal correction to Enthalpy=                  0.315770
 Thermal correction to Gibbs Free Energy=         0.253011
 Sum of electronic and zero-point Energies=           -669.852423
 Sum of electronic and thermal Energies=              -669.835878
 Sum of electronic and thermal Enthalpies=            -669.834934
 Sum of electronic and thermal Free Energies=         -669.897693

                     E (Thermal)             CV                S
                      KCal/Mol        Cal/Mol-Kelvin    Cal/Mol-Kelvin
 Total                  197.556             59.964            132.088
 Electronic               0.000              0.000              0.000
 Translational            0.889              2.981             41.918
 Rotational               0.889              2.981             32.292
 Vibrational            195.779             54.002             57.878
 Vibration     1          0.593              1.986              6.811
 Vibration     2          0.595              1.977              4.770
 Vibration     3          0.597              1.971              4.276
 Vibration     4          0.599              1.966              4.011
 Vibration     5          0.602              1.956              3.652
 Vibration     6          0.606              1.944              3.322
 Vibration     7          0.608              1.935              3.136
 Vibration     8          0.611              1.927              3.000
 Vibration     9          0.620              1.896              2.597
 Vibration    10          0.634              1.852              2.218
 Vibration    11          0.644              1.822              2.021
 Vibration    12          0.647              1.812              1.966
 Vibration    13          0.662              1.765              1.739
 Vibration    14          0.675              1.726              1.588
 Vibration    15          0.681              1.707              1.521
 Vibration    16          0.692              1.676              1.424
 Vibration    17          0.731              1.566              1.145
 Vibration    18          0.755              1.499              1.013
 Vibration    19          0.784              1.424              0.888
 Vibration    20          0.808              1.362              0.798
 Vibration    21          0.825              1.322              0.744
 Vibration    22          0.852              1.258              0.668
 Vibration    23          0.889              1.176              0.579
 Vibration    24          0.978              0.993              0.419

 Optimization completed.
    -- Stationary point found.
 Normal termination of Gaussian 16 at Thu Dec 10 15:11:42 2020.

 ----------------------------------------------------------------------
 # B3LYP/6-311++G(d,p) empiricaldispersion=gd3bj scf=xqc pop=npa geom=c
 heck
 ----------------------------------------------------------------------

 ---------------------------------------
 CID_116728963_JID_5235_Energie_neutraal
 ---------------------------------------
 Structure from the checkpoint file:  "JID_5235.chk"
 Charge =  0 Multiplicity = 1

 SCF Done:  E(RB3LYP) =  -670.337513644     A.U. after   15 cycles
 Normal termination of Gaussian 16 at Thu Dec 10 15:18:09 2020.

 ----------------------------------------------------------------------
 # B3LYP/6-311++G(d,p) empiricaldispersion=gd3bj scf=xqc pop=npa geom=c
 heck
 ----------------------------------------------------------------------

 -------------------------------------
 CID_116728963_JID_5235_Energie_kation
 -------------------------------------
 Structure from the checkpoint file:  "JID_5235.chk"
 Charge =  1 Multiplicity = 2

 SCF Done:  E(UB3LYP) =  -670.037258184     A.U. after   26 cycles
 Normal termination of Gaussian 16 at Thu Dec 10 15:33:32 2020.
 Gaussian 16:  ES64L-G16RevA.03 25-Dec-2016

 ----------------------------------------------------------------------
 # B3LYP/6-311++G(d,p) empiricaldispersion=gd3bj scf=xqc pop=npa geom=c
 heck
 ----------------------------------------------------------------------

 ------------------------------------
 CID_116728963_JID_5235_Energie_anion
 ------------------------------------
 Structure from the checkpoint file:  "JID_5235.chk"
 Charge = -1 Multiplicity = 2

                         Standard orientation:
 ---------------------------------------------------------------------
 Center     Atomic      Atomic             Coordinates (Angstroms)
 Number     Number       Type             X           Y           Z
 ---------------------------------------------------------------------
      1          6           0        1.545090   -3.210910   -0.291611
      2          6           0        2.121868   -2.202165    0.708173
      3          6           0        2.494039   -0.844365    0.093152
      4          6           0        1.347703   -0.164647   -0.662391
      5          6           0        0.098576    0.026488    0.185121
      6          7           0        0.257689    0.451982    1.444320
      7          6           0       -0.878604    0.667006    2.133911
      8          6           0       -2.136795    0.460150    1.607817
      9          6           0       -2.190773   -0.014787    0.276487
     10          7           0       -1.065023   -0.229960   -0.426502
     11          7           0       -3.373613   -0.256815   -0.349860
     12          6           0       -3.449144   -0.852225   -1.672797
     13          8           0        1.765614    1.056793   -1.282970
     14          6           0        2.001018    2.186723   -0.439546
     15          6           0        0.867146    3.198585   -0.563904
     16          1           0        0.573330   -2.884274   -0.678478
     17          1           0        1.399776   -4.189944    0.178915
     18          1           0        2.216131   -3.348951   -1.148752
     19          1           0        1.404036   -2.040606    1.521348
     20          1           0        3.021003   -2.625933    1.173748
     21          1           0        2.845600   -0.180046    0.889186
     22          1           0        3.318021   -0.965840   -0.621517
     23          1           0        1.049544   -0.782462   -1.511752
     24          1           0       -0.759449    1.019708    3.156930
     25          1           0       -3.036523    0.644636    2.186688
     26          1           0       -4.208059   -0.240550    0.216145
     27          1           0       -3.103812   -1.894253   -1.678120
     28          1           0       -4.487792   -0.815941   -2.009628
     29          1           0       -2.823877   -0.289234   -2.369049
     30          1           0        2.125160    1.883671    0.604521
     31          1           0        2.944364    2.633828   -0.777719
     32          1           0       -0.073566    2.781373   -0.191616
     33          1           0        1.093028    4.104043    0.012855
     34          1           0        0.724047    3.480875   -1.612139
 ---------------------------------------------------------------------

 SCF Done:  E(UB3LYP) =  -670.328357350     A.U. after   33 cycles
 SCF Done:  E(UB3LYP) =  -670.328357350     a.u. after    1 cycles

 The electronic state is 2-A.
 Alpha  occ. eigenvalues --  -19.02093 -14.22703 -14.19520 -14.19404 -10.14715
 Alpha  occ. eigenvalues --  -10.12692 -10.11869 -10.11601 -10.10457 -10.09166
 Alpha  occ. eigenvalues --  -10.07273 -10.06757 -10.06753 -10.06725 -10.06396
 Alpha  occ. eigenvalues --   -0.93119  -0.88292  -0.83215  -0.76092  -0.70991
 Alpha  occ. eigenvalues --   -0.67768  -0.66056  -0.61736  -0.59569  -0.57259
 Alpha  occ. eigenvalues --   -0.53637  -0.52064  -0.50705  -0.47241  -0.43176
 Alpha  occ. eigenvalues --   -0.41543  -0.39831  -0.38505  -0.36876  -0.35882
 Alpha  occ. eigenvalues --   -0.34938  -0.34482  -0.33864  -0.32728  -0.32182
 Alpha  occ. eigenvalues --   -0.30660  -0.30603  -0.29773  -0.28861  -0.28673
 Alpha  occ. eigenvalues --   -0.28142  -0.26119  -0.25094  -0.24370  -0.23794
 Alpha  occ. eigenvalues --   -0.22661  -0.21660  -0.18843  -0.18398  -0.15516
 Alpha  occ. eigenvalues --   -0.14619  -0.12127   0.04468
 Alpha virt. eigenvalues --    0.06438   0.06881   0.07222   0.07741   0.08474
 Alpha virt. eigenvalues --    0.08890   0.09102   0.09351   0.09895   0.10407
 Alpha virt. eigenvalues --    0.11284   0.11796   0.12089   0.12493   0.12658

  Beta  occ. eigenvalues --  -19.02076 -14.22657 -14.19544 -14.19341 -10.14725
  Beta  occ. eigenvalues --  -10.12620 -10.11873 -10.11600 -10.10399 -10.09131
  Beta  occ. eigenvalues --  -10.07265 -10.06754 -10.06717 -10.06686 -10.06392
  Beta  occ. eigenvalues --   -0.93080  -0.88209  -0.83149  -0.76003  -0.70957
  Beta  occ. eigenvalues --   -0.67683  -0.66034  -0.61703  -0.59495  -0.57200
  Beta  occ. eigenvalues --   -0.53554  -0.51966  -0.50675  -0.47186  -0.43117
  Beta  occ. eigenvalues --   -0.41491  -0.39785  -0.38453  -0.36794  -0.35835
  Beta  occ. eigenvalues --   -0.34865  -0.34425  -0.33806  -0.32711  -0.32155
  Beta  occ. eigenvalues --   -0.30574  -0.30506  -0.29736  -0.28844  -0.28617
  Beta  occ. eigenvalues --   -0.28115  -0.26097  -0.25084  -0.24355  -0.23778
  Beta  occ. eigenvalues --   -0.22574  -0.21615  -0.18797  -0.18061  -0.15484
  Beta  occ. eigenvalues --   -0.14583  -0.11990
  Beta virt. eigenvalues --    0.06406   0.07203   0.07494   0.07789   0.08102
  Beta virt. eigenvalues --    0.08856   0.08998   0.09344   0.09723   0.10055
  Beta virt. eigenvalues --    0.10479   0.11714   0.12025   0.12239   0.12507

 Mulliken charges and spin densities:
               1          2
     1  C   -0.382296  -0.277087
     2  C   -0.559226   0.372037
     3  C    0.030748  -0.330841
     4  C    0.451820  -0.511272
     5  C   -1.039527  -0.156527
     6  N    0.073478   0.064943
     7  C    0.737851  -0.761986
     8  C   -0.604644   0.664504
     9  C    1.193042  -1.114550
    10  N    0.021652   0.070312
    11  N   -0.197964   0.045909
    12  C    0.816832  -1.156926
    13  O   -0.030547   0.002291
    14  C   -0.073221   0.078835
    15  C   -0.403725  -0.112676
    16  H    0.215094  -0.058252
    17  H   -0.043691   0.165656
    18  H    0.058841   0.061075
    19  H    0.089998   0.054872
    20  H    0.008341   0.154006
    21  H    0.134851   0.017330
    22  H    0.140311   0.010097
    23  H    0.302308  -0.053638
    24  H   -0.085545   0.250496
    25  H   -1.258950   1.459120
    26  H   -0.490662   0.807670
    27  H   -0.087165   0.242419
    28  H   -0.671252   0.827615
    29  H    0.052054   0.119365
    30  H    0.125716  -0.012680
    31  H    0.117361   0.034673
    32  H    0.196184  -0.036975
    33  H    0.037684   0.074480
    34  H    0.124247   0.005705
 Sum of Mulliken charges =  -1.00000   1.00000

 Dipole moment (field-independent basis, Debye):
    X=             11.0384    Y=              1.1386    Z=             -1.6012  Tot=             11.2119
 Quadrupole moment (field-independent basis, Debye-Ang):
   XX=           -185.0792   YY=           -123.0901   ZZ=           -127.6942
   XY=             -2.4238   XZ=              6.8244   YZ=             -0.7307

 Summary of Natural Population Analysis:

                                       Natural Population
                Natural  -----------------------------------------------
    Atom  No    Charge         Core      Valence    Rydberg      Total
 -----------------------------------------------------------------------
      C    1   -0.28938      0.99967     2.28531    0.00440     3.28938
      C    2   -0.19258      0.99964     2.18594    0.00700     3.19258
      C    3   -0.19938      0.99961     2.19138    0.00839     3.19938
      C    4    0.05225      0.99948     1.93368    0.01459     2.94775
      C    5    0.22196      0.99958     1.75726    0.02120     2.77804
      N    6   -0.29037      0.99967     2.77959    0.01110     3.79037
      C    7    0.04885      0.99957     1.93685    0.01473     2.95115
      C    8   -0.14856      0.99951     2.13919    0.00986     3.14856
      C    9    0.21538      0.99953     1.76893    0.01616     2.78462
      N   10   -0.27266      0.99964     2.76295    0.01006     3.77266
      N   11   -0.29669      0.99967     2.78504    0.01198     3.79669
      C   12   -0.17810      0.99965     2.16936    0.00909     3.17810
      O   13   -0.30148      0.99989     3.29234    0.00925     4.30148
      C   14   -0.01835      0.99959     2.00720    0.01156     3.01835
      C   15   -0.29508      0.99966     2.29073    0.00468     3.29508
      H   16    0.10282      0.00000     0.39603    0.00115     0.39718
      H   17    0.09680      0.00000     0.40218    0.00102     0.40320
      H   18    0.09169      0.00000     0.40726    0.00105     0.40831
      H   19    0.10239      0.00000     0.39626    0.00135     0.39761
      H   20    0.09186      0.00000     0.40693    0.00121     0.40814
      H   21    0.10369      0.00000     0.39492    0.00139     0.39631
      H   22    0.09492      0.00000     0.40375    0.00133     0.40508
      H   23    0.09957      0.00000     0.39877    0.00165     0.40043
      H   24    0.08890      0.00000     0.41003    0.00107     0.41110
      H   25    0.11139      0.00000     0.38561    0.00301     0.38861
      H   26    0.20167      0.00000     0.27168    0.02665     0.29833
      H   27    0.09164      0.00000     0.40702    0.00134     0.40836
      H   28    0.10006      0.00000     0.39801    0.00193     0.39994
      H   29    0.10078      0.00000     0.39780    0.00141     0.39922
      H   30    0.09291      0.00000     0.40533    0.00176     0.40709
      H   31    0.07844      0.00000     0.42034    0.00121     0.42156
      H   32    0.10444      0.00000     0.39427    0.00129     0.39556
      H   33    0.09347      0.00000     0.40545    0.00108     0.40653
      H   34    0.09673      0.00000     0.40215    0.00111     0.40327
 =======================================================================
   * Total *   -0.00000     14.99436    41.78953    0.21610    57.00000

 Normal termination of Gaussian 16 at Thu Dec 10 15:53:02 2020.
