 Gaussian 16, Revision A.03,

 -----------------------------------------------------------
 # opt freq B3LYP/6-31G(d) empiricaldispersion=gd3bj scf=xqc
 -----------------------------------------------------------

 -------------------------------
 CID_65783670_JID_10284_neutraal
 -------------------------------
 Symbolic Z-matrix:
 Charge =  0 Multiplicity = 1

 SCF Done:  E(RB3LYP) =  -1280.05163347     A.U. after   15 cycles
 SCF Done:  E(RB3LYP) =  -1280.06112335     A.U. after   12 cycles
 SCF Done:  E(RB3LYP) =  -1280.06235115     A.U. after   12 cycles
 SCF Done:  E(RB3LYP) =  -1280.06307751     A.U. after   12 cycles
 SCF Done:  E(RB3LYP) =  -1280.06338119     A.U. after   12 cycles
 SCF Done:  E(RB3LYP) =  -1280.06406289     A.U. after   12 cycles
 SCF Done:  E(RB3LYP) =  -1280.06435854     A.U. after   11 cycles
 SCF Done:  E(RB3LYP) =  -1280.06444369     A.U. after   11 cycles
 SCF Done:  E(RB3LYP) =  -1280.06448783     A.U. after   10 cycles
 SCF Done:  E(RB3LYP) =  -1280.06450139     A.U. after    9 cycles
 SCF Done:  E(RB3LYP) =  -1280.07006313     A.U. after   11 cycles
 SCF Done:  E(RB3LYP) =  -1280.07009156     A.U. after   10 cycles
 SCF Done:  E(RB3LYP) =  -1280.07009357     A.U. after    8 cycles
 SCF Done:  E(RB3LYP) =  -1280.07009376     A.U. after    7 cycles
 SCF Done:  E(RB3LYP) =  -1280.07009382     A.U. after    6 cycles
 Optimization completed.
    -- Stationary point found.
 Normal termination of Gaussian 16 at Mon Dec 14 14:09:16 2020.

 --------------------------------------------------------------------
 #N Geom=AllCheck Guess=TCheck SCRF=Check GenChk RB3LYP/6-31G(d) Freq
 --------------------------------------------------------------------

 Structure from the checkpoint file:  "JID_10284.chk"
 -------------------------------
 CID_65783670_JID_10284_neutraal
 -------------------------------
 Charge =  0 Multiplicity = 1

 SCF Done:  E(RB3LYP) =  -1280.07009382     A.U. after    1 cycles

  Exact polarizability: 246.390   6.372 177.083 -11.920   9.679 137.365
 Approx polarizability: 306.643   9.136 293.399 -29.337  19.486 217.303

                      1                      2                      3
                      A                      A                      A
 Frequencies --     24.2412                33.1655                36.2829
 Red. masses --      4.3791                 4.5121                 3.6301
 Frc consts  --      0.0015                 0.0029                 0.0028
 IR Inten    --      0.0219                 0.4198                 0.3706

                      4                      5                      6
                      A                      A                      A
 Frequencies --     66.0473                74.2483                75.8042
 Red. masses --      3.3356                 3.4753                 3.1661
 Frc consts  --      0.0086                 0.0113                 0.0107
 IR Inten    --      0.2288                 2.0761                 0.9822

                      7                      8                      9
                      A                      A                      A
 Frequencies --     93.3466               130.7795               133.4443
 Red. masses --      3.6251                 3.6902                 2.8275
 Frc consts  --      0.0186                 0.0372                 0.0297
 IR Inten    --      3.4722                 2.0503                 1.5451

                     10                     11                     12
                      A                      A                      A
 Frequencies --    145.4741               167.7553               190.0840
 Red. masses --      5.0338                 4.2673                 2.2986
 Frc consts  --      0.0628                 0.0708                 0.0489
 IR Inten    --      0.0180                 1.4241                 0.5095

                     13                     14                     15
                      A                      A                      A
 Frequencies --    209.9865               220.2693               238.3946
 Red. masses --      2.3299                 1.1558                 3.1770
 Frc consts  --      0.0605                 0.0330                 0.1064
 IR Inten    --      8.0820                 0.1819                 1.3536

                     16                     17                     18
                      A                      A                      A
 Frequencies --    254.3236               260.2069               285.3062
 Red. masses --      1.3492                 1.9551                 2.7822
 Frc consts  --      0.0514                 0.0780                 0.1334
 IR Inten    --      6.5557                25.5673                 2.5523

                     19                     20                     21
                      A                      A                      A
 Frequencies --    288.9436               296.9137               306.5208
 Red. masses --      3.0355                 3.0253                 2.8320
 Frc consts  --      0.1493                 0.1571                 0.1568
 IR Inten    --     17.1809                 0.7704                11.9727

                     22                     23                     24
                      A                      A                      A
 Frequencies --    353.5032               374.1758               381.2736
 Red. masses --      4.2283                 2.4480                 3.9863
 Frc consts  --      0.3113                 0.2019                 0.3414
 IR Inten    --      5.9951                 3.7655                 0.5124

                     25                     26                     27
                      A                      A                      A
 Frequencies --    399.4220               459.6641               473.9552
 Red. masses --      5.0298                 3.4734                 3.8996
 Frc consts  --      0.4728                 0.4324                 0.5161
 IR Inten    --      4.8122                 2.0458                 3.5456

                     28                     29                     30
                      A                      A                      A
 Frequencies --    489.0315               528.4230               544.8867
 Red. masses --      4.8478                 3.4847                 7.2813
 Frc consts  --      0.6831                 0.5733                 1.2737
 IR Inten    --     12.1708                13.1922                94.4336

                     31                     32                     33
                      A                      A                      A
 Frequencies --    563.3382               589.5397               624.2744
 Red. masses --      3.5249                 3.6523                 4.1802
 Frc consts  --      0.6591                 0.7479                 0.9598
 IR Inten    --      6.9487                70.1222                20.7747

                     34                     35                     36
                      A                      A                      A
 Frequencies --    645.1682               662.1827               717.6408
 Red. masses --      3.8685                 6.3022                 4.5291
 Frc consts  --      0.9487                 1.6282                 1.3743
 IR Inten    --     21.3603                 5.5501               181.1390

                     37                     38                     39
                      A                      A                      A
 Frequencies --    750.4262               768.9101               770.6178
 Red. masses --      4.2244                 2.0321                 2.6716
 Frc consts  --      1.4016                 0.7079                 0.9348
 IR Inten    --      3.7121                 7.9647                14.4812

                     40                     41                     42
                      A                      A                      A
 Frequencies --    780.7033               831.6511               877.1733
 Red. masses --      1.2745                 1.5127                 2.1059
 Frc consts  --      0.4577                 0.6164                 0.9547
 IR Inten    --      2.5295                15.9316                10.9219

                     43                     44                     45
                      A                      A                      A
 Frequencies --    884.3368               897.0458               907.3666
 Red. masses --      1.5407                 3.0024                 2.1699
 Frc consts  --      0.7099                 1.4234                 1.0526
 IR Inten    --    111.2139                31.7048                21.4186

                     46                     47                     48
                      A                      A                      A
 Frequencies --    925.3740               938.3714               942.6001
 Red. masses --      1.3516                 2.3595                 2.4000
 Frc consts  --      0.6819                 1.2241                 1.2564
 IR Inten    --      9.4936                68.5405                 1.8141

                     49                     50                     51
                      A                      A                      A
 Frequencies --    958.1247               981.2837               992.8045
 Red. masses --      1.2821                 1.7174                 1.5788
 Frc consts  --      0.6934                 0.9744                 0.9169
 IR Inten    --      0.1784                 4.0417                29.7263

                     52                     53                     54
                      A                      A                      A
 Frequencies --   1025.0036              1069.7126              1070.0483
 Red. masses --      2.3478                 3.1299                 1.9721
 Frc consts  --      1.4533                 2.1102                 1.3304
 IR Inten    --     33.5787                22.6573                 9.6124

                     55                     56                     57
                      A                      A                      A
 Frequencies --   1074.3497              1105.0917              1113.7276
 Red. masses --      3.1721                 3.0610                 1.8361
 Frc consts  --      2.1572                 2.2025                 1.3418
 IR Inten    --     18.4634                67.7235                 1.5374

                     58                     59                     60
                      A                      A                      A
 Frequencies --   1134.7332              1152.7601              1157.2595
 Red. masses --      2.9430                 2.0508                 1.7977
 Frc consts  --      2.2327                 1.6056                 1.4185
 IR Inten    --    183.2450                 5.3065                 5.7131

                     61                     62                     63
                      A                      A                      A
 Frequencies --   1162.7014              1181.3968              1185.7057
 Red. masses --      2.1532                 1.6374                 1.2706
 Frc consts  --      1.7150                 1.3465                 1.0524
 IR Inten    --     62.3093                 3.8185                 1.7005

                     64                     65                     66
                      A                      A                      A
 Frequencies --   1193.6738              1219.1570              1221.2651
 Red. masses --      1.2405                 1.4127                 1.6861
 Frc consts  --      1.0414                 1.2372                 1.4817
 IR Inten    --     31.1225                 8.1778                 6.7625

                     67                     68                     69
                      A                      A                      A
 Frequencies --   1237.3717              1242.0786              1264.0570
 Red. masses --      2.0789                 2.0156                 1.3680
 Frc consts  --      1.8754                 1.8321                 1.2878
 IR Inten    --      1.4338                19.6684                 8.3790

                     70                     71                     72
                      A                      A                      A
 Frequencies --   1272.1509              1282.6898              1295.5118
 Red. masses --      1.3753                 1.1547                 1.4530
 Frc consts  --      1.3114                 1.1193                 1.4368
 IR Inten    --      0.6675                 3.1346                 2.0317

                     73                     74                     75
                      A                      A                      A
 Frequencies --   1298.4185              1304.0621              1317.8981
 Red. masses --      3.3343                 1.4692                 1.5399
 Frc consts  --      3.3120                 1.4720                 1.5759
 IR Inten    --    217.3895                 4.1335                47.8834

                     76                     77                     78
                      A                      A                      A
 Frequencies --   1329.9371              1336.9459              1376.2772
 Red. masses --      1.7220                 2.7399                 1.3001
 Frc consts  --      1.7945                 2.8854                 1.4509
 IR Inten    --     37.3148                89.6060                 9.9466

                     79                     80                     81
                      A                      A                      A
 Frequencies --   1379.3686              1382.9917              1421.9442
 Red. masses --      5.8313                 1.6407                 1.2795
 Frc consts  --      6.5369                 1.8490                 1.5242
 IR Inten    --     43.2591                 2.2640                32.9960

                     82                     83                     84
                      A                      A                      A
 Frequencies --   1437.6042              1467.4536              1471.9899
 Red. masses --      1.7717                 2.3087                 1.1582
 Frc consts  --      2.1573                 2.9292                 1.4785
 IR Inten    --     25.0431                17.3224                 1.3633

                     85                     86                     87
                      A                      A                      A
 Frequencies --   1499.1020              1505.7651              1509.0641
 Red. masses --      1.2508                 1.0914                 1.0913
 Frc consts  --      1.6561                 1.4580                 1.4642
 IR Inten    --     17.4912                 0.5504                11.6788

                     88                     89                     90
                      A                      A                      A
 Frequencies --   1516.3982              1522.0785              1528.6642
 Red. masses --      1.0852                 1.0474                 1.0610
 Frc consts  --      1.4703                 1.4296                 1.4608
 IR Inten    --      2.6485                 6.1816                20.3696

                     91                     92                     93
                      A                      A                      A
 Frequencies --   1530.8061              1534.5228              1535.1624
 Red. masses --      1.2314                 1.0735                 1.0528
 Frc consts  --      1.7001                 1.4894                 1.4618
 IR Inten    --     48.9716                29.7034                 6.1866

                     94                     95                     96
                      A                      A                      A
 Frequencies --   1542.6271              1547.0363              1635.9319
 Red. masses --      1.1436                 1.8333                 7.2947
 Frc consts  --      1.6034                 2.5852                11.5023
 IR Inten    --      1.7188                40.2382                 8.3244

                     97                     98                     99
                      A                      A                      A
 Frequencies --   1654.5757              1696.3739              2967.0031
 Red. masses --      5.2082                 1.1174                 1.0725
 Frc consts  --      8.4006                 1.8945                 5.5626
 IR Inten    --     82.3470                13.9491                65.0241

                    100                    101                    102
                      A                      A                      A
 Frequencies --   3006.7903              3029.5640              3036.8830
 Red. masses --      1.0550                 1.0715                 1.0339
 Frc consts  --      5.6196                 5.7944                 5.6180
 IR Inten    --     37.9819                16.1523                51.2311

                    103                    104                    105
                      A                      A                      A
 Frequencies --   3044.8867              3066.2690              3071.7535
 Red. masses --      1.0818                 1.0588                 1.0598
 Frc consts  --      5.9093                 5.8654                 5.8916
 IR Inten    --     52.3231                45.3247                59.0252

                    106                    107                    108
                      A                      A                      A
 Frequencies --   3085.0491              3088.1212              3100.6430
 Red. masses --      1.0631                 1.0893                 1.1072
 Frc consts  --      5.9613                 6.1207                 6.2718
 IR Inten    --     27.7222                25.8487                32.7541

                    109                    110                    111
                      A                      A                      A
 Frequencies --   3111.8376              3112.7375              3123.3059
 Red. masses --      1.0947                 1.1067                 1.0850
 Frc consts  --      6.2458                 6.3180                 6.2359
 IR Inten    --      9.5211                20.2858                30.8020

                    112                    113                    114
                      A                      A                      A
 Frequencies --   3130.2350              3148.6413              3166.5622
 Red. masses --      1.1041                 1.1042                 1.1010
 Frc consts  --      6.3738                 6.4496                 6.5047
 IR Inten    --     30.6589                33.1397                21.8085

                    115                    116                    117
                      A                      A                      A
 Frequencies --   3183.0486              3219.5662              3225.4482
 Red. masses --      1.1015                 1.0905                 1.0877
 Frc consts  --      6.5751                 6.6599                 6.6673
 IR Inten    --      2.2309                 0.9117                 3.1066

                    118                    119                    120
                      A                      A                      A
 Frequencies --   3238.7386              3465.5123              3554.1111
 Red. masses --      1.0937                 1.0500                 1.0915
 Frc consts  --      6.7590                 7.4297                 8.1237
 IR Inten    --      6.3625                 6.0005                 0.4952

 - Thermochemistry -
 -------------------
 Temperature   298.150 Kelvin.  Pressure   1.00000 Atm.
 Atom     1 has atomic number  6 and mass  12.00000

 Molecular mass:   298.13511 amu.
 Principal axes and moments of inertia in atomic units:
                           1         2         3
     Eigenvalues --  2671.09504********************
           X            0.99999  -0.00131   0.00396
           Y            0.00105   0.99799   0.06332
           Z           -0.00403  -0.06332   0.99799
 This molecule is an asymmetric top.
 Rotational symmetry number  1.
 Warning -- assumption of classical behavior for rotation
           may cause significant error
 Rotational temperatures (Kelvin)      0.03243     0.00726     0.00683
 Rotational constants (GHZ):           0.67566     0.15124     0.14229
 Zero-point vibrational energy     937064.6 (Joules/Mol)
                                  223.96380 (Kcal/Mol)
 Warning -- explicit consideration of  32 degrees of freedom as
           vibrations may cause significant error
 Vibrational temperatures:     34.88    47.72    52.20    95.03   106.83
          (Kelvin)            109.07   134.30   188.16   192.00   209.30
                              241.36   273.49   302.12   316.92   343.00
                              365.91   374.38   410.49   415.73   427.19
                              441.02   508.61   538.36   548.57   574.68
                              661.35   681.92   703.61   760.28   783.97
                              810.52   848.22   898.19   928.25   952.73
                             1032.52  1079.70  1106.29  1108.75  1123.26
                             1196.56  1262.06  1272.36  1290.65  1305.50
                             1331.41  1350.11  1356.19  1378.53  1411.85
                             1428.42  1474.75  1539.08  1539.56  1545.75
                             1589.98  1602.41  1632.63  1658.56  1665.04
                             1672.87  1699.77  1705.97  1717.43  1754.09
                             1757.13  1780.30  1787.07  1818.70  1830.34
                             1845.50  1863.95  1868.13  1876.25  1896.16
                             1913.48  1923.57  1980.16  1984.60  1989.82
                             2045.86  2068.39  2111.34  2117.87  2156.87
                             2166.46  2171.21  2181.76  2189.93  2199.41
                             2202.49  2207.84  2208.76  2219.50  2225.84
                             2353.74  2380.57  2440.70  4268.86  4326.10
                             4358.87  4369.40  4380.91  4411.68  4419.57
                             4438.70  4443.12  4461.13  4477.24  4478.53
                             4493.74  4503.71  4530.19  4555.98  4579.70
                             4632.24  4640.70  4659.82  4986.10  5113.57

 Zero-point correction=                           0.356909 (Hartree/Particle)
 Thermal correction to Energy=                    0.377712
 Thermal correction to Enthalpy=                  0.378656
 Thermal correction to Gibbs Free Energy=         0.306200
 Sum of electronic and zero-point Energies=          -1279.713185
 Sum of electronic and thermal Energies=             -1279.692382
 Sum of electronic and thermal Enthalpies=           -1279.691438
 Sum of electronic and thermal Free Energies=        -1279.763894

                     E (Thermal)             CV                S
                      KCal/Mol        Cal/Mol-Kelvin    Cal/Mol-Kelvin
 Total                  237.018             78.134            152.497
 Electronic               0.000              0.000              0.000
 Translational            0.889              2.981             42.974
 Rotational               0.889              2.981             34.357
 Vibrational            235.240             72.172             75.166
 Vibration     1          0.593              1.985              6.252
 Vibration     2          0.594              1.983              5.630
 Vibration     3          0.594              1.982              5.452
 Vibration     4          0.597              1.970              4.268
 Vibration     5          0.599              1.966              4.037
 Vibration     6          0.599              1.965              3.997
 Vibration     7          0.602              1.954              3.589
 Vibration     8          0.612              1.923              2.935
 Vibration     9          0.613              1.920              2.896
 Vibration    10          0.617              1.908              2.731
 Vibration    11          0.624              1.882              2.460
 Vibration    12          0.633              1.854              2.227
 Vibration    13          0.642              1.826              2.044
 Vibration    14          0.647              1.810              1.957
 Vibration    15          0.656              1.782              1.815
 Vibration    16          0.665              1.755              1.700
 Vibration    17          0.668              1.745              1.660
 Vibration    18          0.683              1.701              1.502
 Vibration    19          0.686              1.694              1.480
 Vibration    20          0.691              1.679              1.434
 Vibration    21          0.697              1.661              1.381
 Vibration    22          0.730              1.568              1.151
 Vibration    23          0.745              1.525              1.063
 Vibration    24          0.751              1.510              1.034
 Vibration    25          0.765              1.471              0.965
 Vibration    26          0.818              1.340              0.767
 Vibration    27          0.831              1.308              0.727
 Vibration    28          0.845              1.274              0.686
 Vibration    29          0.883              1.187              0.591
 Vibration    30          0.900              1.151              0.555
 Vibration    31          0.919              1.111              0.517
 Vibration    32          0.947              1.054              0.468

                           ! Non-Optimized Parameters !
 Normal termination of Gaussian 16 at Mon Dec 14 14:29:14 2020.

 ----------------------------------------------------------------------
 # B3LYP/6-311++G(d,p) empiricaldispersion=gd3bj scf=xqc pop=npa geom=c
 heck
 ----------------------------------------------------------------------

 ---------------------------------------
 CID_65783670_JID_10284_Energie_neutraal
 ---------------------------------------
 Structure from the checkpoint file:  "JID_10284.chk"
 Charge =  0 Multiplicity = 1

 SCF Done:  E(RB3LYP) =  -1280.34752975     A.U. after   17 cycles
 Normal termination of Gaussian 16 at Mon Dec 14 14:38:57 2020.

 ----------------------------------------------------------------------
 # B3LYP/6-311++G(d,p) empiricaldispersion=gd3bj scf=xqc pop=npa geom=c
 heck
 ----------------------------------------------------------------------

 -------------------------------------
 CID_65783670_JID_10284_Energie_kation
 -------------------------------------
 Structure from the checkpoint file:  "JID_10284.chk"
 Charge =  1 Multiplicity = 2

 SCF Done:  E(UB3LYP) =  -1280.04805774     A.U. after   29 cycles
 Normal termination of Gaussian 16 at Mon Dec 14 15:01:15 2020.
 Gaussian 16:  ES64L-G16RevA.03 25-Dec-2016

 ----------------------------------------------------------------------
 # B3LYP/6-311++G(d,p) empiricaldispersion=gd3bj scf=xqc pop=npa geom=c
 heck
 ----------------------------------------------------------------------

 ------------------------------------
 CID_65783670_JID_10284_Energie_anion
 ------------------------------------
 Structure from the checkpoint file:  "JID_10284.chk"
 Charge = -1 Multiplicity = 2

                         Standard orientation:
 ---------------------------------------------------------------------
 Center     Atomic      Atomic             Coordinates (Angstroms)
 Number     Number       Type             X           Y           Z
 ---------------------------------------------------------------------
      1          6           0       -1.563161   -1.550683   -1.404197
      2          7           0       -1.902074   -0.575223   -0.367240
      3          6           0       -2.209759    0.783753   -0.851508
      4          6           0       -3.706291    1.078790   -0.862809
      5          6           0       -4.717571    0.037113   -1.415111
      6          6           0       -5.699625    0.467137   -0.293922
      7          6           0       -4.490046    1.058596    0.474995
      8         16           0       -1.012935   -0.690593    1.060529
      9          8           0       -1.594152    0.285675    1.985650
     10          8           0       -0.938164   -2.117645    1.380528
     11          6           0        0.633873   -0.131388    0.659027
     12          6           0        1.543666   -1.021295    0.075719
     13          6           0        2.803191   -0.590737   -0.321671
     14          6           0        3.143971    0.762984   -0.112529
     15          6           0        2.242546    1.650404    0.483614
     16          6           0        0.980376    1.200198    0.869050
     17          8           0        4.397030    1.116496   -0.522500
     18          6           0        4.810283    2.465055   -0.350121
     19          6           0        3.801650   -1.534180   -0.952076
     20          7           0        4.921231   -1.806456   -0.037244
     21          1           0       -0.618981   -1.306031   -1.915870
     22          1           0       -2.367991   -1.555927   -2.142792
     23          1           0       -1.491988   -2.542066   -0.957164
     24          1           0       -1.713085    1.520681   -0.214029
     25          1           0       -1.782200    0.893603   -1.857445
     26          1           0       -3.852900    2.042746   -1.368327
     27          1           0       -5.038873    0.133519   -2.457678
     28          1           0       -4.362175   -0.982446   -1.239533
     29          1           0       -6.278239   -0.320255    0.198003
     30          1           0       -6.387974    1.247648   -0.635743
     31          1           0       -4.052382    0.336170    1.167938
     32          1           0       -4.621741    2.011358    0.997255
     33          1           0        1.270661   -2.064614   -0.041272
     34          1           0        2.513399    2.683930    0.660897
     35          1           0        0.279068    1.869183    1.354621
     36          1           0        4.159444    3.154313   -0.902012
     37          1           0        4.822429    2.745650    0.710205
     38          1           0        5.822540    2.520138   -0.752811
     39          1           0        3.298887   -2.484390   -1.160572
     40          1           0        4.114400   -1.112802   -1.923451
     41          1           0        5.561607   -2.459195   -0.487724
     42          1           0        5.442635   -0.940651    0.090239
 ---------------------------------------------------------------------

 SCF Done:  E(UB3LYP) =  -1280.34340252     A.U. after   33 cycles
 SCF Done:  E(UB3LYP) =  -1280.34340251     a.u. after    1 cycles

 The electronic state is 2-A.
 Alpha  occ. eigenvalues --  -88.96901 -19.06768 -19.02485 -19.02443 -14.25857
 Alpha  occ. eigenvalues --  -14.19292 -10.14589 -10.13097 -10.12559 -10.12264
 Alpha  occ. eigenvalues --  -10.10412 -10.10148 -10.09683 -10.09313 -10.09019
 Alpha  occ. eigenvalues --  -10.08912 -10.08731 -10.08538 -10.08490 -10.08065
 Alpha  occ. eigenvalues --   -8.03046  -5.99319  -5.99316  -5.99130  -1.02782
 Alpha  occ. eigenvalues --   -0.98305  -0.91938  -0.85363  -0.79105  -0.76936
 Alpha  occ. eigenvalues --   -0.76668  -0.68673  -0.67164  -0.65825  -0.63380
 Alpha  occ. eigenvalues --   -0.61151  -0.57883  -0.57336  -0.55910  -0.53132
 Alpha  occ. eigenvalues --   -0.51599  -0.48541  -0.46122  -0.44570  -0.44113
 Alpha  occ. eigenvalues --   -0.41789  -0.41483  -0.40772  -0.39750  -0.39075
 Alpha  occ. eigenvalues --   -0.38439  -0.37761  -0.35908  -0.35737  -0.35429
 Alpha  occ. eigenvalues --   -0.35272  -0.33925  -0.33575  -0.32761  -0.32578
 Alpha  occ. eigenvalues --   -0.30626  -0.30451  -0.30122  -0.29049  -0.28873
 Alpha  occ. eigenvalues --   -0.27139  -0.26285  -0.25484  -0.24757  -0.24390
 Alpha  occ. eigenvalues --   -0.23921  -0.23324  -0.23076  -0.22653  -0.21631
 Alpha  occ. eigenvalues --   -0.21340  -0.17756  -0.16973  -0.14714  -0.14029
 Alpha  occ. eigenvalues --    0.03601
 Alpha virt. eigenvalues --    0.05057   0.05895   0.06246   0.06811   0.07039
 Alpha virt. eigenvalues --    0.07330   0.07742   0.08529   0.08896   0.09167
 Alpha virt. eigenvalues --    0.09762   0.10044   0.10307   0.10660   0.10987

  Beta  occ. eigenvalues --  -88.96899 -19.06749 -19.02484 -19.02439 -14.25851
  Beta  occ. eigenvalues --  -14.19253 -10.14534 -10.13043 -10.12556 -10.12255
  Beta  occ. eigenvalues --  -10.10397 -10.10144 -10.09677 -10.09322 -10.09015
  Beta  occ. eigenvalues --  -10.08904 -10.08584 -10.08528 -10.08401 -10.08063
  Beta  occ. eigenvalues --   -8.03044  -5.99315  -5.99314  -5.99128  -1.02770
  Beta  occ. eigenvalues --   -0.98255  -0.91932  -0.85349  -0.79010  -0.76882
  Beta  occ. eigenvalues --   -0.76595  -0.68533  -0.67034  -0.65810  -0.63326
  Beta  occ. eigenvalues --   -0.61081  -0.57868  -0.57200  -0.55866  -0.53057
  Beta  occ. eigenvalues --   -0.51523  -0.48489  -0.46083  -0.44498  -0.44076
  Beta  occ. eigenvalues --   -0.41761  -0.41428  -0.40748  -0.39723  -0.38999
  Beta  occ. eigenvalues --   -0.38389  -0.37697  -0.35847  -0.35703  -0.35392
  Beta  occ. eigenvalues --   -0.35209  -0.33906  -0.33500  -0.32729  -0.32523
  Beta  occ. eigenvalues --   -0.30609  -0.30405  -0.30099  -0.28873  -0.28748
  Beta  occ. eigenvalues --   -0.27076  -0.26275  -0.25467  -0.24609  -0.24356
  Beta  occ. eigenvalues --   -0.23861  -0.23285  -0.23063  -0.22642  -0.21616
  Beta  occ. eigenvalues --   -0.21297  -0.17712  -0.16581  -0.14668  -0.13684
  Beta virt. eigenvalues --    0.05272   0.06204   0.06441   0.06624   0.07054
  Beta virt. eigenvalues --    0.07179   0.07842   0.08055   0.08827   0.09211
  Beta virt. eigenvalues --    0.09271   0.09876   0.10174   0.10684   0.10722

 Mulliken charges and spin densities:
               1          2
     1  C   -0.403424  -0.083621
     2  N    0.127818   0.024245
     3  C   -0.763844   0.036523
     4  C    0.775808  -0.033756
     5  C   -0.308318  -0.233353
     6  C   -0.012517  -0.247687
     7  C   -0.447002  -0.134981
     8  S    0.212963  -0.234217
     9  O   -0.112927  -0.000776
    10  O   -0.119848   0.001474
    11  C    0.889028  -0.579283
    12  C   -0.099989   0.005218
    13  C    0.612594   0.192023
    14  C   -1.773333   0.673674
    15  C    0.082664  -0.310444
    16  C    0.217707  -0.234342
    17  O   -0.223392   0.087296
    18  C    0.895097  -1.221465
    19  C   -0.118237  -0.530309
    20  N   -0.405990   0.058125
    21  H    0.157863   0.007044
    22  H    0.027462   0.099925
    23  H    0.180312   0.013840
    24  H    0.146884  -0.010820
    25  H   -0.042160   0.198471
    26  H   -0.105713   0.322095
    27  H   -0.032243   0.164021
    28  H    0.154104  -0.025419
    29  H    0.128688   0.008024
    30  H    0.043362   0.078427
    31  H    0.165738   0.004249
    32  H    0.120452   0.011790
    33  H    0.200330   0.017478
    34  H   -0.010218   0.207361
    35  H    0.046748   0.156219
    36  H   -0.421055   0.589228
    37  H    0.006073   0.147823
    38  H   -0.780649   0.967490
    39  H    0.022354   0.140935
    40  H   -0.159116   0.322297
    41  H   -0.041071   0.268364
    42  H    0.166999   0.076814
 Sum of Mulliken charges =  -1.00000   1.00000

 Dipole moment (field-independent basis, Debye):
    X=             -8.7953    Y=             -1.4800    Z=             -0.7616  Tot=              8.9514
 Quadrupole moment (field-independent basis, Debye-Ang):
   XX=           -244.5172   YY=           -171.2249   ZZ=           -166.0096
   XY=             -6.2134   XZ=             10.4503   YZ=             12.8517

 Summary of Natural Population Analysis:

                                       Natural Population
                Natural  -----------------------------------------------
    Atom  No    Charge         Core      Valence    Rydberg      Total
 -----------------------------------------------------------------------
      C    1   -0.18369      0.99964     2.17545    0.00860     3.18369
      N    2   -0.37493      0.99972     2.86112    0.01409     3.87493
      C    3   -0.08857      0.99957     2.07685    0.01215     3.08857
      C    4   -0.11224      0.99960     2.10075    0.01188     3.11224
      C    5   -0.19087      0.99963     2.18271    0.00853     3.19087
      C    6   -0.18950      0.99965     2.18287    0.00698     3.18950
      C    7   -0.19036      0.99963     2.18154    0.00919     3.19036
      S    8    1.12056      4.99908     1.77898    0.10137     6.87944
      O    9   -0.46646      0.99991     3.46108    0.00548     4.46646
      O   10   -0.46574      0.99991     3.46050    0.00534     4.46574
      C   11   -0.15964      0.99936     2.14519    0.01509     3.15964
      C   12   -0.09046      0.99947     2.08067    0.01033     3.09046
      C   13   -0.01958      0.99947     2.00900    0.01110     3.01958
      C   14    0.18548      0.99934     1.80184    0.01334     2.81452
      C   15   -0.14360      0.99952     2.13543    0.00865     3.14360
      C   16   -0.06080      0.99952     2.05083    0.01046     3.06080
      O   17   -0.27442      0.99986     3.26365    0.01091     4.27442
      C   18   -0.09956      0.99959     2.09092    0.00904     3.09956
      C   19   -0.09479      0.99960     2.08277    0.01243     3.09479
      N   20   -0.41992      0.99977     2.90996    0.01018     3.91992
      H   21    0.09271      0.00000     0.40631    0.00098     0.40729
      H   22    0.09822      0.00000     0.40091    0.00087     0.40178
      H   23    0.11080      0.00000     0.38838    0.00082     0.38920
      H   24    0.10927      0.00000     0.38931    0.00142     0.39073
      H   25    0.09593      0.00000     0.40292    0.00115     0.40407
      H   26    0.09811      0.00000     0.40074    0.00116     0.40189
      H   27    0.09511      0.00000     0.40394    0.00095     0.40489
      H   28    0.09867      0.00000     0.39997    0.00136     0.40133
      H   29    0.09355      0.00000     0.40551    0.00095     0.40645
      H   30    0.09255      0.00000     0.40612    0.00133     0.40745
      H   31    0.10915      0.00000     0.38930    0.00156     0.39085
      H   32    0.09546      0.00000     0.40378    0.00076     0.40454
      H   33    0.11056      0.00000     0.38824    0.00119     0.38944
      H   34    0.10752      0.00000     0.39133    0.00114     0.39248
      H   35    0.11000      0.00000     0.38885    0.00115     0.39000
      H   36    0.08871      0.00000     0.40862    0.00267     0.41129
      H   37    0.08315      0.00000     0.41554    0.00130     0.41685
      H   38    0.09791      0.00000     0.39993    0.00215     0.40209
      H   39    0.09065      0.00000     0.40817    0.00118     0.40935
      H   40    0.08950      0.00000     0.40843    0.00207     0.41050
      H   41    0.17244      0.00000     0.32554    0.00202     0.32756
      H   42    0.17914      0.00000     0.31860    0.00227     0.32086
 =======================================================================
   * Total *   -0.00000     23.99185    55.68255    0.32561    80.00000

 Normal termination of Gaussian 16 at Mon Dec 14 15:26:28 2020.
