 Gaussian 16, Revision A.03,

 -----------------------------------------------------------
 # opt freq B3LYP/6-31G(d) empiricaldispersion=gd3bj scf=xqc
 -----------------------------------------------------------

 ------------------------------
 CID_63808207_JID_6602_neutraal
 ------------------------------
 Symbolic Z-matrix:
 Charge =  0 Multiplicity = 1

 SCF Done:  E(RB3LYP) =  -1070.96819176     A.U. after   15 cycles
 SCF Done:  E(RB3LYP) =  -1070.97288115     A.U. after   12 cycles
 SCF Done:  E(RB3LYP) =  -1070.97210683     A.U. after   14 cycles
 SCF Done:  E(RB3LYP) =  -1070.97377313     A.U. after   13 cycles
 SCF Done:  E(RB3LYP) =  -1070.97493373     A.U. after   12 cycles
 SCF Done:  E(RB3LYP) =  -1070.97560800     A.U. after   13 cycles
 SCF Done:  E(RB3LYP) =  -1070.97649751     A.U. after   13 cycles
 SCF Done:  E(RB3LYP) =  -1070.97494475     A.U. after   13 cycles
 SCF Done:  E(RB3LYP) =  -1070.97707912     A.U. after   12 cycles
 SCF Done:  E(RB3LYP) =  -1070.97801766     A.U. after   13 cycles
 SCF Done:  E(RB3LYP) =  -1070.98012323     A.U. after    9 cycles
 SCF Done:  E(RB3LYP) =  -1070.98012394     A.U. after    8 cycles
 SCF Done:  E(RB3LYP) =  -1070.98012442     A.U. after    8 cycles
 SCF Done:  E(RB3LYP) =  -1070.98012481     A.U. after    8 cycles
 SCF Done:  E(RB3LYP) =  -1070.98012489     A.U. after    7 cycles
 Optimization completed.
    -- Stationary point found.
 Normal termination of Gaussian 16 at Fri Dec 11 00:09:25 2020.

 --------------------------------------------------------------------
 #N Geom=AllCheck Guess=TCheck SCRF=Check GenChk RB3LYP/6-31G(d) Freq
 --------------------------------------------------------------------

 Structure from the checkpoint file:  "JID_6602.chk"
 ------------------------------
 CID_63808207_JID_6602_neutraal
 ------------------------------
 Charge =  0 Multiplicity = 1

 SCF Done:  E(RB3LYP) =  -1070.98012489     A.U. after    1 cycles

  Exact polarizability: 187.687 -16.594 128.397   4.941  10.638 136.074
 Approx polarizability: 268.517 -27.624 180.439   9.278  21.836 246.932

                      1                      2                      3
                      A                      A                      A
 Frequencies --     27.9307                32.2383                57.4067
 Red. masses --      4.1550                 4.0381                 3.0679
 Frc consts  --      0.0019                 0.0025                 0.0060
 IR Inten    --      0.1608                 0.6132                 2.7968

                      4                      5                      6
                      A                      A                      A
 Frequencies --     76.2780                98.3854               102.5066
 Red. masses --      3.3780                 4.2729                 3.7113
 Frc consts  --      0.0116                 0.0244                 0.0230
 IR Inten    --      0.0970                 0.8834                 2.6810

                      7                      8                      9
                      A                      A                      A
 Frequencies --    125.6951               128.1317               181.3277
 Red. masses --      3.8678                 4.3667                 3.6893
 Frc consts  --      0.0360                 0.0422                 0.0715
 IR Inten    --      1.5474                 0.4605                 2.6431

                     10                     11                     12
                      A                      A                      A
 Frequencies --    204.6933               223.4100               225.3061
 Red. masses --      1.4517                 2.0521                 1.1903
 Frc consts  --      0.0358                 0.0603                 0.0356
 IR Inten    --      1.6093                11.4066                 1.9706

                     13                     14                     15
                      A                      A                      A
 Frequencies --    243.4652               253.9315               275.6247
 Red. masses --      2.6338                 2.9272                 1.9324
 Frc consts  --      0.0920                 0.1112                 0.0865
 IR Inten    --     12.2377                 6.1805                19.2222

                     16                     17                     18
                      A                      A                      A
 Frequencies --    321.0811               341.8151               370.9991
 Red. masses --      2.3206                 2.2085                 4.2869
 Frc consts  --      0.1410                 0.1520                 0.3477
 IR Inten    --      5.9951                39.1491                 4.4684

                     19                     20                     21
                      A                      A                      A
 Frequencies --    377.1539               398.5356               452.6883
 Red. masses --      3.4705                 5.0792                 3.5958
 Frc consts  --      0.2909                 0.4753                 0.4341
 IR Inten    --      1.2037                 1.0755                 2.1011

                     22                     23                     24
                      A                      A                      A
 Frequencies --    461.9281               507.1822               554.7035
 Red. masses --      3.3881                 3.2519                 4.7208
 Frc consts  --      0.4259                 0.4929                 0.8558
 IR Inten    --     10.6494                 3.2847                 2.3490

                     25                     26                     27
                      A                      A                      A
 Frequencies --    584.9104               600.2643               649.4385
 Red. masses --      4.5422                 4.7576                 4.1362
 Frc consts  --      0.9156                 1.0100                 1.0279
 IR Inten    --      2.6296                 8.8329                 3.7373

                     28                     29                     30
                      A                      A                      A
 Frequencies --    705.2431               728.0634               747.6039
 Red. masses --      4.1084                 4.0942                 4.4205
 Frc consts  --      1.2039                 1.2787                 1.4557
 IR Inten    --      2.4445                 0.9189                 5.9266

                     31                     32                     33
                      A                      A                      A
 Frequencies --    780.1446               802.5249               845.7216
 Red. masses --      3.9685                 1.4088                 1.2984
 Frc consts  --      1.4231                 0.5346                 0.5472
 IR Inten    --      4.8141                 3.9111                38.2727

                     34                     35                     36
                      A                      A                      A
 Frequencies --    862.6211               874.7386               906.8103
 Red. masses --      2.3644                 1.2783                 1.3519
 Frc consts  --      1.0366                 0.5763                 0.6550
 IR Inten    --      7.4248                74.4214                13.5463

                     37                     38                     39
                      A                      A                      A
 Frequencies --    934.2530               938.4641               948.3924
 Red. masses --      2.1672                 3.5275                 2.5311
 Frc consts  --      1.1145                 1.8304                 1.3413
 IR Inten    --      5.4423                 4.8584                 7.0987

                     40                     41                     42
                      A                      A                      A
 Frequencies --    977.3382              1013.8969              1031.8542
 Red. masses --      1.3009                 1.7089                 1.5877
 Frc consts  --      0.7321                 1.0350                 0.9960
 IR Inten    --      0.8194                20.0336                 3.8548

                     43                     44                     45
                      A                      A                      A
 Frequencies --   1057.5128              1073.5908              1083.7785
 Red. masses --      3.7307                 4.3213                 1.5027
 Frc consts  --      2.4581                 2.9346                 1.0400
 IR Inten    --     40.8867                 8.8261                 8.6175

                     46                     47                     48
                      A                      A                      A
 Frequencies --   1084.0443              1136.1948              1160.5380
 Red. masses --      2.7760                 1.9156                 1.3524
 Frc consts  --      1.9220                 1.4570                 1.0732
 IR Inten    --      7.2735                20.6798                70.9143

                     49                     50                     51
                      A                      A                      A
 Frequencies --   1168.5534              1185.8573              1205.4501
 Red. masses --      1.4586                 1.2753                 1.4924
 Frc consts  --      1.1735                 1.0566                 1.2777
 IR Inten    --      2.8974                 5.9642                 0.7948

                     52                     53                     54
                      A                      A                      A
 Frequencies --   1209.0197              1265.4494              1287.9146
 Red. masses --      1.7125                 2.6944                 1.2801
 Frc consts  --      1.4748                 2.5421                 1.2511
 IR Inten    --     10.9538                 3.1365                 5.7457

                     55                     56                     57
                      A                      A                      A
 Frequencies --   1306.5539              1309.1792              1323.8857
 Red. masses --      1.5918                 2.3933                 1.8228
 Frc consts  --      1.6010                 2.4169                 1.8823
 IR Inten    --     22.0485               230.9357                 1.2928

                     58                     59                     60
                      A                      A                      A
 Frequencies --   1345.5987              1354.9949              1423.1282
 Red. masses --      1.1834                 2.6563                 1.3151
 Frc consts  --      1.2625                 2.8734                 1.5692
 IR Inten    --     31.0058                 0.8206                 5.5962

                     61                     62                     63
                      A                      A                      A
 Frequencies --   1427.3751              1440.0372              1448.5942
 Red. masses --      1.7353                 1.2409                 1.3216
 Frc consts  --      2.0830                 1.5162                 1.6340
 IR Inten    --     25.7737                 3.2619                 8.0337

                     64                     65                     66
                      A                      A                      A
 Frequencies --   1464.5810              1490.5169              1513.1587
 Red. masses --      2.1702                 1.1136                 1.0948
 Frc consts  --      2.7427                 1.4576                 1.4769
 IR Inten    --     20.3433                 8.2962                 7.4309

                     67                     68                     69
                      A                      A                      A
 Frequencies --   1513.8152              1519.9953              1521.1220
 Red. masses --      1.0522                 1.0785                 1.9672
 Frc consts  --      1.4207                 1.4681                 2.6818
 IR Inten    --      9.6582                 2.1159                18.2084

                     70                     71                     72
                      A                      A                      A
 Frequencies --   1534.5826              1535.6392              1548.3401
 Red. masses --      1.0672                 1.1001                 1.1747
 Frc consts  --      1.4808                 1.5285                 1.6592
 IR Inten    --     17.3707                 2.7275                11.7718

                     73                     74                     75
                      A                      A                      A
 Frequencies --   1618.8347              1661.6863              1692.4895
 Red. masses --      6.0619                 5.3898                 1.1053
 Frc consts  --      9.3597                 8.7684                 1.8654
 IR Inten    --      0.3388                 1.9813                31.4300

                     76                     77                     78
                      A                      A                      A
 Frequencies --   1806.1426              2967.8244              3042.1577
 Red. masses --     10.5240                 1.0725                 1.0886
 Frc consts  --     20.2272                 5.5657                 5.9360
 IR Inten    --    158.0978                70.0034                33.1432

                     79                     80                     81
                      A                      A                      A
 Frequencies --   3053.8845              3064.3133              3095.7300
 Red. masses --      1.0354                 1.0409                 1.0583
 Frc consts  --      5.6894                 5.7587                 5.9758
 IR Inten    --     18.3472                14.9484                34.2244

                     82                     83                     84
                      A                      A                      A
 Frequencies --   3097.1057              3117.6994              3130.6466
 Red. masses --      1.0607                 1.1011                 1.1025
 Frc consts  --      5.9947                 6.3057                 6.3665
 IR Inten    --      6.9859                 4.3251                14.0427

                     85                     86                     87
                      A                      A                      A
 Frequencies --   3139.1326              3143.5024              3168.2112
 Red. masses --      1.0946                 1.1082                 1.1047
 Frc consts  --      6.3553                 6.4519                 6.5333
 IR Inten    --     27.6036                 4.8945                 3.1163

                     88                     89                     90
                      A                      A                      A
 Frequencies --   3169.2722              3169.6669              3203.7312
 Red. masses --      1.0897                 1.1056                 1.0882
 Frc consts  --      6.4490                 6.5443                 6.5809
 IR Inten    --     15.5877                23.2511                 1.9433

                     91                     92                     93
                      A                      A                      A
 Frequencies --   3221.7814              3466.6040              3555.8309
 Red. masses --      1.0938                 1.0496                 1.0930
 Frc consts  --      6.6894                 7.4317                 8.1421
 IR Inten    --      4.1828                 2.9018                 0.8995

 - Thermochemistry -
 -------------------
 Temperature   298.150 Kelvin.  Pressure   1.00000 Atm.
 Atom     1 has atomic number  6 and mass  12.00000

 Molecular mass:   239.09800 amu.
 Principal axes and moments of inertia in atomic units:
                           1         2         3
     Eigenvalues --  2708.357094944.095355971.18216
           X            0.99991  -0.01375   0.00037
           Y            0.01371   0.99865   0.05016
           Z           -0.00106  -0.05015   0.99874
 This molecule is an asymmetric top.
 Rotational symmetry number  1.
 Warning -- assumption of classical behavior for rotation
           may cause significant error
 Rotational temperatures (Kelvin)      0.03198     0.01752     0.01451
 Rotational constants (GHZ):           0.66636     0.36503     0.30224
 Zero-point vibrational energy     726731.1 (Joules/Mol)
                                  173.69290 (Kcal/Mol)
 Warning -- explicit consideration of  26 degrees of freedom as
           vibrations may cause significant error
 Vibrational temperatures:     40.19    46.38    82.60   109.75   141.55
          (Kelvin)            147.48   180.85   184.35   260.89   294.51
                              321.44   324.17   350.29   365.35   396.56
                              461.96   491.80   533.79   542.64   573.40
                              651.32   664.61   729.72   798.09   841.56
                              863.65   934.40  1014.69  1047.52  1075.64
                             1122.45  1154.65  1216.80  1241.12  1258.55
                             1304.70  1344.18  1350.24  1364.53  1406.17
                             1458.77  1484.61  1521.53  1544.66  1559.32
                             1559.70  1634.73  1669.76  1681.29  1706.18
                             1734.37  1739.51  1820.70  1853.02  1879.84
                             1883.62  1904.78  1936.02  1949.54  2047.56
                             2053.67  2071.89  2084.20  2107.21  2144.52
                             2177.10  2178.04  2186.93  2188.56  2207.92
                             2209.44  2227.72  2329.14  2390.80  2435.11
                             2598.64  4270.04  4376.99  4393.86  4408.86
                             4454.06  4456.04  4485.67  4504.30  4516.51
                             4522.80  4558.35  4559.88  4560.44  4609.45
                             4635.42  4987.67  5116.05

 Zero-point correction=                           0.276797 (Hartree/Particle)
 Thermal correction to Energy=                    0.293899
 Thermal correction to Enthalpy=                  0.294844
 Thermal correction to Gibbs Free Energy=         0.230951
 Sum of electronic and zero-point Energies=          -1070.703328
 Sum of electronic and thermal Energies=             -1070.686226
 Sum of electronic and thermal Enthalpies=           -1070.685281
 Sum of electronic and thermal Free Energies=        -1070.749174

                     E (Thermal)             CV                S
                      KCal/Mol        Cal/Mol-Kelvin    Cal/Mol-Kelvin
 Total                  184.425             62.975            134.473
 Electronic               0.000              0.000              0.000
 Translational            0.889              2.981             42.316
 Rotational               0.889              2.981             32.747
 Vibrational            182.647             57.013             59.410
 Vibration     1          0.593              1.984              5.971
 Vibration     2          0.594              1.983              5.687
 Vibration     3          0.596              1.975              4.544
 Vibration     4          0.599              1.965              3.984
 Vibration     5          0.604              1.950              3.486
 Vibration     6          0.605              1.947              3.406
 Vibration     7          0.611              1.927              3.011
 Vibration     8          0.611              1.925              2.974
 Vibration     9          0.630              1.865              2.315
 Vibration    10          0.640              1.833              2.090
 Vibration    11          0.649              1.805              1.931
 Vibration    12          0.650              1.802              1.916
 Vibration    13          0.659              1.774              1.777
 Vibration    14          0.665              1.756              1.703
 Vibration    15          0.677              1.718              1.561
 Vibration    16          0.707              1.633              1.305
 Vibration    17          0.721              1.592              1.204
 Vibration    18          0.743              1.532              1.076
 Vibration    19          0.748              1.519              1.051
 Vibration    20          0.765              1.473              0.968
 Vibration    21          0.811              1.355              0.788
 Vibration    22          0.820              1.334              0.761
 Vibration    23          0.862              1.234              0.640
 Vibration    24          0.910              1.129              0.535
 Vibration    25          0.942              1.064              0.476
 Vibration    26          0.958              1.031              0.449

 Optimization completed.
    -- Stationary point found.
 Normal termination of Gaussian 16 at Fri Dec 11 00:22:34 2020.

 ----------------------------------------------------------------------
 # B3LYP/6-311++G(d,p) empiricaldispersion=gd3bj scf=xqc pop=npa geom=c
 heck
 ----------------------------------------------------------------------

 --------------------------------------
 CID_63808207_JID_6602_Energie_neutraal
 --------------------------------------
 Structure from the checkpoint file:  "JID_6602.chk"
 Charge =  0 Multiplicity = 1

 SCF Done:  E(RB3LYP) =  -1071.20035793     A.U. after   16 cycles
 Normal termination of Gaussian 16 at Fri Dec 11 00:29:19 2020.

 ----------------------------------------------------------------------
 # B3LYP/6-311++G(d,p) empiricaldispersion=gd3bj scf=xqc pop=npa geom=c
 heck
 ----------------------------------------------------------------------

 ------------------------------------
 CID_63808207_JID_6602_Energie_kation
 ------------------------------------
 Structure from the checkpoint file:  "JID_6602.chk"
 Charge =  1 Multiplicity = 2

 SCF Done:  E(UB3LYP) =  -1070.91000044     A.U. after   25 cycles
 Normal termination of Gaussian 16 at Fri Dec 11 00:44:33 2020.
 Gaussian 16:  ES64L-G16RevA.03 25-Dec-2016

 ----------------------------------------------------------------------
 # B3LYP/6-311++G(d,p) empiricaldispersion=gd3bj scf=xqc pop=npa geom=c
 heck
 ----------------------------------------------------------------------

 -----------------------------------
 CID_63808207_JID_6602_Energie_anion
 -----------------------------------
 Structure from the checkpoint file:  "JID_6602.chk"
 Charge = -1 Multiplicity = 2

                         Standard orientation:
 ---------------------------------------------------------------------
 Center     Atomic      Atomic             Coordinates (Angstroms)
 Number     Number       Type             X           Y           Z
 ---------------------------------------------------------------------
      1          6           0        0.171606   -2.621625    0.115958
      2          6           0       -1.325494   -2.848883   -0.015311
      3          8           0       -2.010716   -1.643633   -0.441028
      4          6           0       -2.261872   -0.741520    0.520118
      5          8           0       -1.992889   -0.895300    1.694367
      6          6           0       -2.933603    0.502145   -0.023287
      7         16           0       -1.893084    1.463728   -1.210675
      8          6           0       -0.224348    1.125532   -0.654379
      9          6           0        0.247743    1.477624    0.624872
     10          6           0        1.575671    1.159988    0.937395
     11          6           0        2.439385    0.553627    0.023805
     12          6           0        1.959029    0.247300   -1.253917
     13          6           0        0.635984    0.520055   -1.580900
     14          6           0        3.872292    0.246353    0.402195
     15          7           0        4.292324   -1.050531   -0.140716
     16          6           0       -0.622661    2.153503    1.651412
     17          1           0        0.601576   -2.287681   -0.831063
     18          1           0        0.657569   -3.558604    0.412711
     19          1           0        0.381056   -1.863537    0.874633
     20          1           0       -1.557273   -3.574577   -0.797755
     21          1           0       -1.761832   -3.180739    0.929898
     22          1           0       -3.824182    0.223261   -0.593997
     23          1           0       -3.223606    1.120775    0.825679
     24          1           0        1.945373    1.404880    1.931202
     25          1           0        2.619560   -0.236637   -1.965667
     26          1           0        0.246922    0.251071   -2.557763
     27          1           0        4.534792    1.007252   -0.033461
     28          1           0        3.976422    0.336724    1.497456
     29          1           0        5.268141   -1.222509    0.094084
     30          1           0        3.749825   -1.792092    0.300129
     31          1           0       -1.277560    2.895383    1.182328
     32          1           0       -1.256046    1.422015    2.166121
     33          1           0       -0.011214    2.655970    2.406801
 ---------------------------------------------------------------------

 SCF Done:  E(UB3LYP) =  -1071.19179337     A.U. after   33 cycles
 SCF Done:  E(UB3LYP) =  -1071.19179337     a.u. after    1 cycles

 The electronic state is 2-A.
 Alpha  occ. eigenvalues --  -88.73944 -19.06707 -19.00920 -14.18029 -10.20051
 Alpha  occ. eigenvalues --  -10.13009 -10.10442 -10.08591 -10.08510 -10.07402
 Alpha  occ. eigenvalues --  -10.06519 -10.06295 -10.06066 -10.06055 -10.05861
 Alpha  occ. eigenvalues --  -10.05217  -7.82517  -5.78935  -5.78553  -5.77874
 Alpha  occ. eigenvalues --   -1.00813  -0.92033  -0.77669  -0.75224  -0.70432
 Alpha  occ. eigenvalues --   -0.67179  -0.66253  -0.64232  -0.59032  -0.57443
 Alpha  occ. eigenvalues --   -0.55166  -0.52339  -0.49226  -0.45927  -0.45065
 Alpha  occ. eigenvalues --   -0.41264  -0.39214  -0.38995  -0.37429  -0.37082
 Alpha  occ. eigenvalues --   -0.35850  -0.34334  -0.33577  -0.33024  -0.31827
 Alpha  occ. eigenvalues --   -0.31635  -0.30628  -0.29949  -0.29485  -0.29041
 Alpha  occ. eigenvalues --   -0.28029  -0.27173  -0.27055  -0.25233  -0.24476
 Alpha  occ. eigenvalues --   -0.23565  -0.23366  -0.21568  -0.20747  -0.17835
 Alpha  occ. eigenvalues --   -0.15358  -0.14084  -0.13294  -0.11633   0.04465
 Alpha virt. eigenvalues --    0.06744   0.07137   0.07215   0.08323   0.08949
 Alpha virt. eigenvalues --    0.09218   0.09431   0.09760   0.10196   0.10580
 Alpha virt. eigenvalues --    0.11029   0.11609   0.11712   0.12977   0.13241

  Beta  occ. eigenvalues --  -88.73919 -19.06702 -19.00845 -14.17962 -10.19994
  Beta  occ. eigenvalues --  -10.13000 -10.10340 -10.08516 -10.08497 -10.07311
  Beta  occ. eigenvalues --  -10.06527 -10.06197 -10.06088 -10.06059 -10.05844
  Beta  occ. eigenvalues --  -10.05163  -7.82490  -5.78880  -5.78529  -5.77853
  Beta  occ. eigenvalues --   -1.00748  -0.91933  -0.77532  -0.75075  -0.70260
  Beta  occ. eigenvalues --   -0.67071  -0.66134  -0.64092  -0.58888  -0.57359
  Beta  occ. eigenvalues --   -0.55087  -0.52229  -0.49189  -0.45832  -0.44927
  Beta  occ. eigenvalues --   -0.41173  -0.39125  -0.38897  -0.37344  -0.36911
  Beta  occ. eigenvalues --   -0.35765  -0.34260  -0.33509  -0.32949  -0.31731
  Beta  occ. eigenvalues --   -0.31488  -0.30489  -0.29896  -0.29413  -0.28912
  Beta  occ. eigenvalues --   -0.27990  -0.27133  -0.26882  -0.25013  -0.24436
  Beta  occ. eigenvalues --   -0.23456  -0.23231  -0.21453  -0.20602  -0.17724
  Beta  occ. eigenvalues --   -0.15081  -0.13820  -0.13145  -0.11315
  Beta virt. eigenvalues --    0.06808   0.07411   0.07628   0.08004   0.08426
  Beta virt. eigenvalues --    0.09355   0.09387   0.09574   0.10165   0.10614
  Beta virt. eigenvalues --    0.10737   0.11193   0.11747   0.11819   0.13091

 Mulliken charges and spin densities:
               1          2
     1  C   -0.118209  -0.184626
     2  C    0.175562  -0.449746
     3  O    0.070036   0.013898
     4  C   -0.419543   0.282971
     5  O   -0.250416   0.043169
     6  C    0.111617  -0.611939
     7  S   -0.541424   0.117311
     8  C    1.052636   0.148154
     9  C   -0.066054   0.066360
    10  C   -0.327529  -0.356667
    11  C    0.205597   0.574197
    12  C   -0.610461  -0.015284
    13  C   -0.351738   0.035325
    14  C    0.738308  -1.356485
    15  N   -0.289300  -0.076496
    16  C   -0.616363  -0.082156
    17  H    0.170543  -0.005199
    18  H   -0.280332   0.417487
    19  H    0.062298   0.133906
    20  H   -0.021727   0.183830
    21  H    0.056299   0.112446
    22  H    0.045792   0.196031
    23  H    0.159130   0.039189
    24  H    0.136576   0.020377
    25  H    0.141567   0.044806
    26  H    0.175234   0.003020
    27  H   -0.138555   0.306105
    28  H   -0.273552   0.435247
    29  H   -0.343907   0.593503
    30  H   -0.054547   0.273580
    31  H    0.163024   0.005484
    32  H    0.149099   0.067724
    33  H    0.090337   0.024479
 Sum of Mulliken charges =  -1.00000   1.00000

 Dipole moment (field-independent basis, Debye):
    X=             -7.2368    Y=              2.4347    Z=             -0.6892  Tot=              7.6664
 Quadrupole moment (field-independent basis, Debye-Ang):
   XX=           -185.8155   YY=           -136.7845   ZZ=           -129.6115
   XY=             11.1939   XZ=              0.1640   YZ=              7.0109

 Summary of Natural Population Analysis:

                                       Natural Population
                Natural  -----------------------------------------------
    Atom  No    Charge         Core      Valence    Rydberg      Total
 -----------------------------------------------------------------------
      C    1   -0.30210      0.99966     2.29700    0.00545     3.30210
      C    2   -0.01623      0.99958     2.00550    0.01116     3.01623
      O    3   -0.28071      0.99986     3.27144    0.00941     4.28071
      C    4    0.40978      0.99968     1.56392    0.02662     2.59022
      O    5   -0.30384      0.99987     3.29792    0.00606     4.30384
      C    6   -0.28461      0.99953     2.27436    0.01072     3.28461
      S    7    0.11369      4.99956     2.86773    0.01902     7.88631
      C    8   -0.08981      0.99935     2.07839    0.01208     3.08981
      C    9   -0.00277      0.99945     1.99352    0.00980     3.00277
      C   10   -0.10517      0.99947     2.09671    0.00899     3.10517
      C   11    0.00294      0.99950     1.98729    0.01027     2.99706
      C   12   -0.09820      0.99950     2.08896    0.00974     3.09820
      C   13   -0.09788      0.99950     2.08695    0.01143     3.09788
      C   14   -0.09377      0.99960     2.08180    0.01238     3.09377
      N   15   -0.42066      0.99978     2.91001    0.01088     3.92066
      C   16   -0.30097      0.99963     2.29648    0.00485     3.30097
      H   17    0.10530      0.00000     0.39343    0.00128     0.39470
      H   18    0.10038      0.00000     0.39853    0.00109     0.39962
      H   19    0.11128      0.00000     0.38732    0.00140     0.38872
      H   20    0.08717      0.00000     0.41181    0.00102     0.41283
      H   21    0.09263      0.00000     0.40621    0.00116     0.40737
      H   22    0.11397      0.00000     0.38481    0.00122     0.38603
      H   23    0.10653      0.00000     0.39213    0.00134     0.39347
      H   24    0.09490      0.00000     0.40339    0.00171     0.40510
      H   25    0.10879      0.00000     0.38999    0.00122     0.39121
      H   26    0.10178      0.00000     0.39725    0.00098     0.39822
      H   27    0.09615      0.00000     0.40229    0.00156     0.40385
      H   28    0.08044      0.00000     0.41787    0.00169     0.41956
      H   29    0.17848      0.00000     0.31561    0.00591     0.32152
      H   30    0.17437      0.00000     0.32236    0.00327     0.32563
      H   31    0.10466      0.00000     0.39429    0.00105     0.39534
      H   32    0.11522      0.00000     0.38337    0.00141     0.38478
      H   33    0.09827      0.00000     0.40099    0.00075     0.40173
 =======================================================================
   * Total *   -0.00000     19.99351    43.79959    0.20690    64.00000

 Normal termination of Gaussian 16 at Fri Dec 11 01:04:30 2020.
