 Gaussian 16, Revision A.03,

 -----------------------------------------------------------
 # opt freq B3LYP/6-31G(d) empiricaldispersion=gd3bj scf=xqc
 -----------------------------------------------------------

 -------------------------------
 CID_123833183_JID_2641_neutraal
 -------------------------------
 Symbolic Z-matrix:
 Charge =  0 Multiplicity = 1

 SCF Done:  E(RB3LYP) =  -469.356877697     A.U. after   13 cycles
 SCF Done:  E(RB3LYP) =  -469.359491719     A.U. after   11 cycles
 SCF Done:  E(RB3LYP) =  -469.360781120     A.U. after   11 cycles
 SCF Done:  E(RB3LYP) =  -469.361001178     A.U. after   13 cycles
 SCF Done:  E(RB3LYP) =  -469.361425069     A.U. after   11 cycles
 SCF Done:  E(RB3LYP) =  -469.361508003     A.U. after    9 cycles
 SCF Done:  E(RB3LYP) =  -469.361606929     A.U. after   10 cycles
 SCF Done:  E(RB3LYP) =  -469.361615687     A.U. after    9 cycles
 SCF Done:  E(RB3LYP) =  -469.361615792     A.U. after    7 cycles
 SCF Done:  E(RB3LYP) =  -469.361615849     A.U. after    7 cycles
 SCF Done:  E(RB3LYP) =  -469.361615936     A.U. after    7 cycles
 Optimization completed.
    -- Stationary point found.
 Normal termination of Gaussian 16 at Wed Dec  9 17:49:54 2020.

 --------------------------------------------------------------------
 #N Geom=AllCheck Guess=TCheck SCRF=Check GenChk RB3LYP/6-31G(d) Freq
 --------------------------------------------------------------------

 Structure from the checkpoint file:  "JID_2641.chk"
 -------------------------------
 CID_123833183_JID_2641_neutraal
 -------------------------------
 Charge =  0 Multiplicity = 1

 SCF Done:  E(RB3LYP) =  -469.361615936     A.U. after    1 cycles

  Exact polarizability: 152.068   5.778 119.926   3.473  -9.437  98.274
 Approx polarizability: 195.163  11.255 180.730   7.563 -23.168 154.719

                      1                      2                      3
                      A                      A                      A
 Frequencies --     48.9221                52.5905                71.3828
 Red. masses --      2.9936                 2.8403                 2.7215
 Frc consts  --      0.0042                 0.0046                 0.0082
 IR Inten    --      0.0141                 0.0222                 0.0494

                      4                      5                      6
                      A                      A                      A
 Frequencies --    113.1619               152.2133               197.4581
 Red. masses --      2.4659                 2.8722                 1.8616
 Frc consts  --      0.0186                 0.0392                 0.0428
 IR Inten    --      0.4823                 0.1510                 0.0263

                      7                      8                      9
                      A                      A                      A
 Frequencies --    213.2196               250.7871               251.8150
 Red. masses --      1.7471                 1.6919                 1.3134
 Frc consts  --      0.0468                 0.0627                 0.0491
 IR Inten    --      0.1160                 0.1274                 0.3438

                     10                     11                     12
                      A                      A                      A
 Frequencies --    284.0495               300.9285               310.2679
 Red. masses --      1.0714                 2.0822                 2.1031
 Frc consts  --      0.0509                 0.1111                 0.1193
 IR Inten    --      0.0356                 0.0130                 0.3440

                     13                     14                     15
                      A                      A                      A
 Frequencies --    326.6872               373.8653               431.6930
 Red. masses --      2.3236                 2.1546                 2.5051
 Frc consts  --      0.1461                 0.1774                 0.2751
 IR Inten    --      0.5045                 1.5373                 0.0652

                     16                     17                     18
                      A                      A                      A
 Frequencies --    466.6624               526.8252               540.3906
 Red. masses --      2.8052                 2.8345                 3.1693
 Frc consts  --      0.3599                 0.4635                 0.5453
 IR Inten    --      0.9628                 3.5101                 0.5656

                     19                     20                     21
                      A                      A                      A
 Frequencies --    569.8325               620.0553               723.4961
 Red. masses --      2.8878                 3.1745                 2.3166
 Frc consts  --      0.5525                 0.7191                 0.7145
 IR Inten    --      1.4052                 0.5856                 7.2054

                     22                     23                     24
                      A                      A                      A
 Frequencies --    744.4564               762.4888               828.0682
 Red. masses --      1.4561                 1.6602                 2.0438
 Frc consts  --      0.4755                 0.5687                 0.8257
 IR Inten    --      9.7027                28.4868                 0.8939

                     25                     26                     27
                      A                      A                      A
 Frequencies --    851.4296               886.6956               902.0447
 Red. masses --      1.8466                 2.0988                 1.6000
 Frc consts  --      0.7887                 0.9722                 0.7671
 IR Inten    --      1.7157                 5.4967                 3.6513

                     28                     29                     30
                      A                      A                      A
 Frequencies --    907.6778               934.2039               942.1704
 Red. masses --      2.2449                 1.9899                 1.1628
 Frc consts  --      1.0897                 1.0232                 0.6082
 IR Inten    --      0.9193                 1.2590                 1.6152

                     31                     32                     33
                      A                      A                      A
 Frequencies --    971.5860               976.8143               987.1900
 Red. masses --      2.0587                 1.4696                 1.2898
 Frc consts  --      1.1450                 0.8262                 0.7406
 IR Inten    --      3.6401                 0.5985                 0.0189

                     34                     35                     36
                      A                      A                      A
 Frequencies --   1016.8218              1028.6597              1075.8509
 Red. masses --      2.1305                 1.8116                 2.2470
 Frc consts  --      1.2979                 1.1295                 1.5323
 IR Inten    --      0.6117                 1.3225                 2.1522

                     37                     38                     39
                      A                      A                      A
 Frequencies --   1085.5133              1101.9747              1127.7206
 Red. masses --      1.8471                 1.7856                 1.9252
 Frc consts  --      1.2824                 1.2775                 1.4426
 IR Inten    --      0.5209                 3.6309                 2.2469

                     40                     41                     42
                      A                      A                      A
 Frequencies --   1136.6800              1149.7802              1156.5330
 Red. masses --      1.9638                 1.6873                 1.9740
 Frc consts  --      1.4949                 1.3142                 1.5557
 IR Inten    --      0.1323                 2.5199                 0.9122

                     43                     44                     45
                      A                      A                      A
 Frequencies --   1197.6722              1225.8620              1240.6379
 Red. masses --      1.0997                 1.6629                 1.2780
 Frc consts  --      0.9294                 1.4723                 1.1589
 IR Inten    --      0.3299                 3.9395                 3.5902

                     46                     47                     48
                      A                      A                      A
 Frequencies --   1273.2407              1298.8929              1336.3871
 Red. masses --      1.3110                 1.3701                 1.4795
 Frc consts  --      1.2522                 1.3619                 1.5568
 IR Inten    --      0.4570                 1.2791                 2.3608

                     49                     50                     51
                      A                      A                      A
 Frequencies --   1341.2628              1349.4558              1365.6762
 Red. masses --      1.3906                 1.2927                 1.3355
 Frc consts  --      1.4739                 1.3870                 1.4675
 IR Inten    --      4.6786                 3.4798                 6.6596

                     52                     53                     54
                      A                      A                      A
 Frequencies --   1381.9803              1397.3537              1402.0433
 Red. masses --      1.4273                 1.5277                 1.3247
 Frc consts  --      1.6061                 1.7576                 1.5342
 IR Inten    --      9.7950                 2.8705                 3.8719

                     55                     56                     57
                      A                      A                      A
 Frequencies --   1420.8623              1430.5707              1442.6713
 Red. masses --      1.3129                 1.5820                 1.2621
 Frc consts  --      1.5617                 1.9076                 1.5477
 IR Inten    --      3.0894                 0.6791                 5.5972

                     58                     59                     60
                      A                      A                      A
 Frequencies --   1444.5383              1446.5122              1498.3406
 Red. masses --      1.3222                 1.5506                 1.0886
 Frc consts  --      1.6255                 1.9116                 1.4399
 IR Inten    --      2.0081                 4.5027                 1.5865

                     61                     62                     63
                      A                      A                      A
 Frequencies --   1512.7089              1518.0632              1522.5721
 Red. masses --      1.0818                 1.0474                 1.0609
 Frc consts  --      1.4585                 1.4221                 1.4490
 IR Inten    --      1.7100                 1.7608                 1.5902

                     64                     65                     66
                      A                      A                      A
 Frequencies --   1523.9750              1532.5676              1534.7122
 Red. masses --      1.0582                 1.0502                 1.0441
 Frc consts  --      1.4480                 1.4534                 1.4489
 IR Inten    --      1.9307                 4.9766                 9.4417

                     67                     68                     69
                      A                      A                      A
 Frequencies --   1538.8983              1542.6625              1667.6171
 Red. masses --      1.0672                 1.0582                 7.3792
 Frc consts  --      1.4891                 1.4837                12.0907
 IR Inten    --      5.5872                 3.8554                 7.5042

                     70                     71                     72
                      A                      A                      A
 Frequencies --   1728.1939              2990.0462              2994.8613
 Red. masses --      5.6750                 1.0787                 1.0744
 Frc consts  --      9.9861                 5.6818                 5.6775
 IR Inten    --      5.7407                 3.8084                57.8396

                     73                     74                     75
                      A                      A                      A
 Frequencies --   3016.9286              3039.5432              3042.5959
 Red. masses --      1.0668                 1.0625                 1.0421
 Frc consts  --      5.7208                 5.7835                 5.6839
 IR Inten    --     24.4691                23.5221                18.8478

                     76                     77                     78
                      A                      A                      A
 Frequencies --   3044.7301              3049.9268              3050.4511
 Red. masses --      1.0350                 1.0432                 1.0699
 Frc consts  --      5.6532                 5.7171                 5.8659
 IR Inten    --     22.7730                45.4530                 8.5068

                     79                     80                     81
                      A                      A                      A
 Frequencies --   3067.9946              3070.1709              3080.7242
 Red. masses --      1.0894                 1.0988                 1.0971
 Frc consts  --      6.0414                 6.1022                 6.1350
 IR Inten    --     26.4465                16.9288                55.9238

                     82                     83                     84
                      A                      A                      A
 Frequencies --   3108.0241              3109.7022              3113.6746
 Red. masses --      1.1016                 1.1024                 1.1018
 Frc consts  --      6.2698                 6.2810                 6.2939
 IR Inten    --     48.0017                 1.7043                58.5599

                     85                     86                     87
                      A                      A                      A
 Frequencies --   3115.7091              3121.5810              3123.6238
 Red. masses --      1.1019                 1.1017                 1.1027
 Frc consts  --      6.3025                 6.3253                 6.3391
 IR Inten    --     74.5477                29.2550                34.8420

                     88                     89                     90
                      A                      A                      A
 Frequencies --   3167.3802              3188.2597              3199.5882
 Red. masses --      1.0844                 1.0938                 1.0931
 Frc consts  --      6.4095                 6.5507                 6.5930
 IR Inten    --      6.8076                39.0442                24.7952

 - Thermochemistry -
 -------------------
 Temperature   298.150 Kelvin.  Pressure   1.00000 Atm.
 Atom     1 has atomic number  6 and mass  12.00000

 Molecular mass:   164.15650 amu.
 Principal axes and moments of inertia in atomic units:
                           1         2         3
     Eigenvalues --  1041.341443519.633724036.66933
           X            0.99999   0.00101   0.00407
           Y           -0.00098   0.99998  -0.00691
           Z           -0.00407   0.00691   0.99997
 This molecule is an asymmetric top.
 Rotational symmetry number  1.
 Warning -- assumption of classical behavior for rotation
           may cause significant error
 Rotational temperatures (Kelvin)      0.08318     0.02461     0.02146
 Rotational constants (GHZ):           1.73309     0.51276     0.44709
 Zero-point vibrational energy     772860.1 (Joules/Mol)
                                  184.71799 (Kcal/Mol)
 Warning -- explicit consideration of  20 degrees of freedom as
           vibrations may cause significant error
 Vibrational temperatures:     70.39    75.67   102.70   162.81   219.00
          (Kelvin)            284.10   306.78   360.83   362.31   408.68
                              432.97   446.41   470.03   537.91   621.11
                              671.42   757.98   777.50   819.86   892.12
                             1040.95  1071.11  1097.05  1191.41  1225.02
                             1275.76  1297.84  1305.95  1344.11  1355.57
                             1397.90  1405.42  1420.35  1462.98  1480.01
                             1547.91  1561.81  1585.50  1622.54  1635.43
                             1654.28  1663.99  1723.18  1763.74  1785.00
                             1831.91  1868.82  1922.76  1929.78  1941.57
                             1964.90  1988.36  2010.48  2017.23  2044.30
                             2058.27  2075.68  2078.37  2081.21  2155.78
                             2176.45  2184.15  2190.64  2192.66  2205.02
                             2208.11  2214.13  2219.55  2399.33  2486.49
                             4302.01  4308.94  4340.69  4373.22  4377.62
                             4380.69  4388.16  4388.92  4414.16  4417.29
                             4432.47  4471.75  4474.17  4479.88  4482.81
                             4491.26  4494.20  4557.15  4587.19  4603.49

 Zero-point correction=                           0.294367 (Hartree/Particle)
 Thermal correction to Energy=                    0.307566
 Thermal correction to Enthalpy=                  0.308510
 Thermal correction to Gibbs Free Energy=         0.254863
 Sum of electronic and zero-point Energies=           -469.067249
 Sum of electronic and thermal Energies=              -469.054050
 Sum of electronic and thermal Enthalpies=            -469.053106
 Sum of electronic and thermal Free Energies=         -469.106753

                     E (Thermal)             CV                S
                      KCal/Mol        Cal/Mol-Kelvin    Cal/Mol-Kelvin
 Total                  193.000             50.715            112.910
 Electronic               0.000              0.000              0.000
 Translational            0.889              2.981             41.195
 Rotational               0.889              2.981             31.071
 Vibrational            191.223             44.753             40.644
 Vibration     1          0.595              1.978              4.860
 Vibration     2          0.596              1.977              4.718
 Vibration     3          0.598              1.968              4.115
 Vibration     4          0.607              1.939              3.214
 Vibration     5          0.619              1.900              2.644
 Vibration     6          0.637              1.843              2.157
 Vibration     7          0.644              1.821              2.016
 Vibration     8          0.663              1.761              1.725
 Vibration     9          0.664              1.760              1.718
 Vibration    10          0.682              1.703              1.509
 Vibration    11          0.693              1.672              1.412
 Vibration    12          0.699              1.654              1.361
 Vibration    13          0.710              1.622              1.276
 Vibration    14          0.745              1.526              1.064
 Vibration    15          0.793              1.401              0.853
 Vibration    16          0.824              1.324              0.747
 Vibration    17          0.882              1.191              0.594
 Vibration    18          0.895              1.161              0.564
 Vibration    19          0.926              1.097              0.505
 Vibration    20          0.980              0.990              0.416

 Optimization completed.
    -- Stationary point found.
 Normal termination of Gaussian 16 at Wed Dec  9 17:58:50 2020.

 ----------------------------------------------------------------------
 # B3LYP/6-311++G(d,p) empiricaldispersion=gd3bj scf=xqc pop=npa geom=c
 heck
 ----------------------------------------------------------------------

 ---------------------------------------
 CID_123833183_JID_2641_Energie_neutraal
 ---------------------------------------
 Structure from the checkpoint file:  "JID_2641.chk"
 Charge =  0 Multiplicity = 1

 SCF Done:  E(RB3LYP) =  -469.488442886     A.U. after   14 cycles
 Normal termination of Gaussian 16 at Wed Dec  9 18:03:27 2020.

 ----------------------------------------------------------------------
 # B3LYP/6-311++G(d,p) empiricaldispersion=gd3bj scf=xqc pop=npa geom=c
 heck
 ----------------------------------------------------------------------

 -------------------------------------
 CID_123833183_JID_2641_Energie_kation
 -------------------------------------
 Structure from the checkpoint file:  "JID_2641.chk"
 Charge =  1 Multiplicity = 2

 SCF Done:  E(UB3LYP) =  -469.210564308     A.U. after   18 cycles
 Normal termination of Gaussian 16 at Wed Dec  9 18:14:02 2020.
 Gaussian 16:  ES64L-G16RevA.03 25-Dec-2016

 ----------------------------------------------------------------------
 # B3LYP/6-311++G(d,p) empiricaldispersion=gd3bj scf=xqc pop=npa geom=c
 heck
 ----------------------------------------------------------------------

 ------------------------------------
 CID_123833183_JID_2641_Energie_anion
 ------------------------------------
 Structure from the checkpoint file:  "JID_2641.chk"
 Charge = -1 Multiplicity = 2

                         Standard orientation:
 ---------------------------------------------------------------------
 Center     Atomic      Atomic             Coordinates (Angstroms)
 Number     Number       Type             X           Y           Z
 ---------------------------------------------------------------------
      1          6           0        4.139216   -0.637569    0.116282
      2          6           0        2.997484   -0.631169   -0.904803
      3          6           0        1.609542   -0.863463   -0.293792
      4          6           0        1.171357    0.182709    0.759213
      5          6           0       -0.245254   -0.116875    1.279852
      6          6           0       -1.338874    0.283776    0.307823
      7          6           0       -1.134769    1.370501   -0.460369
      8          6           0        0.130586    2.104938   -0.409306
      9          6           0        1.217532    1.580663    0.180531
     10          6           0       -2.601139   -0.549333    0.308536
     11          6           0       -3.821173    0.154970   -0.293620
     12          6           0       -2.352744   -1.893820   -0.406690
     13          1           0        4.054607    0.193407    0.825879
     14          1           0        5.112916   -0.548429   -0.378243
     15          1           0        4.143556   -1.568267    0.697504
     16          1           0        2.997489    0.320599   -1.451080
     17          1           0        3.181186   -1.411696   -1.654674
     18          1           0        0.861565   -0.874712   -1.096279
     19          1           0        1.582656   -1.857015    0.178317
     20          1           0        1.860676    0.119699    1.609995
     21          1           0       -0.325281   -1.179779    1.538977
     22          1           0       -0.412705    0.438666    2.217427
     23          1           0       -1.909928    1.737018   -1.126929
     24          1           0        0.174451    3.085037   -0.879175
     25          1           0        2.161209    2.120452    0.187247
     26          1           0       -2.830439   -0.779649    1.361669
     27          1           0       -3.681545    0.344356   -1.364361
     28          1           0       -4.714137   -0.470334   -0.185612
     29          1           0       -4.011706    1.114846    0.197711
     30          1           0       -1.493260   -2.426460    0.013332
     31          1           0       -3.229230   -2.546899   -0.322908
     32          1           0       -2.152667   -1.722812   -1.470738
 ---------------------------------------------------------------------

 SCF Done:  E(UB3LYP) =  -469.474472978     A.U. after   33 cycles
 SCF Done:  E(UB3LYP) =  -469.474472978     a.u. after    1 cycles

 The electronic state is 2-A.
 Alpha  occ. eigenvalues --  -10.06891 -10.06153 -10.05683 -10.05483 -10.05382
 Alpha  occ. eigenvalues --  -10.05355 -10.05256 -10.05073 -10.05054 -10.04971
 Alpha  occ. eigenvalues --  -10.04534 -10.04193  -0.73770  -0.69664  -0.67115
 Alpha  occ. eigenvalues --   -0.62998  -0.61426  -0.57838  -0.56549  -0.50737
 Alpha  occ. eigenvalues --   -0.49814  -0.46968  -0.43581  -0.39057  -0.35999
 Alpha  occ. eigenvalues --   -0.35523  -0.34938  -0.33611  -0.32186  -0.31796
 Alpha  occ. eigenvalues --   -0.31212  -0.29299  -0.28229  -0.28066  -0.26813
 Alpha  occ. eigenvalues --   -0.26559  -0.25676  -0.23798  -0.23740  -0.22538
 Alpha  occ. eigenvalues --   -0.22255  -0.21435  -0.20250  -0.19157  -0.18839
 Alpha  occ. eigenvalues --   -0.09733   0.04683
 Alpha virt. eigenvalues --    0.06637   0.07654   0.07975   0.08275   0.08821
 Alpha virt. eigenvalues --    0.09228   0.09541   0.10623   0.10797   0.11440
 Alpha virt. eigenvalues --    0.11592   0.12065   0.12624   0.12969   0.13359

  Beta  occ. eigenvalues --  -10.06894 -10.06158 -10.05666 -10.05478 -10.05351
  Beta  occ. eigenvalues --  -10.05250 -10.05234 -10.05047 -10.05036 -10.04925
  Beta  occ. eigenvalues --  -10.04403 -10.04157  -0.73638  -0.69587  -0.67047
  Beta  occ. eigenvalues --   -0.62920  -0.61264  -0.57773  -0.56469  -0.50636
  Beta  occ. eigenvalues --   -0.49700  -0.46872  -0.43467  -0.38984  -0.35879
  Beta  occ. eigenvalues --   -0.35467  -0.34864  -0.33574  -0.32123  -0.31717
  Beta  occ. eigenvalues --   -0.31148  -0.29245  -0.28172  -0.28013  -0.26743
  Beta  occ. eigenvalues --   -0.26507  -0.25612  -0.23741  -0.23674  -0.22496
  Beta  occ. eigenvalues --   -0.22200  -0.21331  -0.20176  -0.19076  -0.18485
  Beta  occ. eigenvalues --   -0.09211
  Beta virt. eigenvalues --    0.06858   0.07476   0.08088   0.08515   0.08864
  Beta virt. eigenvalues --    0.09270   0.09612   0.09916   0.10790   0.11133
  Beta virt. eigenvalues --    0.11643   0.11902   0.12361   0.12806   0.13069

 Mulliken charges and spin densities:
               1          2
     1  C    0.635878  -1.230737
     2  C   -0.880224   0.567641
     3  C    0.252882  -0.752080
     4  C    0.524498   0.533033
     5  C    1.020918  -1.994618
     6  C    0.557842   0.411327
     7  C   -1.248040   0.783905
     8  C    0.241733  -0.532699
     9  C   -0.477497  -0.068728
    10  C   -1.483695   1.418987
    11  C    0.309084  -0.871028
    12  C    0.996745  -1.636673
    13  H   -0.152049   0.289331
    14  H   -0.364784   0.501097
    15  H   -0.108197   0.241283
    16  H    0.137717   0.013269
    17  H   -0.258016   0.402645
    18  H    0.105755   0.033683
    19  H   -0.031371   0.162783
    20  H    0.123338   0.098950
    21  H    0.069394   0.080901
    22  H   -0.095225   0.260038
    23  H    0.090695   0.054220
    24  H    0.004007   0.127746
    25  H    0.094968   0.046570
    26  H   -0.221594   0.396852
    27  H    0.011919   0.112632
    28  H   -0.316857   0.477689
    29  H   -0.005014   0.133368
    30  H   -0.130403   0.259001
    31  H   -0.407593   0.545217
    32  H    0.003186   0.134397
 Sum of Mulliken charges =  -1.00000   1.00000

 Dipole moment (field-independent basis, Debye):
    X=              0.5773    Y=              3.3119    Z=             -0.8368  Tot=              3.4645
 Quadrupole moment (field-independent basis, Debye-Ang):
   XX=           -158.5609   YY=           -116.8786   ZZ=           -103.0620
   XY=             -2.8226   XZ=              2.9945   YZ=             -1.7109

 Summary of Natural Population Analysis:

                                       Natural Population
                Natural  -----------------------------------------------
    Atom  No    Charge         Core      Valence    Rydberg      Total
 -----------------------------------------------------------------------
      C    1   -0.28729      0.99967     2.28271    0.00492     3.28729
      C    2   -0.19168      0.99964     2.18287    0.00916     3.19168
      C    3   -0.18389      0.99961     2.17510    0.00918     3.18389
      C    4   -0.12669      0.99959     2.11613    0.01097     3.12669
      C    5   -0.19934      0.99958     2.18978    0.00998     3.19934
      C    6    0.03382      0.99949     1.95471    0.01198     2.96618
      C    7   -0.12641      0.99944     2.11884    0.00812     3.12641
      C    8   -0.11194      0.99953     2.10194    0.01048     3.11194
      C    9   -0.06676      0.99953     2.05692    0.01031     3.06676
      C   10   -0.12606      0.99957     2.11592    0.01058     3.12606
      C   11   -0.28370      0.99966     2.27736    0.00667     3.28370
      C   12   -0.27705      0.99964     2.27133    0.00607     3.27705
      H   13    0.09501      0.00000     0.40396    0.00103     0.40499
      H   14    0.09698      0.00000     0.40198    0.00104     0.40302
      H   15    0.09602      0.00000     0.40284    0.00114     0.40398
      H   16    0.09579      0.00000     0.40314    0.00106     0.40421
      H   17    0.09410      0.00000     0.40492    0.00098     0.40590
      H   18    0.10092      0.00000     0.39763    0.00145     0.39908
      H   19    0.09361      0.00000     0.40501    0.00138     0.40639
      H   20    0.10025      0.00000     0.39789    0.00186     0.39975
      H   21    0.10123      0.00000     0.39741    0.00136     0.39877
      H   22    0.10466      0.00000     0.39404    0.00130     0.39534
      H   23    0.09655      0.00000     0.40207    0.00138     0.40345
      H   24    0.09344      0.00000     0.40566    0.00090     0.40656
      H   25    0.09285      0.00000     0.40609    0.00106     0.40715
      H   26    0.09631      0.00000     0.40139    0.00229     0.40369
      H   27    0.09509      0.00000     0.40396    0.00095     0.40491
      H   28    0.09968      0.00000     0.39941    0.00091     0.40032
      H   29    0.10017      0.00000     0.39887    0.00096     0.39983
      H   30    0.09992      0.00000     0.39896    0.00112     0.40008
      H   31    0.09880      0.00000     0.39953    0.00167     0.40120
      H   32    0.09562      0.00000     0.40331    0.00107     0.40438
 =======================================================================
   * Total *   -0.00000     11.99495    33.87172    0.13333    46.00000

 Normal termination of Gaussian 16 at Wed Dec  9 18:27:13 2020.
