 Gaussian 16, Revision A.03,

 -----------------------------------------------------------
 # opt freq B3LYP/6-31G(d) empiricaldispersion=gd3bj scf=xqc
 -----------------------------------------------------------

 ------------------------------
 CID_12182749_JID_1713_neutraal
 ------------------------------
 Symbolic Z-matrix:
 Charge =  0 Multiplicity = 1

 SCF Done:  E(RB3LYP) =  -548.691346162     A.U. after   15 cycles
 SCF Done:  E(RB3LYP) =  -548.698423121     A.U. after   15 cycles
 SCF Done:  E(RB3LYP) =  -548.699828638     A.U. after   15 cycles
 SCF Done:  E(RB3LYP) =  -548.701384966     A.U. after   14 cycles
 SCF Done:  E(RB3LYP) =  -548.699969877     A.U. after   16 cycles
 SCF Done:  E(RB3LYP) =  -548.702403702     A.U. after   14 cycles
 SCF Done:  E(RB3LYP) =  -548.702604199     A.U. after   13 cycles
 SCF Done:  E(RB3LYP) =  -548.702835110     A.U. after   14 cycles
 SCF Done:  E(RB3LYP) =  -548.702966769     A.U. after   14 cycles
 SCF Done:  E(RB3LYP) =  -548.703107419     A.U. after   12 cycles
 SCF Done:  E(RB3LYP) =  -548.703241260     A.U. after   13 cycles
 SCF Done:  E(RB3LYP) =  -548.703244636     A.U. after   11 cycles
 SCF Done:  E(RB3LYP) =  -548.703244742     A.U. after    8 cycles
 SCF Done:  E(RB3LYP) =  -548.703244796     A.U. after    8 cycles
 SCF Done:  E(RB3LYP) =  -548.703244812     A.U. after    7 cycles
 Optimization completed.
    -- Stationary point found.
 Normal termination of Gaussian 16 at Tue Dec  8 20:54:31 2020.

 --------------------------------------------------------------------
 #N Geom=AllCheck Guess=TCheck SCRF=Check GenChk RB3LYP/6-31G(d) Freq
 --------------------------------------------------------------------

 Structure from the checkpoint file:  "JID_1713.chk"
 ------------------------------
 CID_12182749_JID_1713_neutraal
 ------------------------------
 Charge =  0 Multiplicity = 1

 SCF Done:  E(RB3LYP) =  -548.703244812     A.U. after    1 cycles

  Exact polarizability:  90.242  10.574  97.097   2.950   6.898  65.123
 Approx polarizability: 115.145  27.310 171.552  13.866  25.639 107.667

                      1                      2                      3
                      A                      A                      A
 Frequencies --     25.4879                63.8378               110.6719
 Red. masses --      5.8867                 7.6882                 2.5573
 Frc consts  --      0.0023                 0.0185                 0.0185
 IR Inten    --      3.1240                 0.0322                 0.5062

                      4                      5                      6
                      A                      A                      A
 Frequencies --    119.1477               134.3253               155.1030
 Red. masses --      1.8376                 1.6902                 3.1881
 Frc consts  --      0.0154                 0.0180                 0.0452
 IR Inten    --      0.6515                 0.2286                 1.0931

                      7                      8                      9
                      A                      A                      A
 Frequencies --    220.8556               256.9810               328.7385
 Red. masses --      3.7716                 3.5794                 4.0759
 Frc consts  --      0.1084                 0.1393                 0.2595
 IR Inten    --      1.0004                 4.1124                18.3964

                     10                     11                     12
                      A                      A                      A
 Frequencies --    344.6657               394.0626               422.6492
 Red. masses --      3.7661                 4.6721                 3.9879
 Frc consts  --      0.2636                 0.4275                 0.4197
 IR Inten    --      6.2800                 3.9428                 5.4164

                     13                     14                     15
                      A                      A                      A
 Frequencies --    481.0862               578.1764               672.2486
 Red. masses --      9.0558                13.4953                 2.7664
 Frc consts  --      1.2349                 2.6580                 0.7366
 IR Inten    --      3.0645                13.0835                 9.3590

                     16                     17                     18
                      A                      A                      A
 Frequencies --    710.1550               731.7810               809.3549
 Red. masses --      2.2044                 4.0463                 1.7611
 Frc consts  --      0.6550                 1.2767                 0.6797
 IR Inten    --     13.1965                 6.9145                 3.5353

                     19                     20                     21
                      A                      A                      A
 Frequencies --    818.3508               881.5185               900.6364
 Red. masses --      3.4930                 2.1950                 2.9438
 Frc consts  --      1.3783                 1.0050                 1.4069
 IR Inten    --      9.9397                 5.2599                 3.5743

                     22                     23                     24
                      A                      A                      A
 Frequencies --    949.6690               956.8636              1010.4683
 Red. masses --      2.7803                 2.4252                 5.2343
 Frc consts  --      1.4773                 1.3083                 3.1489
 IR Inten    --      5.0201                 2.1620                13.9263

                     25                     26                     27
                      A                      A                      A
 Frequencies --   1042.0760              1101.2670              1138.4659
 Red. masses --      2.7652                 1.5140                 4.6272
 Frc consts  --      1.7692                 1.0819                 3.5335
 IR Inten    --      0.6302                 7.6260                69.3946

                     28                     29                     30
                      A                      A                      A
 Frequencies --   1179.4971              1186.3856              1223.5918
 Red. masses --      2.6267                 1.2749                 1.5306
 Frc consts  --      2.1530                 1.0573                 1.3502
 IR Inten    --     61.4987                 1.3267                10.9305

                     31                     32                     33
                      A                      A                      A
 Frequencies --   1224.9810              1262.3438              1278.4949
 Red. masses --      1.3187                 1.6743                 1.3050
 Frc consts  --      1.1659                 1.5720                 1.2568
 IR Inten    --      2.0434                84.6383                 1.0956

                     34                     35                     36
                      A                      A                      A
 Frequencies --   1295.2406              1302.5613              1314.9692
 Red. masses --      1.3401                 2.8440                 2.2487
 Frc consts  --      1.3246                 2.8430                 2.2910
 IR Inten    --      1.2149               131.4315                29.8502

                     37                     38                     39
                      A                      A                      A
 Frequencies --   1344.9755              1491.9570              1494.6098
 Red. masses --      5.0451                 1.2116                 1.0866
 Frc consts  --      5.3771                 1.5890                 1.4301
 IR Inten    --    207.2209                 8.7063                 5.1528

                     40                     41                     42
                      A                      A                      A
 Frequencies --   1506.8824              1512.9101              1522.7416
 Red. masses --      1.0882                 1.0477                 1.0475
 Frc consts  --      1.4559                 1.4128                 1.4311
 IR Inten    --      2.6906                 6.8130                 8.4099

                     43                     44                     45
                      A                      A                      A
 Frequencies --   1530.7767              1817.1276              2266.4955
 Red. masses --      1.1267                11.5791                13.9700
 Frc consts  --      1.5556                22.5265                42.2822
 IR Inten    --      1.1606               167.1851               457.2033

                     46                     47                     48
                      A                      A                      A
 Frequencies --   3080.5530              3084.6997              3092.6827
 Red. masses --      1.0295                 1.0576                 1.0588
 Frc consts  --      5.7562                 5.9292                 5.9665
 IR Inten    --     28.0685                21.2335                34.8094

                     49                     50                     51
                      A                      A                      A
 Frequencies --   3104.4692              3134.1625              3149.3289
 Red. masses --      1.0589                 1.1107                 1.1092
 Frc consts  --      6.0130                 6.4283                 6.4820
 IR Inten    --     14.8217                 4.9517                22.2396

                     52                     53                     54
                      A                      A                      A
 Frequencies --   3157.0256              3167.8502              3192.0810
 Red. masses --      1.1077                 1.1092                 1.1074
 Frc consts  --      6.5049                 6.5583                 6.6482
 IR Inten    --     17.6536                16.5551                12.2147

 - Thermochemistry -
 -------------------
 Temperature   298.150 Kelvin.  Pressure   1.00000 Atm.
 Atom     1 has atomic number  6 and mass  12.00000

 Molecular mass:   155.06948 amu.
 Principal axes and moments of inertia in atomic units:
                           1         2         3
     Eigenvalues --  1286.357021641.518792568.95500
           X            0.99958   0.02887  -0.00200
           Y           -0.02886   0.99957   0.00494
           Z            0.00214  -0.00488   0.99999
 This molecule is an asymmetric top.
 Rotational symmetry number  1.
 Warning -- assumption of classical behavior for rotation
           may cause significant error
 Rotational temperatures (Kelvin)      0.06733     0.05276     0.03372
 Rotational constants (GHZ):           1.40299     1.09943     0.70252
 Zero-point vibrational energy     414374.7 (Joules/Mol)
                                   99.03793 (Kcal/Mol)
 Warning -- explicit consideration of  14 degrees of freedom as
           vibrations may cause significant error
 Vibrational temperatures:     36.67    91.85   159.23   171.43   193.26
          (Kelvin)            223.16   317.76   369.74   472.98   495.90
                              566.97   608.10   692.18   831.87   967.22
                             1021.75  1052.87  1164.48  1177.42  1268.31
                             1295.81  1366.36  1376.71  1453.84  1499.31
                             1584.48  1638.00  1697.03  1706.94  1760.48
                             1762.47  1816.23  1839.47  1863.56  1874.10
                             1891.95  1935.12  2146.59  2150.41  2168.07
                             2176.74  2190.89  2202.45  2614.44  3260.98
                             4432.23  4438.19  4449.68  4466.64  4509.36
                             4531.18  4542.26  4557.83  4592.69

 Zero-point correction=                           0.157827 (Hartree/Particle)
 Thermal correction to Energy=                    0.168803
 Thermal correction to Enthalpy=                  0.169747
 Thermal correction to Gibbs Free Energy=         0.119810
 Sum of electronic and zero-point Energies=           -548.545418
 Sum of electronic and thermal Energies=              -548.534442
 Sum of electronic and thermal Enthalpies=            -548.533498
 Sum of electronic and thermal Free Energies=         -548.583435

                     E (Thermal)             CV                S
                      KCal/Mol        Cal/Mol-Kelvin    Cal/Mol-Kelvin
 Total                  105.925             38.647            105.102
 Electronic               0.000              0.000              0.000
 Translational            0.889              2.981             41.026
 Rotational               0.889              2.981             30.074
 Vibrational            104.148             32.686             34.003
 Vibration     1          0.593              1.985              6.153
 Vibration     2          0.597              1.972              4.335
 Vibration     3          0.607              1.941              3.257
 Vibration     4          0.609              1.933              3.114
 Vibration     5          0.613              1.919              2.883
 Vibration     6          0.620              1.897              2.609
 Vibration     7          0.648              1.809              1.952
 Vibration     8          0.667              1.751              1.682
 Vibration     9          0.712              1.618              1.266
 Vibration    10          0.723              1.586              1.190
 Vibration    11          0.761              1.483              0.985
 Vibration    12          0.785              1.421              0.883
 Vibration    13          0.837              1.292              0.707
 Vibration    14          0.935              1.078              0.489

 Optimization completed.
    -- Stationary point found.
 Normal termination of Gaussian 16 at Tue Dec  8 20:59:15 2020.

 ----------------------------------------------------------------------
 # B3LYP/6-311++G(d,p) empiricaldispersion=gd3bj scf=xqc pop=npa geom=c
 heck
 ----------------------------------------------------------------------

 --------------------------------------
 CID_12182749_JID_1713_Energie_neutraal
 --------------------------------------
 Structure from the checkpoint file:  "JID_1713.chk"
 Charge =  0 Multiplicity = 1

 SCF Done:  E(RB3LYP) =  -548.859801955     A.U. after   15 cycles
 Normal termination of Gaussian 16 at Tue Dec  8 21:01:09 2020.

 ----------------------------------------------------------------------
 # B3LYP/6-311++G(d,p) empiricaldispersion=gd3bj scf=xqc pop=npa geom=c
 heck
 ----------------------------------------------------------------------

 ------------------------------------
 CID_12182749_JID_1713_Energie_kation
 ------------------------------------
 Structure from the checkpoint file:  "JID_1713.chk"
 Charge =  1 Multiplicity = 2

 SCF Done:  E(UB3LYP) =  -548.523309067     A.U. after   23 cycles
 Normal termination of Gaussian 16 at Tue Dec  8 21:06:14 2020.
 Gaussian 16:  ES64L-G16RevA.03 25-Dec-2016

 ----------------------------------------------------------------------
 # B3LYP/6-311++G(d,p) empiricaldispersion=gd3bj scf=xqc pop=npa geom=c
 heck
 ----------------------------------------------------------------------

 -----------------------------------
 CID_12182749_JID_1713_Energie_anion
 -----------------------------------
 Structure from the checkpoint file:  "JID_1713.chk"
 Charge = -1 Multiplicity = 2

                         Standard orientation:
 ---------------------------------------------------------------------
 Center     Atomic      Atomic             Coordinates (Angstroms)
 Number     Number       Type             X           Y           Z
 ---------------------------------------------------------------------
      1          6           0        3.074130   -0.509089    0.097659
      2          8           0        1.759080    0.039036   -0.099601
      3          6           0        0.751270   -0.847789   -0.046355
      4          8           0        0.898919   -2.034997    0.150828
      5          6           0       -0.617063   -0.192306   -0.185337
      6          6           0       -1.715011   -1.054020   -0.858814
      7          6           0       -2.697852   -0.656514    0.271478
      8          6           0       -1.480725   -0.216661    1.122510
      9          7           0       -0.580824    1.127901   -0.840378
     10          7           0       -0.101005    2.050580   -0.171198
     11          7           0        0.307681    2.983487    0.342268
     12          1           0        3.754429    0.339785    0.037202
     13          1           0        3.298020   -1.242878   -0.680325
     14          1           0        3.140919   -0.992974    1.075233
     15          1           0       -1.961287   -0.766187   -1.883210
     16          1           0       -1.436853   -2.108848   -0.819055
     17          1           0       -3.328851   -1.447220    0.684521
     18          1           0       -3.326345    0.191911   -0.010974
     19          1           0       -1.135379   -1.008432    1.792130
     20          1           0       -1.538092    0.727019    1.672975
 ---------------------------------------------------------------------

 SCF Done:  E(UB3LYP) =  -548.844507329     A.U. after   33 cycles
 SCF Done:  E(UB3LYP) =  -548.844507329     a.u. after    1 cycles

 The electronic state is 2-A.
 Alpha  occ. eigenvalues --  -19.06435 -19.00626 -14.33091 -14.23821 -14.22623
 Alpha  occ. eigenvalues --  -10.19235 -10.12223 -10.11359 -10.07425 -10.06980
 Alpha  occ. eigenvalues --  -10.06851  -1.00871  -0.99932  -0.91681  -0.85087
 Alpha  occ. eigenvalues --   -0.74946  -0.64085  -0.58539  -0.56678  -0.48604
 Alpha  occ. eigenvalues --   -0.47967  -0.43580  -0.40111  -0.38797  -0.37564
 Alpha  occ. eigenvalues --   -0.37362  -0.35975  -0.35456  -0.32670  -0.31889
 Alpha  occ. eigenvalues --   -0.30582  -0.28727  -0.26310  -0.25531  -0.24093
 Alpha  occ. eigenvalues --   -0.22931  -0.21899  -0.20470  -0.19232  -0.17170
 Alpha  occ. eigenvalues --   -0.12582   0.05325
 Alpha virt. eigenvalues --    0.07070   0.07170   0.08765   0.09875   0.10221
 Alpha virt. eigenvalues --    0.10600   0.11041   0.11265   0.12857   0.13297
 Alpha virt. eigenvalues --    0.13327   0.13956   0.15890   0.16719   0.17693

  Beta  occ. eigenvalues --  -19.06425 -19.00608 -14.32778 -14.23499 -14.22640
  Beta  occ. eigenvalues --  -10.19217 -10.12145 -10.11305 -10.07423 -10.06963
  Beta  occ. eigenvalues --  -10.06844  -1.00695  -0.99533  -0.91655  -0.84856
  Beta  occ. eigenvalues --   -0.74842  -0.63997  -0.58402  -0.56641  -0.48404
  Beta  occ. eigenvalues --   -0.47855  -0.43531  -0.39977  -0.38290  -0.37448
  Beta  occ. eigenvalues --   -0.36830  -0.35627  -0.35317  -0.32459  -0.31321
  Beta  occ. eigenvalues --   -0.30496  -0.28522  -0.26205  -0.25406  -0.24044
  Beta  occ. eigenvalues --   -0.22884  -0.21775  -0.20411  -0.19061  -0.16638
  Beta  occ. eigenvalues --   -0.12493
  Beta virt. eigenvalues --    0.07762   0.08312   0.08944   0.09388   0.10358
  Beta virt. eigenvalues --    0.10639   0.11208   0.11791   0.12012   0.12993
  Beta virt. eigenvalues --    0.13385   0.13722   0.14229   0.16032   0.16660

 Mulliken charges and spin densities:
               1          2
     1  C    1.551211  -1.788183
     2  O   -0.147485   0.076585
     3  C   -0.081855  -0.318566
     4  O   -0.300569   0.048497
     5  C   -0.670171   0.898620
     6  C   -0.096919  -0.250017
     7  C    0.223978  -0.417385
     8  C    0.137600  -0.523678
     9  N   -0.677914   0.019088
    10  N    0.694998   0.020442
    11  N   -0.073401   0.222831
    12  H   -0.296630   0.447081
    13  H   -0.481930   0.659119
    14  H   -0.549369   0.731856
    15  H    0.136917   0.006649
    16  H   -0.001086   0.189161
    17  H   -0.455350   0.611946
    18  H    0.201469  -0.079711
    19  H   -0.177505   0.359493
    20  H    0.064011   0.086173
 Sum of Mulliken charges =  -1.00000   1.00000

 Dipole moment (field-independent basis, Debye):
    X=             -4.6257    Y=              1.6153    Z=             -2.2693  Tot=              5.3996
 Quadrupole moment (field-independent basis, Debye-Ang):
   XX=           -119.0707   YY=           -108.1631   ZZ=            -88.1183
   XY=             -1.9385   XZ=              0.0957   YZ=              3.5041

 Summary of Natural Population Analysis:

                                       Natural Population
                Natural  -----------------------------------------------
    Atom  No    Charge         Core      Valence    Rydberg      Total
 -----------------------------------------------------------------------
      C    1   -0.10350      0.99959     2.09482    0.00908     3.10350
      O    2   -0.27154      0.99986     3.26284    0.00885     4.27154
      C    3    0.40880      0.99959     1.56571    0.02590     2.59120
      O    4   -0.30767      0.99987     3.30237    0.00542     4.30767
      C    5    0.01714      0.99949     1.96764    0.01573     2.98286
      C    6   -0.18000      0.99960     2.17116    0.00924     3.18000
      C    7   -0.19199      0.99965     2.18339    0.00896     3.19199
      C    8   -0.18484      0.99960     2.17616    0.00908     3.18484
      N    9   -0.21139      0.99967     2.69793    0.01379     3.71139
      N   10    0.14621      0.99970     2.33820    0.01589     3.35379
      N   11   -0.01390      0.99982     2.50144    0.01265     3.51390
      H   12    0.09383      0.00000     0.40463    0.00154     0.40617
      H   13    0.09242      0.00000     0.40566    0.00192     0.40758
      H   14    0.09369      0.00000     0.40414    0.00218     0.40631
      H   15    0.10116      0.00000     0.39794    0.00090     0.39884
      H   16    0.10978      0.00000     0.38902    0.00120     0.39022
      H   17    0.09758      0.00000     0.40060    0.00182     0.40242
      H   18    0.09582      0.00000     0.40307    0.00111     0.40418
      H   19    0.10761      0.00000     0.39062    0.00177     0.39239
      H   20    0.10080      0.00000     0.39835    0.00086     0.39920
 =======================================================================
   * Total *    0.00000     10.99644    29.85569    0.14787    41.00000

 Normal termination of Gaussian 16 at Tue Dec  8 21:12:42 2020.
