 Gaussian 16, Revision A.03,

 -----------------------------------------------------------
 # opt freq B3LYP/6-31G(d) empiricaldispersion=gd3bj scf=xqc
 -----------------------------------------------------------

 ------------------------------
 CID_22033776_JID_6446_neutraal
 ------------------------------
 Symbolic Z-matrix:
 Charge =  0 Multiplicity = 1

 SCF Done:  E(RB3LYP) =  -765.466546285     A.U. after   15 cycles
 SCF Done:  E(RB3LYP) =  -765.468334175     A.U. after   13 cycles
 SCF Done:  E(RB3LYP) =  -765.468608618     A.U. after   13 cycles
 SCF Done:  E(RB3LYP) =  -765.469733546     A.U. after   13 cycles
 SCF Done:  E(RB3LYP) =  -765.470590289     A.U. after   12 cycles
 SCF Done:  E(RB3LYP) =  -765.470755640     A.U. after   11 cycles
 SCF Done:  E(RB3LYP) =  -765.470654829     A.U. after   12 cycles
 SCF Done:  E(RB3LYP) =  -765.470836230     A.U. after   11 cycles
 SCF Done:  E(RB3LYP) =  -765.470854078     A.U. after   10 cycles
 SCF Done:  E(RB3LYP) =  -765.470856246     A.U. after    9 cycles
 SCF Done:  E(RB3LYP) =  -765.470856761     A.U. after    8 cycles
 SCF Done:  E(RB3LYP) =  -765.470856868     A.U. after    7 cycles
 Optimization completed.
    -- Stationary point found.
 Normal termination of Gaussian 16 at Thu Dec 10 22:48:35 2020.

 --------------------------------------------------------------------
 #N Geom=AllCheck Guess=TCheck SCRF=Check GenChk RB3LYP/6-31G(d) Freq
 --------------------------------------------------------------------

 Structure from the checkpoint file:  "JID_6446.chk"
 ------------------------------
 CID_22033776_JID_6446_neutraal
 ------------------------------
 Charge =  0 Multiplicity = 1

 SCF Done:  E(RB3LYP) =  -765.470856868     A.U. after    1 cycles

  Exact polarizability: 173.234 -19.508 115.519  27.988  22.868 103.549
 Approx polarizability: 244.945 -30.140 188.853  55.820  55.339 184.863

                      1                      2                      3
                      A                      A                      A
 Frequencies --     31.7198                37.1489                48.9447
 Red. masses --      7.9061                 6.0572                 5.5912
 Frc consts  --      0.0047                 0.0049                 0.0079
 IR Inten    --      0.1876                 0.6040                 0.9209

                      4                      5                      6
                      A                      A                      A
 Frequencies --     64.8928                82.6407               104.1453
 Red. masses --      8.9372                 4.7415                 5.7435
 Frc consts  --      0.0222                 0.0191                 0.0367
 IR Inten    --      0.8045                 0.1574                 0.5655

                      7                      8                      9
                      A                      A                      A
 Frequencies --    131.0264               180.3287               214.5921
 Red. masses --      5.0462                 5.3623                 4.1233
 Frc consts  --      0.0510                 0.1027                 0.1119
 IR Inten    --      0.6177                 0.4463                 0.6477

                     10                     11                     12
                      A                      A                      A
 Frequencies --    285.8257               316.8460               353.9600
 Red. masses --      3.8451                 4.9946                 2.5621
 Frc consts  --      0.1851                 0.2954                 0.1891
 IR Inten    --      0.5685                 0.7415                 0.3671

                     13                     14                     15
                      A                      A                      A
 Frequencies --    368.7620               395.4367               418.6775
 Red. masses --      5.7072                 2.3299                 3.0038
 Frc consts  --      0.4573                 0.2147                 0.3102
 IR Inten    --      8.4971                 4.1593                 0.2265

                     16                     17                     18
                      A                      A                      A
 Frequencies --    455.6474               504.5135               515.4249
 Red. masses --      2.5854                 5.4219                 4.2458
 Frc consts  --      0.3163                 0.8131                 0.6646
 IR Inten    --      2.2796                 4.6780                11.9868

                     19                     20                     21
                      A                      A                      A
 Frequencies --    533.0896               560.0620               598.0113
 Red. masses --      2.5200                 3.5059                 3.0299
 Frc consts  --      0.4219                 0.6479                 0.6384
 IR Inten    --     43.5110                 9.4744                64.1372

                     22                     23                     24
                      A                      A                      A
 Frequencies --    615.6266               646.0181               654.2555
 Red. masses --      1.3368                 1.5532                 6.6108
 Frc consts  --      0.2985                 0.3819                 1.6673
 IR Inten    --     22.1764                87.3118                 0.7970

                     25                     26                     27
                      A                      A                      A
 Frequencies --    710.5111               721.6032               726.8145
 Red. masses --      2.3729                 2.1224                 2.7734
 Frc consts  --      0.7058                 0.6511                 0.8632
 IR Inten    --      2.8342                48.1177                57.7768

                     28                     29                     30
                      A                      A                      A
 Frequencies --    768.3753               780.1157               824.2807
 Red. masses --      3.1733                 3.3289                 3.4424
 Frc consts  --      1.1038                 1.1936                 1.3780
 IR Inten    --     34.2901                21.0233                14.9215

                     31                     32                     33
                      A                      A                      A
 Frequencies --    828.0181               856.2444               864.9807
 Red. masses --      2.9682                 1.6455                 1.3478
 Frc consts  --      1.1990                 0.7108                 0.5941
 IR Inten    --     18.1862                14.4028                 4.0154

                     34                     35                     36
                      A                      A                      A
 Frequencies --    902.5522               950.9862               977.2737
 Red. masses --      2.0666                 2.1122                 1.3633
 Frc consts  --      0.9919                 1.1255                 0.7671
 IR Inten    --      5.9185                 2.9103                 0.3632

                     37                     38                     39
                      A                      A                      A
 Frequencies --    985.0726               990.5942              1006.0583
 Red. masses --      1.4231                 1.3335                 2.0140
 Frc consts  --      0.8136                 0.7710                 1.2010
 IR Inten    --     27.9044                 0.8564                 4.2877

                     40                     41                     42
                      A                      A                      A
 Frequencies --   1036.3948              1043.6437              1122.0880
 Red. masses --      1.9094                 2.9850                 3.7296
 Frc consts  --      1.2083                 1.9156                 2.7667
 IR Inten    --      7.1809                10.7287               129.2757

                     43                     44                     45
                      A                      A                      A
 Frequencies --   1145.9758              1175.5135              1183.8188
 Red. masses --      1.4690                 3.0592                 1.2695
 Frc consts  --      1.1367                 2.4906                 1.0482
 IR Inten    --      0.5405               198.8652                30.9312

                     46                     47                     48
                      A                      A                      A
 Frequencies --   1205.4850              1225.7043              1232.1090
 Red. masses --      1.3373                 1.4726                 1.4899
 Frc consts  --      1.1450                 1.3035                 1.3326
 IR Inten    --    184.3751                 9.1841                81.5741

                     49                     50                     51
                      A                      A                      A
 Frequencies --   1240.2488              1291.7052              1349.3891
 Red. masses --      2.3485                 1.4845                 1.3229
 Frc consts  --      2.1284                 1.4593                 1.4192
 IR Inten    --      9.0295                 5.4667                 2.8807

                     52                     53                     54
                      A                      A                      A
 Frequencies --   1361.6938              1379.0577              1385.6396
 Red. masses --      1.9751                 2.2671                 1.6088
 Frc consts  --      2.1578                 2.5403                 1.8199
 IR Inten    --      1.8995                 3.8326                35.4443

                     55                     56                     57
                      A                      A                      A
 Frequencies --   1398.2890              1399.3271              1456.3809
 Red. masses --      2.7425                 2.5425                 1.2072
 Frc consts  --      3.1593                 2.9332                 1.5086
 IR Inten    --     85.4052                65.2553                36.5879

                     58                     59                     60
                      A                      A                      A
 Frequencies --   1466.4566              1517.2261              1523.0469
 Red. masses --      2.7755                 1.1058                 1.1110
 Frc consts  --      3.5166                 1.4997                 1.5184
 IR Inten    --     25.7149                 8.7341                 4.2909

                     61                     62                     63
                      A                      A                      A
 Frequencies --   1562.5740              1630.7771              1673.8930
 Red. masses --      2.5381                 6.6024                 5.7892
 Frc consts  --      3.6513                10.3453                 9.5571
 IR Inten    --      1.3669                 5.6311                53.3000

                     64                     65                     66
                      A                      A                      A
 Frequencies --   1714.2300              1819.4658              1825.4668
 Red. masses --      5.4286                 9.7248                 9.5005
 Frc consts  --      9.3988                18.9678                18.6527
 IR Inten    --     18.8807               327.3364               180.4647

                     67                     68                     69
                      A                      A                      A
 Frequencies --   3052.2580              3069.4018              3094.8589
 Red. masses --      1.0598                 1.0633                 1.1050
 Frc consts  --      5.8170                 5.9020                 6.2359
 IR Inten    --     23.2853                36.5122                18.0778

                     70                     71                     72
                      A                      A                      A
 Frequencies --   3126.2886              3174.8478              3185.9208
 Red. masses --      1.1009                 1.0604                 1.0895
 Frc consts  --      6.3396                 6.2972                 6.5153
 IR Inten    --     14.3592                 6.5357                13.0026

                     73                     74                     75
                      A                      A                      A
 Frequencies --   3197.3956              3226.5140              3235.7402
 Red. masses --      1.0895                 1.0925                 1.0927
 Frc consts  --      6.5627                 6.7010                 6.7406
 IR Inten    --     10.2747                 2.8368                 1.7980

                     76                     77                     78
                      A                      A                      A
 Frequencies --   3266.5373              3699.8610              3701.6902
 Red. masses --      1.1163                 1.0641                 1.0642
 Frc consts  --      7.0179                 8.5822                 8.5913
 IR Inten    --      1.9421                49.6806                78.3098

 - Thermochemistry -
 -------------------
 Temperature   298.150 Kelvin.  Pressure   1.00000 Atm.
 Atom     1 has atomic number  6 and mass  12.00000

 Molecular mass:   220.07356 amu.
 Principal axes and moments of inertia in atomic units:
                           1         2         3
     Eigenvalues --  1797.199905621.207766253.24019
           X            0.99989  -0.01364   0.00555
           Y            0.01345   0.99934   0.03382
           Z           -0.00601  -0.03374   0.99941
 This molecule is an asymmetric top.
 Rotational symmetry number  1.
 Warning -- assumption of classical behavior for rotation
           may cause significant error
 Rotational temperatures (Kelvin)      0.04819     0.01541     0.01385
 Rotational constants (GHZ):           1.00420     0.32106     0.28861
 Zero-point vibrational energy     582629.2 (Joules/Mol)
                                  139.25172 (Kcal/Mol)
 Warning -- explicit consideration of  22 degrees of freedom as
           vibrations may cause significant error
 Vibrational temperatures:     45.64    53.45    70.42    93.37   118.90
          (Kelvin)            149.84   188.52   259.45   308.75   411.24
                              455.87   509.27   530.57   568.95   602.38
                              655.58   725.88   741.58   767.00   805.80
                              860.40   885.75   929.48   941.33  1022.27
                             1038.23  1045.72  1105.52  1122.41  1185.96
                             1191.33  1231.94  1244.51  1298.57  1368.26
                             1406.08  1417.30  1425.24  1447.49  1491.14
                             1501.57  1614.43  1648.80  1691.30  1703.25
                             1734.42  1763.52  1772.73  1784.44  1858.48
                             1941.47  1959.17  1984.16  1993.63  2011.83
                             2013.32  2095.41  2109.90  2182.95  2191.32
                             2248.20  2346.32  2408.36  2466.39  2617.81
                             2626.44  4391.52  4416.18  4452.81  4498.03
                             4567.90  4583.83  4600.34  4642.23  4655.51
                             4699.82  5323.27  5325.91

 Zero-point correction=                           0.221912 (Hartree/Particle)
 Thermal correction to Energy=                    0.236528
 Thermal correction to Enthalpy=                  0.237472
 Thermal correction to Gibbs Free Energy=         0.178355
 Sum of electronic and zero-point Energies=           -765.248945
 Sum of electronic and thermal Energies=              -765.234329
 Sum of electronic and thermal Enthalpies=            -765.233385
 Sum of electronic and thermal Free Energies=         -765.292502

                     E (Thermal)             CV                S
                      KCal/Mol        Cal/Mol-Kelvin    Cal/Mol-Kelvin
 Total                  148.423             55.057            124.422
 Electronic               0.000              0.000              0.000
 Translational            0.889              2.981             42.069
 Rotational               0.889              2.981             32.513
 Vibrational            146.646             49.095             49.840
 Vibration     1          0.594              1.983              5.719
 Vibration     2          0.594              1.982              5.406
 Vibration     3          0.595              1.978              4.860
 Vibration     4          0.597              1.971              4.303
 Vibration     5          0.600              1.961              3.827
 Vibration     6          0.605              1.946              3.375
 Vibration     7          0.612              1.922              2.931
 Vibration     8          0.629              1.866              2.325
 Vibration     9          0.645              1.819              2.004
 Vibration    10          0.684              1.700              1.499
 Vibration    11          0.704              1.641              1.326
 Vibration    12          0.730              1.567              1.149
 Vibration    13          0.741              1.536              1.085
 Vibration    14          0.762              1.480              0.980
 Vibration    15          0.782              1.430              0.896
 Vibration    16          0.814              1.348              0.779
 Vibration    17          0.860              1.240              0.647
 Vibration    18          0.870              1.216              0.621
 Vibration    19          0.888              1.177              0.580
 Vibration    20          0.916              1.118              0.524
 Vibration    21          0.956              1.036              0.453
 Vibration    22          0.975              0.999              0.424

 Optimization completed.
    -- Stationary point found.
 Normal termination of Gaussian 16 at Thu Dec 10 22:58:03 2020.

 ----------------------------------------------------------------------
 # B3LYP/6-311++G(d,p) empiricaldispersion=gd3bj scf=xqc pop=npa geom=c
 heck
 ----------------------------------------------------------------------

 --------------------------------------
 CID_22033776_JID_6446_Energie_neutraal
 --------------------------------------
 Structure from the checkpoint file:  "JID_6446.chk"
 Charge =  0 Multiplicity = 1

 SCF Done:  E(RB3LYP) =  -765.702207810     A.U. after   15 cycles
 Normal termination of Gaussian 16 at Thu Dec 10 23:02:25 2020.

 ----------------------------------------------------------------------
 # B3LYP/6-311++G(d,p) empiricaldispersion=gd3bj scf=xqc pop=npa geom=c
 heck
 ----------------------------------------------------------------------

 ------------------------------------
 CID_22033776_JID_6446_Energie_kation
 ------------------------------------
 Structure from the checkpoint file:  "JID_6446.chk"
 Charge =  1 Multiplicity = 2

 SCF Done:  E(UB3LYP) =  -765.374759265     A.U. after   32 cycles
 Normal termination of Gaussian 16 at Thu Dec 10 23:14:22 2020.
 Gaussian 16:  ES64L-G16RevA.03 25-Dec-2016

 ----------------------------------------------------------------------
 # B3LYP/6-311++G(d,p) empiricaldispersion=gd3bj scf=xqc pop=npa geom=c
 heck
 ----------------------------------------------------------------------

 -----------------------------------
 CID_22033776_JID_6446_Energie_anion
 -----------------------------------
 Structure from the checkpoint file:  "JID_6446.chk"
 Charge = -1 Multiplicity = 2

                         Standard orientation:
 ---------------------------------------------------------------------
 Center     Atomic      Atomic             Coordinates (Angstroms)
 Number     Number       Type             X           Y           Z
 ---------------------------------------------------------------------
      1          6           0        3.816163    0.870272    0.811996
      2          6           0        2.920326    0.349119   -0.034171
      3          6           0        2.843782   -1.126732   -0.349095
      4          6           0        1.848134   -1.883853    0.570870
      5          6           0        0.438611   -1.355198    0.474471
      6          6           0       -0.432008   -1.823527   -0.518806
      7          6           0       -1.699138   -1.276861   -0.670334
      8          6           0       -2.124313   -0.244103    0.176382
      9          6           0       -1.268081    0.223670    1.180503
     10          6           0       -0.001195   -0.334024    1.326382
     11          6           0       -3.481954    0.312838   -0.031381
     12          8           0       -4.258046   -0.043444   -0.896710
     13          8           0       -3.797619    1.292355    0.855889
     14          6           0        1.941815    1.298471   -0.650379
     15          8           0        1.748754    2.441687   -0.291051
     16          8           0        1.282581    0.751424   -1.701897
     17          1           0        4.566570    0.249690    1.293998
     18          1           0        3.813902    1.931755    1.035903
     19          1           0        2.551229   -1.273061   -1.392462
     20          1           0        3.835376   -1.573791   -0.218062
     21          1           0        1.869778   -2.945713    0.298796
     22          1           0        2.204639   -1.805141    1.604371
     23          1           0       -0.102595   -2.615981   -1.186035
     24          1           0       -2.377852   -1.631826   -1.438438
     25          1           0       -1.595119    1.020786    1.837948
     26          1           0        0.664187    0.039337    2.099473
     27          1           0       -4.699249    1.577119    0.619196
     28          1           0        0.650929    1.430222   -2.003158
 ---------------------------------------------------------------------

 SCF Done:  E(UB3LYP) =  -765.713639439     A.U. after   30 cycles

 The electronic state is 2-A.
 Alpha  occ. eigenvalues --  -19.04226 -19.03229 -18.97207 -18.96374 -10.15806
 Alpha  occ. eigenvalues --  -10.15353 -10.05448 -10.05394 -10.04601 -10.04563
 Alpha  occ. eigenvalues --  -10.04368 -10.04234 -10.04131 -10.03820 -10.03690
 Alpha  occ. eigenvalues --  -10.02912  -0.97864  -0.96958  -0.88446  -0.87617
 Alpha  occ. eigenvalues --   -0.73231  -0.69128  -0.64873  -0.61696  -0.60052
 Alpha  occ. eigenvalues --   -0.53899  -0.52653  -0.49468  -0.47745  -0.44602
 Alpha  occ. eigenvalues --   -0.41770  -0.39519  -0.36888  -0.36194  -0.35189
 Alpha  occ. eigenvalues --   -0.33771  -0.33080  -0.32399  -0.31995  -0.31365
 Alpha  occ. eigenvalues --   -0.29541  -0.29141  -0.28845  -0.28078  -0.27305
 Alpha  occ. eigenvalues --   -0.26445  -0.24681  -0.23079  -0.22076  -0.21541
 Alpha  occ. eigenvalues --   -0.20833  -0.20040  -0.19203  -0.15201  -0.14666
 Alpha  occ. eigenvalues --   -0.13695  -0.12801  -0.12136   0.04212
 Alpha virt. eigenvalues --    0.06258   0.08380   0.08656   0.09721   0.10434
 Alpha virt. eigenvalues --    0.10733   0.11444   0.11607   0.11998   0.12628
 Alpha virt. eigenvalues --    0.13397   0.13859   0.15359   0.15538   0.15853

  Beta  occ. eigenvalues --  -19.04177 -19.03190 -18.97042 -18.96232 -10.15609
  Beta  occ. eigenvalues --  -10.15200 -10.05460 -10.05374 -10.04559 -10.04486
  Beta  occ. eigenvalues --  -10.04309 -10.04298 -10.03872 -10.03819 -10.03497
  Beta  occ. eigenvalues --  -10.02621  -0.97661  -0.96790  -0.88190  -0.87403
  Beta  occ. eigenvalues --   -0.72973  -0.68874  -0.64459  -0.61506  -0.59787
  Beta  occ. eigenvalues --   -0.53459  -0.52236  -0.49351  -0.47645  -0.44336
  Beta  occ. eigenvalues --   -0.41454  -0.39399  -0.36743  -0.35980  -0.35009
  Beta  occ. eigenvalues --   -0.33550  -0.32874  -0.31674  -0.31402  -0.31247
  Beta  occ. eigenvalues --   -0.29315  -0.29035  -0.28681  -0.27941  -0.27045
  Beta  occ. eigenvalues --   -0.26291  -0.24514  -0.22600  -0.21918  -0.21378
  Beta  occ. eigenvalues --   -0.20749  -0.19308  -0.18613  -0.15028  -0.14246
  Beta  occ. eigenvalues --   -0.12684  -0.12158  -0.11130
  Beta virt. eigenvalues --    0.07898   0.08488   0.08807   0.09072   0.09709
  Beta virt. eigenvalues --    0.10422   0.10866   0.11437   0.11856   0.11942
  Beta virt. eigenvalues --    0.12552   0.13395   0.13778   0.15388   0.15496

 Mulliken charges and spin densities:
               1          2
     1  C   -0.767881   0.316596
     2  C    0.875731  -0.034334
     3  C   -0.530176   0.030224
     4  C   -0.371224  -0.047680
     5  C    0.975051   0.227158
     6  C   -0.426792  -0.053981
     7  C   -0.438821   0.184262
     8  C    0.286736  -0.023357
     9  C   -0.505838   0.023243
    10  C   -0.508301  -0.057428
    11  C    0.081841   0.119254
    12  O   -0.396343   0.059742
    13  O   -0.217375   0.009961
    14  C   -0.519990   0.099521
    15  O   -0.318831   0.047768
    16  O   -0.096973   0.007791
    17  H    0.083995  -0.011319
    18  H    0.170282  -0.016443
    19  H    0.145806   0.000578
    20  H    0.138581  -0.005932
    21  H    0.110671   0.004017
    22  H    0.125161   0.036207
    23  H    0.129005   0.004777
    24  H    0.178900  -0.008591
    25  H    0.177130   0.010345
    26  H    0.088099   0.075898
    27  H    0.269515   0.000089
    28  H    0.262044   0.001635
 Sum of Mulliken charges =  -1.00000   1.00000

 Dipole moment (field-independent basis, Debye):
    X=              0.5850    Y=             -2.0083    Z=             -0.0590  Tot=              2.0926
 Quadrupole moment (field-independent basis, Debye-Ang):
   XX=           -141.8492   YY=           -111.4052   ZZ=           -104.7933
   XY=            -14.9751   XZ=             -6.2650   YZ=             -0.2007

 Summary of Natural Population Analysis:

                                       Natural Population
                Natural  -----------------------------------------------
    Atom  No    Charge         Core      Valence    Rydberg      Total
 -----------------------------------------------------------------------
      C    1   -0.10048      0.99953     2.09326    0.00769     3.10048
      C    2   -0.06703      0.99946     2.05510    0.01247     3.06703
      C    3   -0.19207      0.99960     2.18408    0.00839     3.19207
      C    4   -0.19191      0.99960     2.18366    0.00865     3.19191
      C    5    0.04244      0.99951     1.94595    0.01210     2.95756
      C    6   -0.12042      0.99952     2.11306    0.00784     3.12042
      C    7   -0.04046      0.99955     2.03278    0.00813     3.04046
      C    8   -0.08704      0.99945     2.07456    0.01303     3.08704
      C    9   -0.06877      0.99954     2.06139    0.00784     3.06877
      C   10   -0.11843      0.99952     2.10831    0.01059     3.11843
      C   11    0.42071      0.99966     1.55592    0.02372     2.57929
      O   12   -0.31463      0.99987     3.30794    0.00683     4.31463
      O   13   -0.35066      0.99988     3.34515    0.00564     4.35066
      C   14    0.41119      0.99964     1.56327    0.02590     2.58881
      O   15   -0.30981      0.99987     3.30410    0.00584     4.30981
      O   16   -0.34924      0.99988     3.34240    0.00696     4.34924
      H   17    0.08064      0.00000     0.41845    0.00091     0.41936
      H   18    0.09751      0.00000     0.40154    0.00095     0.40249
      H   19    0.10561      0.00000     0.39340    0.00099     0.39439
      H   20    0.09184      0.00000     0.40689    0.00127     0.40816
      H   21    0.09446      0.00000     0.40463    0.00091     0.40554
      H   22    0.09762      0.00000     0.40085    0.00153     0.40238
      H   23    0.09259      0.00000     0.40650    0.00091     0.40741
      H   24    0.10286      0.00000     0.39615    0.00099     0.39714
      H   25    0.10378      0.00000     0.39489    0.00133     0.39622
      H   26    0.10077      0.00000     0.39774    0.00149     0.39923
      H   27    0.23267      0.00000     0.26449    0.00284     0.26733
      H   28    0.23628      0.00000     0.26065    0.00307     0.26372
 =======================================================================
   * Total *   -0.00000     15.99407    41.81712    0.18882    58.00000

 Normal termination of Gaussian 16 at Thu Dec 10 23:25:35 2020.
