 Gaussian 16, Revision A.03,

 -----------------------------------------------------------
 # opt freq B3LYP/6-31G(d) empiricaldispersion=gd3bj scf=xqc
 -----------------------------------------------------------

 ------------------------------
 CID_53974977_JID_4607_neutraal
 ------------------------------
 Symbolic Z-matrix:
 Charge =  0 Multiplicity = 1

 SCF Done:  E(RB3LYP) =  -663.106042287     A.U. after   15 cycles
 SCF Done:  E(RB3LYP) =  -663.106557695     A.U. after   14 cycles
 SCF Done:  E(RB3LYP) =  -663.104720066     A.U. after   15 cycles
 SCF Done:  E(RB3LYP) =  -663.110296966     A.U. after   13 cycles
 SCF Done:  E(RB3LYP) =  -663.110840948     A.U. after   12 cycles
 SCF Done:  E(RB3LYP) =  -663.111134798     A.U. after   12 cycles
 SCF Done:  E(RB3LYP) =  -663.111179270     A.U. after   12 cycles
 SCF Done:  E(RB3LYP) =  -663.111416051     A.U. after   12 cycles
 SCF Done:  E(RB3LYP) =  -663.111472184     A.U. after   11 cycles
 SCF Done:  E(RB3LYP) =  -663.111483965     A.U. after   11 cycles
 SCF Done:  E(RB3LYP) =  -663.111486080     A.U. after    8 cycles
 SCF Done:  E(RB3LYP) =  -663.111486928     A.U. after    8 cycles
 SCF Done:  E(RB3LYP) =  -663.111487170     A.U. after    7 cycles
 SCF Done:  E(RB3LYP) =  -663.111487401     A.U. after    8 cycles
 SCF Done:  E(RB3LYP) =  -663.111487438     A.U. after    7 cycles
 Optimization completed.
    -- Stationary point found.
 Normal termination of Gaussian 16 at Thu Dec 10 10:13:02 2020.

 --------------------------------------------------------------------
 #N Geom=AllCheck Guess=TCheck SCRF=Check GenChk RB3LYP/6-31G(d) Freq
 --------------------------------------------------------------------

 Structure from the checkpoint file:  "JID_4607.chk"
 ------------------------------
 CID_53974977_JID_4607_neutraal
 ------------------------------
 Charge =  0 Multiplicity = 1

 SCF Done:  E(RB3LYP) =  -663.111487438     A.U. after    1 cycles

  Exact polarizability: 122.226  -7.225 113.857  18.356  10.344  90.920
 Approx polarizability: 188.132  -5.823 185.677  49.040  31.547 165.077

                      1                      2                      3
                      A                      A                      A
 Frequencies --     42.7490                56.7063                78.3885
 Red. masses --      5.9308                 5.0659                 5.0958
 Frc consts  --      0.0064                 0.0096                 0.0184
 IR Inten    --      0.4380                 0.6775                 1.3868

                      4                      5                      6
                      A                      A                      A
 Frequencies --     94.0981               106.5300               165.8964
 Red. masses --      3.5171                 7.1797                 1.3618
 Frc consts  --      0.0183                 0.0480                 0.0221
 IR Inten    --      2.6332                 2.8881                 0.7783

                      7                      8                      9
                      A                      A                      A
 Frequencies --    185.3646               217.0360               258.9203
 Red. masses --      2.3919                 6.3040                 4.8678
 Frc consts  --      0.0484                 0.1750                 0.1923
 IR Inten    --      1.7472                 4.7257                 7.2208

                     10                     11                     12
                      A                      A                      A
 Frequencies --    294.1005               356.6471               361.3096
 Red. masses --      4.0739                 3.3764                 6.7412
 Frc consts  --      0.2076                 0.2530                 0.5185
 IR Inten    --      2.4172                 0.9758                10.7102

                     13                     14                     15
                      A                      A                      A
 Frequencies --    409.8674               431.1280               457.8817
 Red. masses --      4.1906                 3.3674                 6.4336
 Frc consts  --      0.4148                 0.3688                 0.7947
 IR Inten    --      0.8881                 6.4042                 6.8811

                     16                     17                     18
                      A                      A                      A
 Frequencies --    531.1037               609.3041               639.2588
 Red. masses --      3.9424                 2.1208                 5.8820
 Frc consts  --      0.6552                 0.4639                 1.4162
 IR Inten    --      3.7185                 6.7234                16.0033

                     19                     20                     21
                      A                      A                      A
 Frequencies --    650.4607               666.1222               703.2541
 Red. masses --      2.1717                 2.0454                 2.7769
 Frc consts  --      0.5414                 0.5347                 0.8092
 IR Inten    --     32.5131                28.2973                18.2301

                     22                     23                     24
                      A                      A                      A
 Frequencies --    731.1660               758.2019               813.6192
 Red. masses --      3.8297                 4.0241                 2.9115
 Frc consts  --      1.2063                 1.3630                 1.1355
 IR Inten    --     94.5678                 6.9598                 3.0700

                     25                     26                     27
                      A                      A                      A
 Frequencies --    823.1469               847.8645               861.0710
 Red. masses --      1.4941                 4.0476                 4.6067
 Frc consts  --      0.5965                 1.7144                 2.0124
 IR Inten    --      4.4466                67.6673                 6.0558

                     28                     29                     30
                      A                      A                      A
 Frequencies --    959.7979               967.5742              1000.2505
 Red. masses --      1.3805                 1.8052                 1.4193
 Frc consts  --      0.7493                 0.9957                 0.8366
 IR Inten    --     29.9045                19.1682                 0.2135

                     31                     32                     33
                      A                      A                      A
 Frequencies --   1006.5236              1015.0190              1039.3583
 Red. masses --      1.4244                 8.0203                 1.3933
 Frc consts  --      0.8502                 4.8685                 0.8868
 IR Inten    --      0.2707                 4.0260                 4.2984

                     34                     35                     36
                      A                      A                      A
 Frequencies --   1086.8031              1101.0395              1128.3343
 Red. masses --      1.4835                 2.6388                 1.4137
 Frc consts  --      1.0324                 1.8848                 1.0604
 IR Inten    --      1.7962                 0.0556                 1.5961

                     37                     38                     39
                      A                      A                      A
 Frequencies --   1210.2747              1220.1398              1261.2020
 Red. masses --      2.9144                 3.6364                 7.1232
 Frc consts  --      2.5152                 3.1897                 6.6757
 IR Inten    --    199.9384                54.6970                 0.9244

                     40                     41                     42
                      A                      A                      A
 Frequencies --   1308.9397              1362.2182              1390.7073
 Red. masses --      1.7057                 3.3993                 3.6100
 Frc consts  --      1.7219                 3.7165                 4.1137
 IR Inten    --      7.9391               184.8854               114.9181

                     43                     44                     45
                      A                      A                      A
 Frequencies --   1432.6866              1440.9873              1469.9531
 Red. masses --      1.3224                 1.6838                 1.2504
 Frc consts  --      1.5993                 2.0600                 1.5918
 IR Inten    --      4.4290                50.9175                10.3284

                     46                     47                     48
                      A                      A                      A
 Frequencies --   1471.7926              1482.7394              1501.3568
 Red. masses --      2.6094                 2.2462                 1.0457
 Frc consts  --      3.3303                 2.9096                 1.3888
 IR Inten    --     15.1870                12.1044                 6.3353

                     49                     50                     51
                      A                      A                      A
 Frequencies --   1525.8043              1618.1493              1628.7414
 Red. masses --      1.0571                 6.1094                 5.1323
 Frc consts  --      1.4500                 9.4251                 8.0217
 IR Inten    --     14.7190                64.5781                46.4284

                     52                     53                     54
                      A                      A                      A
 Frequencies --   1716.6752              1788.8002              1805.8700
 Red. masses --      4.9483                 8.9256                11.7917
 Frc consts  --      8.5918                16.8273                22.6569
 IR Inten    --     21.4866               378.8803               199.4039

                     55                     56                     57
                      A                      A                      A
 Frequencies --   3057.7555              3119.5548              3146.4763
 Red. masses --      1.0368                 1.0979                 1.1041
 Frc consts  --      5.7113                 6.2952                 6.4405
 IR Inten    --     12.7937                13.9302                11.0031

                     58                     59                     60
                      A                      A                      A
 Frequencies --   3173.3650              3184.1073              3186.6125
 Red. masses --      1.0605                 1.0900                 1.0920
 Frc consts  --      6.2924                 6.5110                 6.5334
 IR Inten    --      3.6462                11.6765                20.8343

                     61                     62                     63
                      A                      A                      A
 Frequencies --   3229.7027              3255.3815              3569.0194
 Red. masses --      1.0962                 1.1160                 1.0758
 Frc consts  --      6.7372                 6.9680                 8.0735
 IR Inten    --      9.2572                 6.2398                51.0798

 - Thermochemistry -
 -------------------
 Temperature   298.150 Kelvin.  Pressure   1.00000 Atm.
 Atom     1 has atomic number  6 and mass  12.00000

 Molecular mass:   191.06948 amu.
 Principal axes and moments of inertia in atomic units:
                           1         2         3
     Eigenvalues --  1755.969722826.185453678.98175
           X            0.99999  -0.00214  -0.00486
           Y            0.00214   1.00000  -0.00042
           Z            0.00486   0.00041   0.99999
 This molecule is an asymmetric top.
 Rotational symmetry number  1.
 Warning -- assumption of classical behavior for rotation
           may cause significant error
 Rotational temperatures (Kelvin)      0.04933     0.03065     0.02354
 Rotational constants (GHZ):           1.02777     0.63858     0.49055
 Zero-point vibrational energy     460651.5 (Joules/Mol)
                                  110.09834 (Kcal/Mol)
 Warning -- explicit consideration of  17 degrees of freedom as
           vibrations may cause significant error
 Vibrational temperatures:     61.51    81.59   112.78   135.39   153.27
          (Kelvin)            238.69   266.70   312.27   372.53   423.15
                              513.14   519.84   589.71   620.30   658.79
                              764.14   876.65   919.75   935.87   958.40
                             1011.83  1051.98  1090.88  1170.62  1184.32
                             1219.89  1238.89  1380.94  1392.12  1439.14
                             1448.16  1460.39  1495.40  1563.67  1584.15
                             1623.42  1741.32  1755.51  1814.59  1883.27
                             1959.93  2000.92  2061.32  2073.26  2114.93
                             2117.58  2133.33  2160.12  2195.29  2328.16
                             2343.40  2469.91  2573.68  2598.24  4399.43
                             4488.34  4527.08  4565.76  4581.22  4584.82
                             4646.82  4683.77  5135.02

 Zero-point correction=                           0.175453 (Hartree/Particle)
 Thermal correction to Energy=                    0.188132
 Thermal correction to Enthalpy=                  0.189077
 Thermal correction to Gibbs Free Energy=         0.135466
 Sum of electronic and zero-point Energies=           -662.936035
 Sum of electronic and thermal Energies=              -662.923355
 Sum of electronic and thermal Enthalpies=            -662.922411
 Sum of electronic and thermal Free Energies=         -662.976021

                     E (Thermal)             CV                S
                      KCal/Mol        Cal/Mol-Kelvin    Cal/Mol-Kelvin
 Total                  118.055             46.530            112.833
 Electronic               0.000              0.000              0.000
 Translational            0.889              2.981             41.648
 Rotational               0.889              2.981             31.280
 Vibrational            116.277             40.568             39.905
 Vibration     1          0.595              1.980              5.127
 Vibration     2          0.596              1.975              4.569
 Vibration     3          0.600              1.964              3.931
 Vibration     4          0.603              1.953              3.573
 Vibration     5          0.605              1.944              3.331
 Vibration     6          0.624              1.884              2.481
 Vibration     7          0.631              1.860              2.274
 Vibration     8          0.646              1.815              1.984
 Vibration     9          0.668              1.748              1.669
 Vibration    10          0.689              1.685              1.450
 Vibration    11          0.732              1.562              1.137
 Vibration    12          0.735              1.552              1.116
 Vibration    13          0.774              1.449              0.927
 Vibration    14          0.792              1.402              0.855
 Vibration    15          0.816              1.343              0.772
 Vibration    16          0.886              1.181              0.585
 Vibration    17          0.968              1.012              0.434

 Optimization completed.
    -- Stationary point found.
 Normal termination of Gaussian 16 at Thu Dec 10 10:19:58 2020.

 ----------------------------------------------------------------------
 # B3LYP/6-311++G(d,p) empiricaldispersion=gd3bj scf=xqc pop=npa geom=c
 heck
 ----------------------------------------------------------------------

 --------------------------------------
 CID_53974977_JID_4607_Energie_neutraal
 --------------------------------------
 Structure from the checkpoint file:  "JID_4607.chk"
 Charge =  0 Multiplicity = 1

 SCF Done:  E(RB3LYP) =  -663.299337043     A.U. after   15 cycles
 Normal termination of Gaussian 16 at Thu Dec 10 10:22:01 2020.

 ----------------------------------------------------------------------
 # B3LYP/6-311++G(d,p) empiricaldispersion=gd3bj scf=xqc pop=npa geom=c
 heck
 ----------------------------------------------------------------------

 ------------------------------------
 CID_53974977_JID_4607_Energie_kation
 ------------------------------------
 Structure from the checkpoint file:  "JID_4607.chk"
 Charge =  1 Multiplicity = 2

 SCF Done:  E(UB3LYP) =  -662.958849447     A.U. after   30 cycles
 Normal termination of Gaussian 16 at Thu Dec 10 10:28:36 2020.
 Gaussian 16:  ES64L-G16RevA.03 25-Dec-2016

 ----------------------------------------------------------------------
 # B3LYP/6-311++G(d,p) empiricaldispersion=gd3bj scf=xqc pop=npa geom=c
 heck
 ----------------------------------------------------------------------

 -----------------------------------
 CID_53974977_JID_4607_Energie_anion
 -----------------------------------
 Structure from the checkpoint file:  "JID_4607.chk"
 Charge = -1 Multiplicity = 2

                         Standard orientation:
 ---------------------------------------------------------------------
 Center     Atomic      Atomic             Coordinates (Angstroms)
 Number     Number       Type             X           Y           Z
 ---------------------------------------------------------------------
      1          6           0       -1.712835   -2.335495    0.131997
      2          6           0       -1.514776   -0.942104    0.655632
      3          6           0       -1.024999   -0.655795    1.867619
      4          6           0       -2.050531    0.144518   -0.221739
      5          8           0       -3.081806    0.006844   -0.855358
      6          7           0       -1.403130    1.391408   -0.215329
      7          6           0       -0.062982    1.734575   -0.074469
      8          8           0        0.284541    2.896416    0.001380
      9          6           0        0.960904    0.620738   -0.132453
     10          7           0        1.982855    0.716628    0.721176
     11          6           0        2.919023   -0.231353    0.614493
     12          6           0        2.857055   -1.238998   -0.347446
     13          6           0        1.752266   -1.221712   -1.195199
     14          7           0        0.788523   -0.301123   -1.086868
     15          1           0       -1.389378   -3.082325    0.861936
     16          1           0       -1.145986   -2.475902   -0.795948
     17          1           0       -2.767402   -2.499510   -0.110458
     18          1           0       -0.929085    0.362865    2.229077
     19          1           0       -0.718292   -1.445215    2.548232
     20          1           0       -1.987131    2.158081   -0.535999
     21          1           0        3.744825   -0.176195    1.321019
     22          1           0        3.628908   -1.996169   -0.431296
     23          1           0        1.625173   -1.966346   -1.978189
 ---------------------------------------------------------------------

 SCF Done:  E(UB3LYP) =  -663.322517081     A.U. after   27 cycles

 The electronic state is 2-A.
 Alpha  occ. eigenvalues --  -18.95980 -18.95153 -14.21113 -14.17997 -14.15919
 Alpha  occ. eigenvalues --  -10.13740 -10.12869 -10.09423 -10.08316 -10.06919
 Alpha  occ. eigenvalues --  -10.05826 -10.04704 -10.04554 -10.03521  -0.91844
 Alpha  occ. eigenvalues --   -0.90190  -0.84343  -0.78134  -0.74733  -0.67721
 Alpha  occ. eigenvalues --   -0.65673  -0.57068  -0.54531  -0.52003  -0.51303
 Alpha  occ. eigenvalues --   -0.47118  -0.42629  -0.38793  -0.37631  -0.35659
 Alpha  occ. eigenvalues --   -0.34306  -0.32842  -0.31223  -0.30207  -0.30034
 Alpha  occ. eigenvalues --   -0.29119  -0.27888  -0.27641  -0.27084  -0.25797
 Alpha  occ. eigenvalues --   -0.24920  -0.23461  -0.18249  -0.17683  -0.16051
 Alpha  occ. eigenvalues --   -0.14669  -0.13922  -0.13225  -0.11685  -0.11190
 Alpha  occ. eigenvalues --    0.03656
 Alpha virt. eigenvalues --    0.08170   0.08245   0.08771   0.09669   0.10174
 Alpha virt. eigenvalues --    0.11302   0.11727   0.12260   0.13024   0.14258
 Alpha virt. eigenvalues --    0.14540   0.15262   0.16292   0.16900   0.17162

  Beta  occ. eigenvalues --  -18.95775 -18.94881 -14.21194 -14.18104 -14.15528
  Beta  occ. eigenvalues --  -10.13561 -10.12707 -10.09290 -10.08322 -10.06608
  Beta  occ. eigenvalues --  -10.05867 -10.04699 -10.04432 -10.03310  -0.91482
  Beta  occ. eigenvalues --   -0.89742  -0.84002  -0.78001  -0.74331  -0.67586
  Beta  occ. eigenvalues --   -0.65215  -0.56892  -0.53992  -0.51680  -0.50830
  Beta  occ. eigenvalues --   -0.46820  -0.42448  -0.38657  -0.37392  -0.35519
  Beta  occ. eigenvalues --   -0.34005  -0.32554  -0.30893  -0.29970  -0.29588
  Beta  occ. eigenvalues --   -0.28775  -0.27502  -0.27360  -0.26657  -0.25580
  Beta  occ. eigenvalues --   -0.24459  -0.22677  -0.17440  -0.17124  -0.15083
  Beta  occ. eigenvalues --   -0.14132  -0.13418  -0.12347  -0.11290  -0.10909
  Beta virt. eigenvalues --    0.08185   0.08583   0.08983   0.09548   0.10112
  Beta virt. eigenvalues --    0.10877   0.11369   0.11688   0.12308   0.13210
  Beta virt. eigenvalues --    0.14459   0.14908   0.15646   0.16376   0.16940

 Mulliken charges and spin densities:
               1          2
     1  C   -0.490009   0.007016
     2  C    0.998643  -0.067519
     3  C   -0.836546   0.223635
     4  C   -0.408667   0.107613
     5  O   -0.363886   0.075588
     6  N   -0.219290  -0.058177
     7  C   -0.067174   0.110868
     8  O   -0.351572   0.091787
     9  C   -0.434924   0.033191
    10  N   -0.021482   0.205449
    11  C    0.068496   0.005340
    12  C   -0.323813   0.082869
    13  C   -0.015009   0.259189
    14  N    0.088516  -0.061581
    15  H    0.122278  -0.000885
    16  H    0.149153   0.002099
    17  H    0.150976   0.001709
    18  H    0.184445  -0.009407
    19  H    0.090788  -0.009500
    20  H    0.285065   0.024091
    21  H    0.139144   0.002010
    22  H    0.112782  -0.007498
    23  H    0.142086  -0.017887
 Sum of Mulliken charges =  -1.00000   1.00000

 Dipole moment (field-independent basis, Debye):
    X=              1.3483    Y=             -4.3109    Z=              0.7867  Tot=              4.5848
 Quadrupole moment (field-independent basis, Debye-Ang):
   XX=           -110.5639   YY=           -102.2679   ZZ=            -92.7403
   XY=             -8.0105   XZ=             -3.8809   YZ=             -1.4147

 Summary of Natural Population Analysis:

                                       Natural Population
                Natural  -----------------------------------------------
    Atom  No    Charge         Core      Valence    Rydberg      Total
 -----------------------------------------------------------------------
      C    1   -0.29429      0.99962     2.28939    0.00528     3.29429
      C    2   -0.06326      0.99949     2.05054    0.01323     3.06326
      C    3   -0.12820      0.99952     2.12246    0.00622     3.12820
      C    4    0.36424      0.99960     1.61266    0.02350     2.63576
      O    5   -0.29543      0.99988     3.28985    0.00570     4.29543
      N    6   -0.33936      0.99965     2.82911    0.01060     3.83936
      C    7    0.35217      0.99964     1.62583    0.02236     2.64783
      O    8   -0.27547      0.99987     3.26962    0.00598     4.27547
      C    9    0.19832      0.99956     1.78205    0.02008     2.80168
      N   10   -0.18758      0.99967     2.67543    0.01248     3.68758
      C   11    0.03661      0.99960     1.94995    0.01384     2.96339
      C   12   -0.13137      0.99956     2.12408    0.00773     3.13137
      C   13    0.08873      0.99960     1.89827    0.01340     2.91127
      N   14   -0.26368      0.99968     2.75186    0.01213     3.76368
      H   15    0.09360      0.00000     0.40548    0.00092     0.40640
      H   16    0.10661      0.00000     0.39217    0.00122     0.39339
      H   17    0.10647      0.00000     0.39235    0.00118     0.39353
      H   18    0.09629      0.00000     0.40279    0.00092     0.40371
      H   19    0.08471      0.00000     0.41419    0.00110     0.41529
      H   20    0.19711      0.00000     0.30096    0.00192     0.30289
      H   21    0.08105      0.00000     0.41764    0.00130     0.41895
      H   22    0.09405      0.00000     0.40481    0.00113     0.40595
      H   23    0.07867      0.00000     0.42018    0.00116     0.42133
 =======================================================================
   * Total *   -0.00000     13.99495    35.82165    0.18339    50.00000

 Normal termination of Gaussian 16 at Thu Dec 10 10:34:49 2020.
