 Gaussian 16, Revision A.03,

 -----------------------------------------------------------
 # opt freq B3LYP/6-31G(d) empiricaldispersion=gd3bj scf=xqc
 -----------------------------------------------------------

 -------------------------------
 CID_103971279_JID_1172_neutraal
 -------------------------------
 Symbolic Z-matrix:
 Charge =  0 Multiplicity = 1

 SCF Done:  E(RB3LYP) =  -480.755702265     A.U. after   14 cycles
 SCF Done:  E(RB3LYP) =  -480.758721753     A.U. after   12 cycles
 SCF Done:  E(RB3LYP) =  -480.759002041     A.U. after   10 cycles
 SCF Done:  E(RB3LYP) =  -480.759076262     A.U. after   11 cycles
 SCF Done:  E(RB3LYP) =  -480.759105852     A.U. after   10 cycles
 SCF Done:  E(RB3LYP) =  -480.759126501     A.U. after   10 cycles
 SCF Done:  E(RB3LYP) =  -480.759132486     A.U. after    9 cycles
 SCF Done:  E(RB3LYP) =  -480.759133980     A.U. after    8 cycles
 SCF Done:  E(RB3LYP) =  -480.759135433     A.U. after    8 cycles
 SCF Done:  E(RB3LYP) =  -480.759137034     A.U. after    8 cycles
 SCF Done:  E(RB3LYP) =  -480.759138889     A.U. after    9 cycles
 SCF Done:  E(RB3LYP) =  -480.759140608     A.U. after    9 cycles
 SCF Done:  E(RB3LYP) =  -480.759141587     A.U. after    8 cycles
 SCF Done:  E(RB3LYP) =  -480.759142176     A.U. after    8 cycles
 SCF Done:  E(RB3LYP) =  -480.759142265     A.U. after    7 cycles
 Optimization completed.
    -- Stationary point found.
 Normal termination of Gaussian 16 at Tue Dec  8 19:15:43 2020.

 --------------------------------------------------------------------
 #N Geom=AllCheck Guess=TCheck SCRF=Check GenChk RB3LYP/6-31G(d) Freq
 --------------------------------------------------------------------

 Structure from the checkpoint file:  "JID_1172.chk"
 -------------------------------
 CID_103971279_JID_1172_neutraal
 -------------------------------
 Charge =  0 Multiplicity = 1

 SCF Done:  E(RB3LYP) =  -480.759142265     A.U. after    1 cycles

  Exact polarizability: 163.760  -5.852 104.067  -4.307   4.864  58.683
 Approx polarizability: 212.217  -9.551 166.832 -10.674  10.043  86.976

                      1                      2                      3
                      A                      A                      A
 Frequencies --     27.8804                77.6932                85.1637
 Red. masses --      3.2056                 2.4571                 2.1846
 Frc consts  --      0.0015                 0.0087                 0.0093
 IR Inten    --      0.3922                 0.8463                 0.4918

                      4                      5                      6
                      A                      A                      A
 Frequencies --     93.6137               119.9216               176.0113
 Red. masses --      1.5773                 2.5805                 3.1600
 Frc consts  --      0.0081                 0.0219                 0.0577
 IR Inten    --      0.3225                 1.3169                 4.2383

                      7                      8                      9
                      A                      A                      A
 Frequencies --    215.4205               258.6552               295.1453
 Red. masses --      4.7639                 1.1037                 2.4529
 Frc consts  --      0.1303                 0.0435                 0.1259
 IR Inten    --      0.8366                 0.5169                13.4279

                     10                     11                     12
                      A                      A                      A
 Frequencies --    338.5770               370.8757               383.0513
 Red. masses --      3.0466                 2.0305                 1.5181
 Frc consts  --      0.2058                 0.1646                 0.1312
 IR Inten    --     31.9892                33.1469                56.8816

                     13                     14                     15
                      A                      A                      A
 Frequencies --    459.1066               493.0633               561.8447
 Red. masses --      3.1046                 3.3745                 3.3015
 Frc consts  --      0.3856                 0.4833                 0.6140
 IR Inten    --     20.3852                25.2483                10.2067

                     16                     17                     18
                      A                      A                      A
 Frequencies --    610.9170               650.1473               672.3450
 Red. masses --      4.0460                 1.6869                 2.5525
 Frc consts  --      0.8897                 0.4201                 0.6798
 IR Inten    --      4.2212                 0.1057                 1.6214

                     19                     20                     21
                      A                      A                      A
 Frequencies --    678.5302               763.8374               789.8289
 Red. masses --      2.2634                 1.4062                 3.9828
 Frc consts  --      0.6140                 0.4834                 1.4639
 IR Inten    --      9.5775                44.3618                17.3221

                     22                     23                     24
                      A                      A                      A
 Frequencies --    818.4063               852.5863               870.9212
 Red. masses --      1.3506                 2.2266                 2.3423
 Frc consts  --      0.5330                 0.9536                 1.0468
 IR Inten    --      7.4192                 0.8306                 7.0256

                     25                     26                     27
                      A                      A                      A
 Frequencies --    961.2912              1014.3061              1023.3154
 Red. masses --      1.7509                 2.5823                 1.1207
 Frc consts  --      0.9533                 1.5653                 0.6915
 IR Inten    --      1.3035                10.0575                24.6201

                     28                     29                     30
                      A                      A                      A
 Frequencies --   1033.4051              1049.7304              1090.8711
 Red. masses --      3.8809                 1.8251                 1.7109
 Frc consts  --      2.4419                 1.1849                 1.1996
 IR Inten    --      3.3998                41.6753                 3.5556

                     31                     32                     33
                      A                      A                      A
 Frequencies --   1098.0044              1112.8858              1156.6695
 Red. masses --      1.9195                 1.2161                 1.3064
 Frc consts  --      1.3635                 0.8874                 1.0298
 IR Inten    --      9.1609                12.2051                17.2989

                     34                     35                     36
                      A                      A                      A
 Frequencies --   1163.3042              1203.2235              1241.1644
 Red. masses --      1.8631                 1.7301                 1.5083
 Frc consts  --      1.4855                 1.4757                 1.3690
 IR Inten    --     66.1409                29.4932                24.6835

                     37                     38                     39
                      A                      A                      A
 Frequencies --   1296.4405              1316.7677              1342.1400
 Red. masses --      1.5368                 1.3808                 1.3779
 Frc consts  --      1.5218                 1.4106                 1.4624
 IR Inten    --     13.2117                23.2932                10.7139

                     40                     41                     42
                      A                      A                      A
 Frequencies --   1356.7305              1407.6738              1418.7008
 Red. masses --      1.4238                 4.7828                 3.8215
 Frc consts  --      1.5441                 5.5839                 4.5317
 IR Inten    --      8.1374                64.9900                24.3581

                     43                     44                     45
                      A                      A                      A
 Frequencies --   1427.7360              1431.6536              1434.0024
 Red. masses --      1.2507                 1.7895                 2.2099
 Frc consts  --      1.5021                 2.1611                 2.6775
 IR Inten    --      7.2623                33.0961                30.7654

                     46                     47                     48
                      A                      A                      A
 Frequencies --   1475.3361              1517.2680              1521.7523
 Red. masses --      1.2886                 1.0547                 1.0526
 Frc consts  --      1.6526                 1.4306                 1.4362
 IR Inten    --     20.8504                12.2049                 6.2190

                     49                     50                     51
                      A                      A                      A
 Frequencies --   1524.2915              1539.4468              1557.8497
 Red. masses --      1.0532                 1.1298                 2.8143
 Frc consts  --      1.4418                 1.5776                 4.0241
 IR Inten    --      0.9318                12.5912                22.8635

                     52                     53                     54
                      A                      A                      A
 Frequencies --   1603.4097              1731.6287              3027.7344
 Red. masses --      4.5221                 6.0135                 1.0834
 Frc consts  --      6.8498                10.6240                 5.8515
 IR Inten    --     19.6043                26.8738                33.5254

                     55                     56                     57
                      A                      A                      A
 Frequencies --   3042.9211              3050.7888              3108.1512
 Red. masses --      1.0367                 1.0391                 1.1013
 Frc consts  --      5.6558                 5.6984                 6.2683
 IR Inten    --     25.1237                75.0400                36.1663

                     58                     59                     60
                      A                      A                      A
 Frequencies --   3119.4527              3133.3699              3149.8946
 Red. masses --      1.0975                 1.1022                 1.0895
 Frc consts  --      6.2926                 6.3759                 6.3692
 IR Inten    --     21.8997                34.4071                16.7869

                     61                     62                     63
                      A                      A                      A
 Frequencies --   3150.7502              3166.0738              3250.8557
 Red. masses --      1.1046                 1.0862                 1.0906
 Frc consts  --      6.4608                 6.4149                 6.7905
 IR Inten    --     12.9152                16.0196                 3.5870

                     64                     65                     66
                      A                      A                      A
 Frequencies --   3268.0656              3276.3940              3709.2632
 Red. masses --      1.0952                 1.1028                 1.0654
 Frc consts  --      6.8915                 6.9748                 8.6363
 IR Inten    --      1.9770                 4.0433                 5.4812

 - Thermochemistry -
 -------------------
 Temperature   298.150 Kelvin.  Pressure   1.00000 Atm.
 Atom     1 has atomic number  6 and mass  12.00000

 Molecular mass:   151.09971 amu.
 Principal axes and moments of inertia in atomic units:
                           1         2         3
     Eigenvalues --   582.566744118.769014606.72064
           X            0.99999  -0.00412   0.00345
           Y            0.00411   0.99998   0.00453
           Z           -0.00347  -0.00452   0.99998
 This molecule is an asymmetric top.
 Rotational symmetry number  1.
 Warning -- assumption of classical behavior for rotation
           may cause significant error
 Rotational temperatures (Kelvin)      0.14868     0.02103     0.01880
 Rotational constants (GHZ):           3.09791     0.43817     0.39176
 Zero-point vibrational energy     539325.9 (Joules/Mol)
                                  128.90200 (Kcal/Mol)
 Warning -- explicit consideration of  16 degrees of freedom as
           vibrations may cause significant error
 Vibrational temperatures:     40.11   111.78   122.53   134.69   172.54
          (Kelvin)            253.24   309.94   372.15   424.65   487.14
                              533.61   551.13   660.55   709.41   808.37
                              878.97   935.42   967.35   976.25  1098.99
                             1136.39  1177.50  1226.68  1253.06  1383.08
                             1459.36  1472.32  1486.84  1510.33  1569.52
                             1579.78  1601.19  1664.19  1673.74  1731.17
                             1785.76  1865.29  1894.54  1931.04  1952.03
                             2025.33  2041.19  2054.19  2059.83  2063.21
                             2122.68  2183.01  2189.46  2193.12  2214.92
                             2241.40  2306.95  2491.43  4356.23  4378.08
                             4389.40  4471.94  4488.20  4508.22  4532.00
                             4533.23  4555.27  4677.26  4702.02  4714.00
                             5336.80

 Zero-point correction=                           0.205418 (Hartree/Particle)
 Thermal correction to Energy=                    0.217190
 Thermal correction to Enthalpy=                  0.218135
 Thermal correction to Gibbs Free Energy=         0.166640
 Sum of electronic and zero-point Energies=           -480.553724
 Sum of electronic and thermal Energies=              -480.541952
 Sum of electronic and thermal Enthalpies=            -480.541008
 Sum of electronic and thermal Free Energies=         -480.592502

                     E (Thermal)             CV                S
                      KCal/Mol        Cal/Mol-Kelvin    Cal/Mol-Kelvin
 Total                  136.289             43.054            108.379
 Electronic               0.000              0.000              0.000
 Translational            0.889              2.981             40.948
 Rotational               0.889              2.981             30.781
 Vibrational            134.512             37.092             36.650
 Vibration     1          0.593              1.984              5.975
 Vibration     2          0.599              1.964              3.948
 Vibration     3          0.601              1.959              3.768
 Vibration     4          0.603              1.954              3.583
 Vibration     5          0.609              1.933              3.102
 Vibration     6          0.628              1.872              2.370
 Vibration     7          0.645              1.818              1.997
 Vibration     8          0.667              1.748              1.671
 Vibration     9          0.689              1.683              1.444
 Vibration    10          0.719              1.598              1.219
 Vibration    11          0.743              1.532              1.076
 Vibration    12          0.752              1.506              1.027
 Vibration    13          0.817              1.341              0.769
 Vibration    14          0.849              1.265              0.676
 Vibration    15          0.918              1.114              0.520
 Vibration    16          0.970              1.009              0.431

                           ! Non-Optimized Parameters !
 Normal termination of Gaussian 16 at Tue Dec  8 19:19:54 2020.

 ----------------------------------------------------------------------
 # B3LYP/6-311++G(d,p) empiricaldispersion=gd3bj scf=xqc pop=npa geom=c
 heck
 ----------------------------------------------------------------------

 ---------------------------------------
 CID_103971279_JID_1172_Energie_neutraal
 ---------------------------------------
 Structure from the checkpoint file:  "JID_1172.chk"
 Charge =  0 Multiplicity = 1

 SCF Done:  E(RB3LYP) =  -480.902128145     A.U. after   14 cycles
 Normal termination of Gaussian 16 at Tue Dec  8 19:21:53 2020.

 ----------------------------------------------------------------------
 # B3LYP/6-311++G(d,p) empiricaldispersion=gd3bj scf=xqc pop=npa geom=c
 heck
 ----------------------------------------------------------------------

 -------------------------------------
 CID_103971279_JID_1172_Energie_kation
 -------------------------------------
 Structure from the checkpoint file:  "JID_1172.chk"
 Charge =  1 Multiplicity = 2

 SCF Done:  E(UB3LYP) =  -480.632195917     A.U. after   22 cycles
 Normal termination of Gaussian 16 at Tue Dec  8 19:26:05 2020.
 Gaussian 16:  ES64L-G16RevA.03 25-Dec-2016

 ----------------------------------------------------------------------
 # B3LYP/6-311++G(d,p) empiricaldispersion=gd3bj scf=xqc pop=npa geom=c
 heck
 ----------------------------------------------------------------------

 ------------------------------------
 CID_103971279_JID_1172_Energie_anion
 ------------------------------------
 Structure from the checkpoint file:  "JID_1172.chk"
 Charge = -1 Multiplicity = 2

                         Standard orientation:
 ---------------------------------------------------------------------
 Center     Atomic      Atomic             Coordinates (Angstroms)
 Number     Number       Type             X           Y           Z
 ---------------------------------------------------------------------
      1          6           0        3.828813   -1.261769    0.441960
      2          6           0        3.087166   -0.198819   -0.378721
      3          6           0        1.592171   -0.401706   -0.320634
      4          6           0        0.703330    0.587583   -0.146738
      5          6           0       -0.744468    0.461745   -0.053775
      6          6           0       -1.518392   -0.691973   -0.068084
      7          7           0       -2.837562   -0.338448    0.063877
      8          6           0       -2.931581    1.033984    0.153508
      9          6           0       -1.659976    1.554082    0.088922
     10          6           0       -3.959892   -1.252714   -0.005661
     11          8           0        3.478837    1.114551    0.017098
     12          1           0        3.528271   -1.208582    1.496073
     13          1           0        4.909149   -1.100244    0.378212
     14          1           0        3.602113   -2.271605    0.080148
     15          1           0        3.425194   -0.273206   -1.422208
     16          1           0        1.254404   -1.433285   -0.422526
     17          1           0        1.088328    1.603915   -0.078289
     18          1           0       -1.235371   -1.731146   -0.154961
     19          1           0       -3.895119    1.512055    0.256602
     20          1           0       -1.393698    2.601046    0.147724
     21          1           0       -4.799341   -0.841659    0.560835
     22          1           0       -4.280434   -1.421843   -1.040816
     23          1           0       -3.679290   -2.211720    0.437907
     24          1           0        3.125017    1.246527    0.912707
 ---------------------------------------------------------------------

 SCF Done:  E(UB3LYP) =  -480.888912042     A.U. after   32 cycles

 The electronic state is 2-A.
 Alpha  occ. eigenvalues --  -19.03122 -14.26189 -10.13228 -10.10222 -10.08800
 Alpha  occ. eigenvalues --  -10.08564 -10.07160 -10.06888 -10.06397 -10.06304
 Alpha  occ. eigenvalues --  -10.05648  -0.93428  -0.88452  -0.71671  -0.68591
 Alpha  occ. eigenvalues --   -0.64808  -0.61699  -0.58799  -0.53722  -0.48889
 Alpha  occ. eigenvalues --   -0.46698  -0.44444  -0.41825  -0.39329  -0.37062
 Alpha  occ. eigenvalues --   -0.35960  -0.34866  -0.33494  -0.32945  -0.31116
 Alpha  occ. eigenvalues --   -0.29768  -0.29157  -0.28301  -0.27646  -0.27255
 Alpha  occ. eigenvalues --   -0.25863  -0.23509  -0.19941  -0.18719  -0.12896
 Alpha  occ. eigenvalues --   -0.10103   0.04434
 Alpha virt. eigenvalues --    0.06025   0.07555   0.07789   0.08314   0.08735
 Alpha virt. eigenvalues --    0.09024   0.09863   0.10284   0.10965   0.11723
 Alpha virt. eigenvalues --    0.12621   0.13342   0.13505   0.14010   0.15276

  Beta  occ. eigenvalues --  -19.03112 -14.26179 -10.13224 -10.10151 -10.08787
  Beta  occ. eigenvalues --  -10.08527 -10.07129 -10.06855 -10.06385 -10.06307
  Beta  occ. eigenvalues --  -10.05643  -0.93402  -0.88425  -0.71632  -0.68554
  Beta  occ. eigenvalues --   -0.64761  -0.61647  -0.58725  -0.53661  -0.48847
  Beta  occ. eigenvalues --   -0.46651  -0.44390  -0.41759  -0.39292  -0.37025
  Beta  occ. eigenvalues --   -0.35890  -0.34824  -0.33450  -0.32902  -0.31076
  Beta  occ. eigenvalues --   -0.29730  -0.29107  -0.28265  -0.27585  -0.27225
  Beta  occ. eigenvalues --   -0.25839  -0.23480  -0.19861  -0.18670  -0.12845
  Beta  occ. eigenvalues --   -0.10033
  Beta virt. eigenvalues --    0.06472   0.07334   0.07939   0.08076   0.08796
  Beta virt. eigenvalues --    0.09218   0.09487   0.10520   0.10873   0.11601
  Beta virt. eigenvalues --    0.11910   0.13042   0.13536   0.13915   0.14130

 Mulliken charges and spin densities:
               1          2
     1  C    0.464813  -1.034379
     2  C   -0.390232   0.173138
     3  C   -0.138231   0.224764
     4  C    0.070644  -0.545630
     5  C    0.625004  -0.864114
     6  C   -0.162291  -0.199469
     7  N   -0.168598   0.344435
     8  C    0.221693  -0.679586
     9  C   -0.484713   1.035051
    10  C    1.812381  -2.107049
    11  O   -0.227199  -0.000461
    12  H   -0.095628   0.243985
    13  H   -0.136278   0.286181
    14  H   -0.199480   0.342365
    15  H    0.066982   0.100364
    16  H   -0.038892   0.132594
    17  H    0.095328   0.026698
    18  H   -0.296941   0.499375
    19  H   -0.387866   0.549210
    20  H    0.023386   0.113730
    21  H   -0.725381   0.880871
    22  H   -0.337851   0.517255
    23  H   -0.763634   0.922840
    24  H    0.172983   0.037832
 Sum of Mulliken charges =  -1.00000   1.00000

 Dipole moment (field-independent basis, Debye):
    X=              5.9856    Y=              4.5733    Z=             -0.9054  Tot=              7.5870
 Quadrupole moment (field-independent basis, Debye-Ang):
   XX=           -171.0361   YY=           -106.4709   ZZ=            -92.2133
   XY=            -10.6573   XZ=              4.9641   YZ=              4.8017

 Summary of Natural Population Analysis:

                                       Natural Population
                Natural  -----------------------------------------------
    Atom  No    Charge         Core      Valence    Rydberg      Total
 -----------------------------------------------------------------------
      C    1   -0.29235      0.99965     2.28787    0.00484     3.29235
      C    2    0.04729      0.99957     1.93731    0.01583     2.95271
      C    3   -0.11370      0.99952     2.10417    0.01001     3.11370
      C    4   -0.10279      0.99953     2.08888    0.01437     3.10279
      C    5   -0.04278      0.99953     2.03690    0.00635     3.04278
      C    6   -0.00901      0.99953     1.99373    0.01575     3.00901
      N    7   -0.19452      0.99967     2.68439    0.01046     3.69452
      C    8   -0.01905      0.99955     2.00578    0.01372     3.01905
      C    9   -0.14557      0.99956     2.13406    0.01195     3.14557
      C   10   -0.17144      0.99963     2.16349    0.00831     3.17144
      O   11   -0.36994      0.99990     3.36351    0.00653     4.36994
      H   12    0.09696      0.00000     0.40153    0.00150     0.40304
      H   13    0.10023      0.00000     0.39840    0.00137     0.39977
      H   14    0.10156      0.00000     0.39698    0.00146     0.39844
      H   15    0.08733      0.00000     0.41128    0.00140     0.41267
      H   16    0.09578      0.00000     0.40290    0.00132     0.40422
      H   17    0.09691      0.00000     0.40122    0.00187     0.40309
      H   18    0.10200      0.00000     0.39663    0.00137     0.39800
      H   19    0.10089      0.00000     0.39807    0.00103     0.39911
      H   20    0.10114      0.00000     0.39807    0.00079     0.39886
      H   21    0.10443      0.00000     0.39137    0.00421     0.39557
      H   22    0.09624      0.00000     0.40207    0.00168     0.40376
      H   23    0.10578      0.00000     0.38972    0.00449     0.39422
      H   24    0.22484      0.00000     0.27231    0.00285     0.27516
 =======================================================================
   * Total *    0.00023     10.99565    29.86065    0.14348    40.99977

 Normal termination of Gaussian 16 at Tue Dec  8 19:32:18 2020.
