 Gaussian 16, Revision A.03,

 -----------------------------------------------------------
 # opt freq B3LYP/6-31G(d) empiricaldispersion=gd3bj scf=xqc
 -----------------------------------------------------------

 ------------------------------
 CID_61571029_JID_6698_neutraal
 ------------------------------
 Symbolic Z-matrix:
 Charge =  0 Multiplicity = 1

 SCF Done:  E(RB3LYP) =  -1070.75502828     A.U. after   15 cycles
 SCF Done:  E(RB3LYP) =  -1070.75977568     A.U. after   13 cycles
 SCF Done:  E(RB3LYP) =  -1070.75824022     A.U. after   13 cycles
 SCF Done:  E(RB3LYP) =  -1070.75774668     A.U. after   14 cycles
 SCF Done:  E(RB3LYP) =  -1070.75267249     A.U. after   14 cycles
 SCF Done:  E(RB3LYP) =  -1070.75984568     A.U. after    9 cycles
 SCF Done:  E(RB3LYP) =  -1070.76140861     A.U. after   12 cycles
 SCF Done:  E(RB3LYP) =  -1070.76121756     A.U. after   12 cycles
 SCF Done:  E(RB3LYP) =  -1070.76158199     A.U. after   12 cycles
 SCF Done:  E(RB3LYP) =  -1070.76161093     A.U. after   12 cycles
 SCF Done:  E(RB3LYP) =  -1070.76184154     A.U. after    8 cycles
 SCF Done:  E(RB3LYP) =  -1070.76184221     A.U. after    8 cycles
 SCF Done:  E(RB3LYP) =  -1070.76184302     A.U. after    9 cycles
 SCF Done:  E(RB3LYP) =  -1070.76184315     A.U. after    7 cycles
 SCF Done:  E(RB3LYP) =  -1070.76184317     A.U. after    7 cycles
 Optimization completed.
    -- Stationary point found.
 Normal termination of Gaussian 16 at Thu Dec 10 23:07:05 2020.

 --------------------------------------------------------------------
 #N Geom=AllCheck Guess=TCheck SCRF=Check GenChk RB3LYP/6-31G(d) Freq
 --------------------------------------------------------------------

 Structure from the checkpoint file:  "JID_6698.chk"
 ------------------------------
 CID_61571029_JID_6698_neutraal
 ------------------------------
 Charge =  0 Multiplicity = 1

 SCF Done:  E(RB3LYP) =  -1070.76184317     A.U. after    1 cycles

  Exact polarizability: 198.818  20.531 142.093  -7.500  -5.888 135.391
 Approx polarizability: 261.179  42.469 209.353 -22.865 -20.416 211.356

                      1                      2                      3
                      A                      A                      A
 Frequencies --     22.2999                25.9431                51.4101
 Red. masses --      4.3936                 7.5861                 3.2053
 Frc consts  --      0.0013                 0.0030                 0.0050
 IR Inten    --      0.9458                 1.3296                 0.5002

                      4                      5                      6
                      A                      A                      A
 Frequencies --     68.5521                73.8048                99.9391
 Red. masses --      4.0008                 1.6890                 3.5237
 Frc consts  --      0.0111                 0.0054                 0.0207
 IR Inten    --      0.9204                 0.4107                 1.2453

                      7                      8                      9
                      A                      A                      A
 Frequencies --    106.6294               115.0655               124.4349
 Red. masses --      2.7392                 2.3506                 2.3003
 Frc consts  --      0.0183                 0.0183                 0.0210
 IR Inten    --      0.2552                 1.6225                 1.2185

                     10                     11                     12
                      A                      A                      A
 Frequencies --    140.8463               151.7948               183.9110
 Red. masses --      1.1022                 2.5389                 4.0797
 Frc consts  --      0.0129                 0.0345                 0.0813
 IR Inten    --      0.5837                 1.1587                 5.0512

                     13                     14                     15
                      A                      A                      A
 Frequencies --    219.0586               232.0280               237.1169
 Red. masses --      1.4534                 1.9003                 1.5750
 Frc consts  --      0.0411                 0.0603                 0.0522
 IR Inten    --      1.5813                 0.1800                 1.8676

                     16                     17                     18
                      A                      A                      A
 Frequencies --    251.5832               257.8466               282.6106
 Red. masses --      2.1991                 2.6370                 3.0775
 Frc consts  --      0.0820                 0.1033                 0.1448
 IR Inten    --      6.4653                 1.9015                 8.0383

                     19                     20                     21
                      A                      A                      A
 Frequencies --    328.5235               342.6794               371.6595
 Red. masses --      2.4351                 3.1201                 2.7045
 Frc consts  --      0.1548                 0.2159                 0.2201
 IR Inten    --      0.1220                11.5612                 0.9860

                     22                     23                     24
                      A                      A                      A
 Frequencies --    383.6251               422.3055               436.6921
 Red. masses --      3.1142                 2.1797                 2.5358
 Frc consts  --      0.2700                 0.2290                 0.2849
 IR Inten    --     15.3847                 1.2540                 4.9590

                     25                     26                     27
                      A                      A                      A
 Frequencies --    454.8437               489.7183               515.5301
 Red. masses --      3.0339                 2.0448                 2.1739
 Frc consts  --      0.3698                 0.2889                 0.3404
 IR Inten    --      3.2181                 1.5288                43.7534

                     28                     29                     30
                      A                      A                      A
 Frequencies --    531.6956               560.4433               590.5545
 Red. masses --      2.6465                 1.6076                 4.0625
 Frc consts  --      0.4408                 0.2975                 0.8348
 IR Inten    --     27.5846               115.8303                13.5703

                     31                     32                     33
                      A                      A                      A
 Frequencies --    605.4619               687.3755               711.7621
 Red. masses --      4.5042                 2.5586                 3.2339
 Frc consts  --      0.9728                 0.7123                 0.9653
 IR Inten    --     23.0250                 4.7199                 3.7699

                     34                     35                     36
                      A                      A                      A
 Frequencies --    790.9747               794.2824               811.3561
 Red. masses --      1.5292                 1.1849                 3.3821
 Frc consts  --      0.5637                 0.4404                 1.3118
 IR Inten    --      4.3137                24.3671                 3.6996

                     37                     38                     39
                      A                      A                      A
 Frequencies --    825.7141               890.6249               917.9424
 Red. masses --      3.9361                 2.2102                 2.2974
 Frc consts  --      1.5812                 1.0329                 1.1406
 IR Inten    --     10.9542                10.7935                 9.0046

                     40                     41                     42
                      A                      A                      A
 Frequencies --    922.3604               928.3869               967.5741
 Red. masses --      1.6851                 1.4466                 2.6531
 Frc consts  --      0.8446                 0.7346                 1.4635
 IR Inten    --      6.1187                 3.6273                 6.2478

                     43                     44                     45
                      A                      A                      A
 Frequencies --    987.5419              1021.8598              1044.3015
 Red. masses --      2.3361                 2.1430                 1.8832
 Frc consts  --      1.3423                 1.3184                 1.2101
 IR Inten    --      6.7348                 3.3887                63.9845

                     46                     47                     48
                      A                      A                      A
 Frequencies --   1064.9546              1086.3134              1087.7774
 Red. masses --      3.0929                 1.3763                 1.9266
 Frc consts  --      2.0667                 0.9569                 1.3431
 IR Inten    --     25.6903                 3.7805                21.0727

                     49                     50                     51
                      A                      A                      A
 Frequencies --   1099.6401              1135.9522              1138.9504
 Red. masses --      2.4933                 1.8926                 1.2285
 Frc consts  --      1.7764                 1.4389                 0.9389
 IR Inten    --     15.7615                 7.1834                 0.2446

                     52                     53                     54
                      A                      A                      A
 Frequencies --   1143.5110              1162.8095              1180.1428
 Red. masses --      1.7223                 1.9654                 2.0969
 Frc consts  --      1.3269                 1.5657                 1.7207
 IR Inten    --     11.7093               142.7543                12.4193

                     55                     56                     57
                      A                      A                      A
 Frequencies --   1185.8142              1205.0032              1250.7594
 Red. masses --      1.4076                 2.4156                 1.3678
 Frc consts  --      1.1662                 2.0666                 1.2607
 IR Inten    --      5.7799                 7.9456                22.6836

                     58                     59                     60
                      A                      A                      A
 Frequencies --   1286.2251              1302.5210              1306.9439
 Red. masses --      4.6732                 1.3386                 1.2348
 Frc consts  --      4.5551                 1.3380                 1.2426
 IR Inten    --     47.6156                42.4645                22.1967

                     61                     62                     63
                      A                      A                      A
 Frequencies --   1327.5832              1356.3922              1365.6538
 Red. masses --      1.3691                 1.5830                 1.2503
 Frc consts  --      1.4217                 1.7159                 1.3739
 IR Inten    --      7.5686                 7.0702                13.3572

                     64                     65                     66
                      A                      A                      A
 Frequencies --   1381.0117              1385.1368              1399.0799
 Red. masses --      1.4839                 1.5763                 1.3609
 Frc consts  --      1.6675                 1.7819                 1.5695
 IR Inten    --     13.3571                14.9014                 3.3647

                     67                     68                     69
                      A                      A                      A
 Frequencies --   1427.0126              1440.6149              1445.5387
 Red. masses --      1.2633                 1.3148                 1.5565
 Frc consts  --      1.5157                 1.6077                 1.9163
 IR Inten    --     13.2939                13.5644               168.2317

                     70                     71                     72
                      A                      A                      A
 Frequencies --   1447.8451              1450.1301              1454.9864
 Red. masses --      1.2401                 1.9494                 1.5355
 Frc consts  --      1.5317                 2.4153                 1.9152
 IR Inten    --     11.1249               262.9502                12.1992

                     73                     74                     75
                      A                      A                      A
 Frequencies --   1460.2266              1492.4073              1500.1320
 Red. masses --      1.3037                 1.2123                 1.1069
 Frc consts  --      1.6378                 1.5909                 1.4676
 IR Inten    --     21.6469                17.6674                 7.0031

                     76                     77                     78
                      A                      A                      A
 Frequencies --   1512.3292              1517.7942              1520.1530
 Red. masses --      1.0561                 1.0592                 1.0652
 Frc consts  --      1.4232                 1.4377                 1.4503
 IR Inten    --      9.5199                 0.4984                 6.3639

                     79                     80                     81
                      A                      A                      A
 Frequencies --   1524.5720              1527.1176              1532.7668
 Red. masses --      1.0676                 1.0522                 1.0707
 Frc consts  --      1.4620                 1.4457                 1.4821
 IR Inten    --      2.9134                 5.2020                14.4355

                     82                     83                     84
                      A                      A                      A
 Frequencies --   1533.9790              1535.2491              1543.3758
 Red. masses --      1.0586                 1.0504                 1.0516
 Frc consts  --      1.4676                 1.4587                 1.4758
 IR Inten    --      2.8485                14.1610                 7.4844

                     85                     86                     87
                      A                      A                      A
 Frequencies --   1546.3907              1565.8321              1638.9576
 Red. masses --      1.0992                 1.2212                 1.3197
 Frc consts  --      1.5488                 1.7641                 2.0887
 IR Inten    --     18.7542                29.8429               115.3094

                     88                     89                     90
                      A                      A                      A
 Frequencies --   1739.5933              3000.0269              3032.4567
 Red. masses --      9.0061                 1.0719                 1.0417
 Frc consts  --     16.0576                 5.6841                 5.6441
 IR Inten    --    266.5158                41.3274                28.1778

                     91                     92                     93
                      A                      A                      A
 Frequencies --   3040.6038              3044.2816              3053.7337
 Red. masses --      1.0406                 1.0671                 1.0398
 Frc consts  --      5.6683                 5.8267                 5.7132
 IR Inten    --     81.7467                21.2318                18.0883

                     94                     95                     96
                      A                      A                      A
 Frequencies --   3075.3138              3079.6165              3086.0066
 Red. masses --      1.0388                 1.1020                 1.0638
 Frc consts  --      5.7884                 6.1580                 5.9692
 IR Inten    --     14.7426                47.4248                32.4140

                     97                     98                     99
                      A                      A                      A
 Frequencies --   3086.9058              3087.2644              3089.7344
 Red. masses --      1.0925                 1.1022                 1.0702
 Frc consts  --      6.1338                 6.1893                 6.0194
 IR Inten    --      8.6036                23.5286                 2.5114

                    100                    101                    102
                      A                      A                      A
 Frequencies --   3103.0634              3107.1672              3115.5660
 Red. masses --      1.0869                 1.0837                 1.1010
 Frc consts  --      6.1665                 6.1643                 6.2968
 IR Inten    --     22.1460                23.7978                33.6718

                    103                    104                    105
                      A                      A                      A
 Frequencies --   3132.6100              3135.1921              3141.2321
 Red. masses --      1.1050                 1.1012                 1.0972
 Frc consts  --      6.3891                 6.3772                 6.3789
 IR Inten    --      4.0587                84.5544                 3.8642

                    106                    107                    108
                      A                      A                      A
 Frequencies --   3153.6032              3167.1238              3199.9133
 Red. masses --      1.0985                 1.1012                 1.0929
 Frc consts  --      6.4368                 6.5081                 6.5931
 IR Inten    --      6.0679                10.7744                12.9008

                    109                    110                    111
                      A                      A                      A
 Frequencies --   3201.3277              3381.1615              3645.4258
 Red. masses --      1.0954                 1.0601                 1.0910
 Frc consts  --      6.6145                 7.1407                 8.5420
 IR Inten    --      6.1377               469.5379                75.8890

 - Thermochemistry -
 -------------------
 Temperature   298.150 Kelvin.  Pressure   1.00000 Atm.
 Atom     1 has atomic number  6 and mass  12.00000

 Molecular mass:   245.15618 amu.
 Principal axes and moments of inertia in atomic units:
                           1         2         3
     Eigenvalues --  2624.386006967.852847971.23792
           X            0.99993  -0.01074  -0.00502
           Y            0.01081   0.99982   0.01568
           Z            0.00485  -0.01573   0.99986
 This molecule is an asymmetric top.
 Rotational symmetry number  1.
 Warning -- assumption of classical behavior for rotation
           may cause significant error
 Rotational temperatures (Kelvin)      0.03300     0.01243     0.01087
 Rotational constants (GHZ):           0.68768     0.25901     0.22641
 Zero-point vibrational energy     911250.4 (Joules/Mol)
                                  217.79408 (Kcal/Mol)
 Warning -- explicit consideration of  31 degrees of freedom as
           vibrations may cause significant error
 Vibrational temperatures:     32.08    37.33    73.97    98.63   106.19
          (Kelvin)            143.79   153.42   165.55   179.03   202.65
                              218.40   264.61   315.18   333.84   341.16
                              361.97   370.98   406.61   472.67   493.04
                              534.74   551.95   607.60   628.30   654.42
                              704.60   741.73   764.99   806.35   849.68
                              871.12   988.98  1024.07  1138.04  1142.80
                             1167.36  1188.02  1281.41  1320.71  1327.07
                             1335.74  1392.12  1420.85  1470.23  1502.52
                             1532.23  1562.96  1565.07  1582.14  1634.38
                             1638.70  1645.26  1673.02  1697.96  1706.12
                             1733.73  1799.56  1850.59  1874.04  1880.40
                             1910.10  1951.55  1964.87  1986.97  1992.90
                             2012.96  2053.15  2072.72  2079.81  2083.13
                             2086.41  2093.40  2100.94  2147.24  2158.36
                             2175.90  2183.77  2187.16  2193.52  2197.18
                             2205.31  2207.05  2208.88  2220.57  2224.91
                             2252.88  2358.09  2502.89  4316.37  4363.03
                             4374.75  4380.04  4393.64  4424.69  4430.88
                             4440.08  4441.37  4441.88  4445.44  4464.62
                             4470.52  4482.60  4507.13  4510.84  4519.53
                             4537.33  4556.78  4603.96  4606.00  4864.74
                             5244.95

 Zero-point correction=                           0.347077 (Hartree/Particle)
 Thermal correction to Energy=                    0.366515
 Thermal correction to Enthalpy=                  0.367459
 Thermal correction to Gibbs Free Energy=         0.297913
 Sum of electronic and zero-point Energies=          -1070.414766
 Sum of electronic and thermal Energies=             -1070.395328
 Sum of electronic and thermal Enthalpies=           -1070.394384
 Sum of electronic and thermal Free Energies=        -1070.463930

                     E (Thermal)             CV                S
                      KCal/Mol        Cal/Mol-Kelvin    Cal/Mol-Kelvin
 Total                  229.992             70.493            146.372
 Electronic               0.000              0.000              0.000
 Translational            0.889              2.981             42.391
 Rotational               0.889              2.981             33.344
 Vibrational            228.214             64.532             70.637
 Vibration     1          0.593              1.985              6.418
 Vibration     2          0.593              1.985              6.118
 Vibration     3          0.596              1.977              4.762
 Vibration     4          0.598              1.969              4.195
 Vibration     5          0.599              1.966              4.049
 Vibration     6          0.604              1.949              3.456
 Vibration     7          0.606              1.944              3.329
 Vibration     8          0.608              1.937              3.182
 Vibration     9          0.610              1.929              3.030
 Vibration    10          0.615              1.912              2.792
 Vibration    11          0.619              1.901              2.650
 Vibration    12          0.631              1.862              2.288
 Vibration    13          0.647              1.812              1.967
 Vibration    14          0.653              1.792              1.863
 Vibration    15          0.656              1.784              1.824
 Vibration    16          0.664              1.760              1.719
 Vibration    17          0.667              1.750              1.676
 Vibration    18          0.682              1.706              1.518
 Vibration    19          0.712              1.619              1.267
 Vibration    20          0.722              1.590              1.200
 Vibration    21          0.743              1.530              1.073
 Vibration    22          0.753              1.505              1.025
 Vibration    23          0.785              1.422              0.884
 Vibration    24          0.797              1.390              0.837
 Vibration    25          0.813              1.350              0.781
 Vibration    26          0.846              1.273              0.684
 Vibration    27          0.871              1.216              0.620
 Vibration    28          0.887              1.180              0.583
 Vibration    29          0.916              1.117              0.523
 Vibration    30          0.948              1.052              0.466
 Vibration    31          0.964              1.020              0.440

 Optimization completed.
    -- Stationary point found.
 Normal termination of Gaussian 16 at Thu Dec 10 23:24:18 2020.

 ----------------------------------------------------------------------
 # B3LYP/6-311++G(d,p) empiricaldispersion=gd3bj scf=xqc pop=npa geom=c
 heck
 ----------------------------------------------------------------------

 --------------------------------------
 CID_61571029_JID_6698_Energie_neutraal
 --------------------------------------
 Structure from the checkpoint file:  "JID_6698.chk"
 Charge =  0 Multiplicity = 1

 SCF Done:  E(RB3LYP) =  -1070.98422852     A.U. after   16 cycles
 Normal termination of Gaussian 16 at Thu Dec 10 23:34:01 2020.

 ----------------------------------------------------------------------
 # B3LYP/6-311++G(d,p) empiricaldispersion=gd3bj scf=xqc pop=npa geom=c
 heck
 ----------------------------------------------------------------------

 ------------------------------------
 CID_61571029_JID_6698_Energie_kation
 ------------------------------------
 Structure from the checkpoint file:  "JID_6698.chk"
 Charge =  1 Multiplicity = 2

 SCF Done:  E(UB3LYP) =  -1070.70778674     A.U. after   29 cycles
 Normal termination of Gaussian 16 at Thu Dec 10 23:59:20 2020.
 Gaussian 16:  ES64L-G16RevA.03 25-Dec-2016

 ----------------------------------------------------------------------
 # B3LYP/6-311++G(d,p) empiricaldispersion=gd3bj scf=xqc pop=npa geom=c
 heck
 ----------------------------------------------------------------------

 -----------------------------------
 CID_61571029_JID_6698_Energie_anion
 -----------------------------------
 Structure from the checkpoint file:  "JID_6698.chk"
 Charge = -1 Multiplicity = 2

                         Standard orientation:
 ---------------------------------------------------------------------
 Center     Atomic      Atomic             Coordinates (Angstroms)
 Number     Number       Type             X           Y           Z
 ---------------------------------------------------------------------
      1          6           0       -0.723718    3.448746    0.725443
      2          6           0       -0.379335    2.704243   -0.568577
      3          6           0        0.637936    1.545165   -0.444247
      4          7           0        0.065921    0.188284   -0.439140
      5          6           0        0.977856   -0.820456   -1.001373
      6          6           0        2.157225   -1.198015   -0.087999
      7          8           0        1.952598   -2.001676    0.821648
      8          7           0        3.377488   -0.590895   -0.249543
      9          6           0        3.775929    0.303661   -1.322304
     10          6           0        4.427999   -0.874222    0.720663
     11          6           0       -0.639591   -0.277675    0.792013
     12          6           0        0.002731    0.161311    2.114759
     13          6           0       -2.144756    0.087078    0.776720
     14          6           0       -2.963268   -0.557039   -0.329132
     15         16           0       -4.400651   -1.347551   -0.036755
     16          7           0       -2.445146   -0.398672   -1.558977
     17          1           0       -1.267011    2.827474    1.442407
     18          1           0       -1.349436    4.321636    0.510070
     19          1           0        0.186192    3.806742    1.221873
     20          1           0       -1.288083    2.329408   -1.053297
     21          1           0        0.047755    3.437666   -1.264282
     22          1           0        1.278750    1.582911   -1.328800
     23          1           0        1.301082    1.720143    0.417958
     24          1           0        0.413029   -1.746441   -1.135280
     25          1           0        1.285412   -0.479291   -1.992497
     26          1           0        3.928371    1.325568   -0.949629
     27          1           0        4.722546   -0.043302   -1.754968
     28          1           0        3.036342    0.333329   -2.118766
     29          1           0        4.017093   -1.517967    1.495747
     30          1           0        5.273211   -1.378292    0.234868
     31          1           0        4.791486    0.061045    1.164748
     32          1           0       -0.575059   -1.368087    0.762763
     33          1           0       -0.070660    1.240074    2.277537
     34          1           0       -0.511623   -0.334039    2.944374
     35          1           0        1.052394   -0.134920    2.156461
     36          1           0       -2.583217   -0.215492    1.728562
     37          1           0       -2.269532    1.172327    0.699884
     38          1           0       -1.486088   -0.048706   -1.626067
     39          1           0       -2.905201   -0.845362   -2.340949
 ---------------------------------------------------------------------

 SCF Done:  E(UB3LYP) =  -1070.98314707     A.U. after   33 cycles
 SCF Done:  E(UB3LYP) =  -1070.98314707     a.u. after    1 cycles

 The electronic state is 2-A.
 Alpha  occ. eigenvalues --  -88.69652 -18.99664 -14.26037 -14.24503 -14.23326
 Alpha  occ. eigenvalues --  -10.18178 -10.15947 -10.12094 -10.11949 -10.11054
 Alpha  occ. eigenvalues --  -10.10744 -10.10721 -10.08814 -10.08097 -10.07665
 Alpha  occ. eigenvalues --  -10.07199  -7.78426  -5.74774  -5.74354  -5.73933
 Alpha  occ. eigenvalues --   -0.95104  -0.85707  -0.84822  -0.83623  -0.70678
 Alpha  occ. eigenvalues --   -0.69504  -0.65478  -0.64088  -0.62851  -0.60451
 Alpha  occ. eigenvalues --   -0.59927  -0.56927  -0.52357  -0.49132  -0.47794
 Alpha  occ. eigenvalues --   -0.45632  -0.44359  -0.43036  -0.41079  -0.39704
 Alpha  occ. eigenvalues --   -0.38513  -0.38009  -0.35990  -0.35309  -0.34888
 Alpha  occ. eigenvalues --   -0.34412  -0.32587  -0.32481  -0.31703  -0.31582
 Alpha  occ. eigenvalues --   -0.31299  -0.30911  -0.29925  -0.29459  -0.28051
 Alpha  occ. eigenvalues --   -0.27676  -0.26907  -0.25953  -0.25599  -0.25102
 Alpha  occ. eigenvalues --   -0.24243  -0.23938  -0.18182  -0.15872  -0.14135
 Alpha  occ. eigenvalues --   -0.13255  -0.11579   0.03396
 Alpha virt. eigenvalues --    0.05166   0.06378   0.06582   0.07435   0.07930
 Alpha virt. eigenvalues --    0.08480   0.09129   0.09325   0.09750   0.10141
 Alpha virt. eigenvalues --    0.10679   0.11185   0.11562   0.11857   0.12061

  Beta  occ. eigenvalues --  -88.69648 -18.99661 -14.26033 -14.24483 -14.23327
  Beta  occ. eigenvalues --  -10.18175 -10.15815 -10.12083 -10.11932 -10.10984
  Beta  occ. eigenvalues --  -10.10713 -10.10697 -10.08820 -10.08073 -10.07649
  Beta  occ. eigenvalues --  -10.07195  -7.78422  -5.74776  -5.74336  -5.73930
  Beta  occ. eigenvalues --   -0.95098  -0.85627  -0.84805  -0.83580  -0.70639
  Beta  occ. eigenvalues --   -0.69468  -0.65381  -0.64034  -0.62777  -0.60409
  Beta  occ. eigenvalues --   -0.59891  -0.56885  -0.52301  -0.49045  -0.47742
  Beta  occ. eigenvalues --   -0.45563  -0.44322  -0.42998  -0.41035  -0.39660
  Beta  occ. eigenvalues --   -0.38468  -0.37977  -0.35931  -0.35251  -0.34850
  Beta  occ. eigenvalues --   -0.34368  -0.32521  -0.32454  -0.31660  -0.31529
  Beta  occ. eigenvalues --   -0.31247  -0.30877  -0.29852  -0.29413  -0.28019
  Beta  occ. eigenvalues --   -0.27645  -0.26799  -0.25861  -0.25546  -0.25048
  Beta  occ. eigenvalues --   -0.24188  -0.23880  -0.18171  -0.15845  -0.14021
  Beta  occ. eigenvalues --   -0.13190  -0.11563
  Beta virt. eigenvalues --    0.05878   0.06165   0.06900   0.07066   0.07831
  Beta virt. eigenvalues --    0.08347   0.08772   0.09447   0.09560   0.09949
  Beta virt. eigenvalues --    0.10387   0.10903   0.11417   0.11676   0.11979

 Mulliken charges and spin densities:
               1          2
     1  C   -0.128789  -0.458114
     2  C   -0.066749  -0.213325
     3  C   -0.066351  -0.129612
     4  N    0.102906   0.028568
     5  C    0.291767  -0.580507
     6  C   -0.728754   0.495307
     7  O   -0.296741  -0.007567
     8  N   -0.119260   0.205196
     9  C    1.459609  -1.784028
    10  C    0.469784  -0.729117
    11  C   -0.232170   0.202539
    12  C   -0.381336  -0.161932
    13  C   -0.005547  -0.423303
    14  C    0.153019   0.241058
    15  S   -0.885865   0.009976
    16  N   -0.237552   0.003653
    17  H    0.091523   0.056795
    18  H    0.051914   0.092263
    19  H   -0.095354   0.243431
    20  H    0.019749   0.139642
    21  H   -0.419395   0.598385
    22  H    0.140736   0.014458
    23  H    0.253960  -0.113830
    24  H    0.196690   0.005679
    25  H   -0.143639   0.283122
    26  H   -0.409534   0.600994
    27  H   -0.531830   0.693656
    28  H   -0.721534   0.858500
    29  H    0.114150   0.061686
    30  H   -0.064484   0.224540
    31  H   -0.210740   0.355011
    32  H    0.206143  -0.011217
    33  H    0.126565   0.018674
    34  H    0.113602   0.021237
    35  H    0.172239   0.000478
    36  H    0.183151  -0.010611
    37  H    0.104769   0.017438
    38  H    0.282566   0.090022
    39  H    0.210782   0.060855
 Sum of Mulliken charges =  -1.00000   1.00000

 Dipole moment (field-independent basis, Debye):
    X=             -2.6766    Y=             -0.9921    Z=              3.1009  Tot=              4.2147
 Quadrupole moment (field-independent basis, Debye-Ang):
   XX=           -211.9794   YY=           -157.1535   ZZ=           -142.8336
   XY=            -15.9204   XZ=             13.1576   YZ=             10.3730

 Summary of Natural Population Analysis:

                                       Natural Population
                Natural  -----------------------------------------------
    Atom  No    Charge         Core      Valence    Rydberg      Total
 -----------------------------------------------------------------------
      C    1   -0.28592      0.99966     2.28114    0.00512     3.28592
      C    2   -0.20075      0.99963     2.19235    0.00876     3.20075
      C    3   -0.08829      0.99958     2.07504    0.01368     3.08829
      N    4   -0.29609      0.99972     2.78075    0.01562     3.79609
      C    5   -0.11572      0.99956     2.10477    0.01139     3.11572
      C    6    0.33370      0.99963     1.64378    0.02288     2.66630
      O    7   -0.33498      0.99988     3.32985    0.00525     4.33498
      N    8   -0.24863      0.99966     2.73854    0.01044     3.74863
      C    9   -0.17461      0.99963     2.16654    0.00844     3.17461
      C   10   -0.18012      0.99963     2.17269    0.00779     3.18012
      C   11   -0.00357      0.99958     1.99235    0.01164     3.00357
      C   12   -0.29497      0.99963     2.29060    0.00473     3.29497
      C   13   -0.22847      0.99953     2.21908    0.00986     3.22847
      C   14    0.08701      0.99966     1.89413    0.01921     2.91299
      S   15   -0.12395      4.99953     3.11044    0.01398     8.12395
      N   16   -0.38331      0.99965     2.87312    0.01054     3.88331
      H   17    0.09340      0.00000     0.40571    0.00089     0.40660
      H   18    0.09910      0.00000     0.40024    0.00066     0.40090
      H   19    0.09840      0.00000     0.40073    0.00087     0.40160
      H   20    0.09895      0.00000     0.39955    0.00149     0.40105
      H   21    0.10204      0.00000     0.39655    0.00141     0.39796
      H   22    0.10241      0.00000     0.39488    0.00271     0.39759
      H   23    0.08782      0.00000     0.41027    0.00191     0.41218
      H   24    0.10574      0.00000     0.39318    0.00108     0.39426
      H   25    0.10185      0.00000     0.39667    0.00148     0.39815
      H   26    0.09947      0.00000     0.39744    0.00309     0.40053
      H   27    0.09844      0.00000     0.39937    0.00219     0.40156
      H   28    0.10399      0.00000     0.39349    0.00252     0.39601
      H   29    0.11480      0.00000     0.38416    0.00103     0.38520
      H   30    0.09400      0.00000     0.40501    0.00099     0.40600
      H   31    0.09574      0.00000     0.40324    0.00102     0.40426
      H   32    0.10623      0.00000     0.39224    0.00154     0.39377
      H   33    0.09719      0.00000     0.40199    0.00082     0.40281
      H   34    0.10123      0.00000     0.39804    0.00073     0.39877
      H   35    0.11124      0.00000     0.38793    0.00082     0.38876
      H   36    0.11287      0.00000     0.38611    0.00102     0.38713
      H   37    0.11139      0.00000     0.38717    0.00144     0.38861
      H   38    0.20907      0.00000     0.28793    0.00300     0.29093
      H   39    0.19329      0.00000     0.30472    0.00199     0.30671
 =======================================================================
   * Total *    0.00000     19.99416    46.79180    0.21405    67.00000

 Normal termination of Gaussian 16 at Fri Dec 11 00:28:20 2020.
