 Gaussian 16, Revision A.03,

 -----------------------------------------------------------
 # opt freq B3LYP/6-31G(d) empiricaldispersion=gd3bj scf=xqc
 -----------------------------------------------------------

 -------------------------------
 CID_128068357_JID_6193_neutraal
 -------------------------------
 Symbolic Z-matrix:
 Charge =  0 Multiplicity = 1

 SCF Done:  E(RB3LYP) =  -1110.37435344     A.U. after   15 cycles
 SCF Done:  E(RB3LYP) =  -1110.38466876     A.U. after   13 cycles
 SCF Done:  E(RB3LYP) =  -1110.38623637     A.U. after   12 cycles
 SCF Done:  E(RB3LYP) =  -1110.38643616     A.U. after   12 cycles
 SCF Done:  E(RB3LYP) =  -1110.38801498     A.U. after   12 cycles
 SCF Done:  E(RB3LYP) =  -1110.38824387     A.U. after   12 cycles
 SCF Done:  E(RB3LYP) =  -1110.38834102     A.U. after   12 cycles
 SCF Done:  E(RB3LYP) =  -1110.38858236     A.U. after   11 cycles
 SCF Done:  E(RB3LYP) =  -1110.38864275     A.U. after   11 cycles
 SCF Done:  E(RB3LYP) =  -1110.38865443     A.U. after    9 cycles
 SCF Done:  E(RB3LYP) =  -1110.38865876     A.U. after   10 cycles
 SCF Done:  E(RB3LYP) =  -1110.38866004     A.U. after   10 cycles
 SCF Done:  E(RB3LYP) =  -1110.38866114     A.U. after    9 cycles
 SCF Done:  E(RB3LYP) =  -1110.38866103     A.U. after    9 cycles
 SCF Done:  E(RB3LYP) =  -1110.38866109     A.U. after    7 cycles
 SCF Done:  E(RB3LYP) =  -1110.38866106     A.U. after    7 cycles
 Optimization completed.
    -- Stationary point found.
 Normal termination of Gaussian 16 at Thu Dec 10 21:26:49 2020.

 --------------------------------------------------------------------
 #N Geom=AllCheck Guess=TCheck SCRF=Check GenChk RB3LYP/6-31G(d) Freq
 --------------------------------------------------------------------

 Structure from the checkpoint file:  "JID_6193.chk"
 -------------------------------
 CID_128068357_JID_6193_neutraal
 -------------------------------
 Charge =  0 Multiplicity = 1

 SCF Done:  E(RB3LYP) =  -1110.38866106     A.U. after    1 cycles

  Exact polarizability: 161.661  -1.382 142.878   1.700   1.719 123.142
 Approx polarizability: 203.102   1.649 203.350   5.623   1.550 205.227

                      1                      2                      3
                      A                      A                      A
 Frequencies --      9.5422                50.3494                65.1919
 Red. masses --      5.0792                 3.2704                 3.6161
 Frc consts  --      0.0003                 0.0049                 0.0091
 IR Inten    --      0.5741                 0.9603                 1.6454

                      4                      5                      6
                      A                      A                      A
 Frequencies --     73.5296               103.9592               120.0911
 Red. masses --      3.8158                 2.2523                 3.1607
 Frc consts  --      0.0122                 0.0143                 0.0269
 IR Inten    --      1.1497                 0.3370                 2.1976

                      7                      8                      9
                      A                      A                      A
 Frequencies --    145.6809               184.1253               198.3282
 Red. masses --      3.6913                 3.1078                 3.5942
 Frc consts  --      0.0462                 0.0621                 0.0833
 IR Inten    --     11.3965                 0.8887                 0.5191

                     10                     11                     12
                      A                      A                      A
 Frequencies --    221.9965               235.2981               249.3744
 Red. masses --      2.4992                 1.9400                 2.4314
 Frc consts  --      0.0726                 0.0633                 0.0891
 IR Inten    --      3.2993                 1.0615                 1.1651

                     13                     14                     15
                      A                      A                      A
 Frequencies --    278.5700               304.5373               328.4154
 Red. masses --      5.4840                 2.3406                 2.8070
 Frc consts  --      0.2507                 0.1279                 0.1784
 IR Inten    --      1.9502                 0.5255                 7.9410

                     16                     17                     18
                      A                      A                      A
 Frequencies --    334.6767               364.3761               402.0575
 Red. masses --      3.8602                 2.4706                 2.6367
 Frc consts  --      0.2547                 0.1933                 0.2511
 IR Inten    --      7.6036                 1.4559                 7.7116

                     19                     20                     21
                      A                      A                      A
 Frequencies --    413.7531               429.0155               476.4907
 Red. masses --      2.8217                 2.7010                 3.6453
 Frc consts  --      0.2846                 0.2929                 0.4876
 IR Inten    --      0.3208                 1.9135                 3.6376

                     22                     23                     24
                      A                      A                      A
 Frequencies --    482.5841               500.3692               537.0896
 Red. masses --      2.8948                 3.4144                 3.5941
 Frc consts  --      0.3972                 0.5037                 0.6108
 IR Inten    --      0.1194                18.7862                 9.9581

                     25                     26                     27
                      A                      A                      A
 Frequencies --    548.7899               661.4949               706.7179
 Red. masses --      2.7974                 3.6497                 3.6230
 Frc consts  --      0.4964                 0.9409                 1.0661
 IR Inten    --     20.0448                28.3386                97.4023

                     28                     29                     30
                      A                      A                      A
 Frequencies --    782.2667               826.8767               833.9526
 Red. masses --      1.3325                 2.2004                 3.5038
 Frc consts  --      0.4804                 0.8864                 1.4357
 IR Inten    --     15.1071                40.7311                13.5675

                     31                     32                     33
                      A                      A                      A
 Frequencies --    848.0105               866.6285               878.7457
 Red. masses --      2.0189                 2.1342                 1.3976
 Frc consts  --      0.8554                 0.9444                 0.6359
 IR Inten    --     10.8748                 4.4997                 1.2766

                     34                     35                     36
                      A                      A                      A
 Frequencies --    894.9000               909.2986               935.0006
 Red. masses --      1.5973                 2.2334                 2.5719
 Frc consts  --      0.7537                 1.0880                 1.3247
 IR Inten    --      0.4769                 2.3294                60.8642

                     37                     38                     39
                      A                      A                      A
 Frequencies --    937.8020               966.2823               987.2923
 Red. masses --      3.3590                 1.6867                 2.1163
 Frc consts  --      1.7405                 0.9279                 1.2154
 IR Inten    --     29.2945                 2.5507                 5.1416

                     40                     41                     42
                      A                      A                      A
 Frequencies --   1030.9504              1038.2676              1047.9315
 Red. masses --     10.0906                 2.1754                 2.1573
 Frc consts  --      6.3189                 1.3817                 1.3958
 IR Inten    --     56.7459                22.5501                 6.7740

                     43                     44                     45
                      A                      A                      A
 Frequencies --   1060.2233              1069.1091              1075.0204
 Red. masses --      1.9897                 2.1479                 1.8873
 Frc consts  --      1.3177                 1.4464                 1.2851
 IR Inten    --      7.1292                14.6919                25.3787

                     46                     47                     48
                      A                      A                      A
 Frequencies --   1089.5254              1100.8554              1107.2908
 Red. masses --      2.5049                 2.2987                 1.9634
 Frc consts  --      1.7519                 1.6413                 1.4184
 IR Inten    --      3.2624                12.2833                30.3575

                     49                     50                     51
                      A                      A                      A
 Frequencies --   1113.1888              1130.1889              1142.9598
 Red. masses --      4.6098                 2.7563                 1.8590
 Frc consts  --      3.3657                 2.0743                 1.4308
 IR Inten    --     64.8933                57.2581                10.2221

                     52                     53                     54
                      A                      A                      A
 Frequencies --   1164.9566              1177.3530              1179.3667
 Red. masses --      1.0713                 1.7230                 1.3371
 Frc consts  --      0.8566                 1.4072                 1.0957
 IR Inten    --      0.8987                 0.6099                 5.3278

                     55                     56                     57
                      A                      A                      A
 Frequencies --   1217.5865              1238.9764              1251.7646
 Red. masses --      1.4986                 1.5277                 1.4463
 Frc consts  --      1.3090                 1.3817                 1.3352
 IR Inten    --      4.3523                 8.8446                 6.3286

                     58                     59                     60
                      A                      A                      A
 Frequencies --   1288.7064              1290.8352              1297.3597
 Red. masses --      1.8717                 1.4095                 1.3868
 Frc consts  --      1.8314                 1.3837                 1.3753
 IR Inten    --     70.1276                25.9053                16.7690

                     61                     62                     63
                      A                      A                      A
 Frequencies --   1312.7389              1316.3283              1326.4246
 Red. masses --      1.2773                 1.2260                 2.0645
 Frc consts  --      1.2969                 1.2516                 2.1401
 IR Inten    --      3.0417                 1.7154                65.1044

                     64                     65                     66
                      A                      A                      A
 Frequencies --   1336.9827              1348.2317              1382.0002
 Red. masses --      1.2153                 1.2216                 1.4255
 Frc consts  --      1.2799                 1.3083                 1.6041
 IR Inten    --     24.3659                 8.2977                 1.1549

                     67                     68                     69
                      A                      A                      A
 Frequencies --   1383.8177              1388.2928              1405.8118
 Red. masses --      1.3511                 1.4046                 1.3682
 Frc consts  --      1.5244                 1.5950                 1.5932
 IR Inten    --     10.0105                 2.4436                 5.4371

                     70                     71                     72
                      A                      A                      A
 Frequencies --   1410.0979              1418.2936              1424.2254
 Red. masses --      1.4008                 1.4377                 1.3472
 Frc consts  --      1.6411                 1.7039                 1.6100
 IR Inten    --      0.8169                 0.7151                 2.2544

                     73                     74                     75
                      A                      A                      A
 Frequencies --   1441.4049              1443.7483              1503.5510
 Red. masses --      1.2983                 1.2547                 1.0936
 Frc consts  --      1.5892                 1.5409                 1.4566
 IR Inten    --      3.3912                 5.2290                 0.5796

                     76                     77                     78
                      A                      A                      A
 Frequencies --   1514.4049              1521.8391              1524.0905
 Red. masses --      1.0860                 1.0611                 1.0968
 Frc consts  --      1.4675                 1.4479                 1.5011
 IR Inten    --      6.6206                 0.3664                 8.1652

                     79                     80                     81
                      A                      A                      A
 Frequencies --   1524.3317              1531.9136              1534.6780
 Red. masses --      1.0730                 1.0828                 1.0520
 Frc consts  --      1.4690                 1.4972                 1.4598
 IR Inten    --      2.4575                 1.7338                 8.7621

                     82                     83                     84
                      A                      A                      A
 Frequencies --   1538.3685              1540.6555              1561.1329
 Red. masses --      1.0734                 1.0800                 1.1030
 Frc consts  --      1.4967                 1.5104                 1.5838
 IR Inten    --      4.2020                 1.8350                 2.7642

                     85                     86                     87
                      A                      A                      A
 Frequencies --   2998.3443              3033.4994              3035.1389
 Red. masses --      1.0828                 1.0683                 1.0653
 Frc consts  --      5.7355                 5.7919                 5.7820
 IR Inten    --     22.8288                 6.4742                 8.8181

                     88                     89                     90
                      A                      A                      A
 Frequencies --   3038.2750              3038.5102              3045.8571
 Red. masses --      1.0617                 1.0488                 1.0677
 Frc consts  --      5.7742                 5.7049                 5.8363
 IR Inten    --      9.1939                44.5046                37.4153

                     91                     92                     93
                      A                      A                      A
 Frequencies --   3049.8926              3052.0969              3052.8056
 Red. masses --      1.0616                 1.0689                 1.0617
 Frc consts  --      5.8182                 5.8664                 5.8296
 IR Inten    --     28.7441                26.9420                63.4854

                     94                     95                     96
                      A                      A                      A
 Frequencies --   3060.9660              3085.5604              3089.9852
 Red. masses --      1.0665                 1.0948                 1.0983
 Frc consts  --      5.8877                 6.1415                 6.1786
 IR Inten    --     52.8048                47.4632                26.0960

                     97                     98                     99
                      A                      A                      A
 Frequencies --   3091.3643              3096.8076              3110.6133
 Red. masses --      1.1005                 1.1043                 1.1014
 Frc consts  --      6.1966                 6.2398                 6.2790
 IR Inten    --     20.7254                51.0347                52.4286

                    100                    101                    102
                      A                      A                      A
 Frequencies --   3117.5990              3127.5278              3137.8061
 Red. masses --      1.0982                 1.1039                 1.0997
 Frc consts  --      6.2890                 6.3619                 6.3796
 IR Inten    --     46.9606                13.0249                 6.7596

                    103                    104                    105
                      A                      A                      A
 Frequencies --   3144.4835              3157.3173              3158.8050
 Red. masses --      1.0912                 1.0932                 1.0890
 Frc consts  --      6.3570                 6.4210                 6.4022
 IR Inten    --      6.3966                 1.5043                 8.5244

 - Thermochemistry -
 -------------------
 Temperature   298.150 Kelvin.  Pressure   1.00000 Atm.
 Atom     1 has atomic number  6 and mass  12.00000

 Molecular mass:   247.12422 amu.
 Principal axes and moments of inertia in atomic units:
                           1         2         3
     Eigenvalues --  2567.803374769.282586245.69473
           X            0.99999   0.00404   0.00005
           Y           -0.00404   0.99988   0.01526
           Z            0.00002  -0.01526   0.99988
 This molecule is an asymmetric top.
 Rotational symmetry number  1.
 Warning -- assumption of classical behavior for rotation
           may cause significant error
 Rotational temperatures (Kelvin)      0.03373     0.01816     0.01387
 Rotational constants (GHZ):           0.70283     0.37841     0.28896
 Zero-point vibrational energy     852713.1 (Joules/Mol)
                                  203.80332 (Kcal/Mol)
 Warning -- explicit consideration of  25 degrees of freedom as
           vibrations may cause significant error
 Vibrational temperatures:     13.73    72.44    93.80   105.79   149.57
          (Kelvin)            172.78   209.60   264.92   285.35   319.40
                              338.54   358.79   400.80   438.16   472.52
                              481.53   524.26   578.47   595.30   617.26
                              685.56   694.33   719.92   772.75   789.59
                              951.74  1016.81  1125.51  1189.69  1199.87
                             1220.10  1246.89  1264.32  1287.56  1308.28
                             1345.26  1349.29  1390.26  1420.49  1483.31
                             1493.84  1507.74  1525.42  1538.21  1546.71
                             1567.58  1583.89  1593.14  1601.63  1626.09
                             1644.46  1676.11  1693.95  1696.85  1751.84
                             1782.61  1801.01  1854.16  1857.22  1866.61
                             1888.74  1893.90  1908.43  1923.62  1939.80
                             1988.39  1991.00  1997.44  2022.65  2028.82
                             2040.61  2049.14  2073.86  2077.23  2163.27
                             2178.89  2189.59  2192.83  2193.17  2204.08
                             2208.06  2213.37  2216.66  2246.12  4313.95
                             4364.53  4366.89  4371.40  4371.74  4382.31
                             4388.12  4391.29  4392.31  4404.05  4439.43
                             4445.80  4447.78  4455.62  4475.48  4485.53
                             4499.81  4514.60  4524.21  4542.68  4544.82

 Zero-point correction=                           0.324781 (Hartree/Particle)
 Thermal correction to Energy=                    0.341200
 Thermal correction to Enthalpy=                  0.342144
 Thermal correction to Gibbs Free Energy=         0.279440
 Sum of electronic and zero-point Energies=          -1110.063880
 Sum of electronic and thermal Energies=             -1110.047461
 Sum of electronic and thermal Enthalpies=           -1110.046517
 Sum of electronic and thermal Free Energies=        -1110.109221

                     E (Thermal)             CV                S
                      KCal/Mol        Cal/Mol-Kelvin    Cal/Mol-Kelvin
 Total                  214.106             62.778            131.972
 Electronic               0.000              0.000              0.000
 Translational            0.889              2.981             42.415
 Rotational               0.889              2.981             32.703
 Vibrational            212.329             56.816             56.854
 Vibration     1          0.593              1.987              8.104
 Vibration     2          0.595              1.977              4.804
 Vibration     3          0.597              1.971              4.294
 Vibration     4          0.599              1.966              4.057
 Vibration     5          0.605              1.946              3.379
 Vibration     6          0.609              1.933              3.099
 Vibration     7          0.617              1.907              2.728
 Vibration     8          0.631              1.861              2.286
 Vibration     9          0.637              1.842              2.149
 Vibration    10          0.648              1.808              1.943
 Vibration    11          0.655              1.787              1.838
 Vibration    12          0.662              1.764              1.735
 Vibration    13          0.679              1.713              1.542
 Vibration    14          0.695              1.665              1.392
 Vibration    15          0.712              1.619              1.268
 Vibration    16          0.716              1.606              1.237
 Vibration    17          0.738              1.546              1.103
 Vibration    18          0.768              1.466              0.955
 Vibration    19          0.777              1.440              0.913
 Vibration    20          0.790              1.407              0.862
 Vibration    21          0.833              1.302              0.720
 Vibration    22          0.839              1.289              0.703
 Vibration    23          0.856              1.249              0.657
 Vibration    24          0.892              1.168              0.572
 Vibration    25          0.904              1.142              0.547

 Optimization completed.
    -- Stationary point found.
 Normal termination of Gaussian 16 at Thu Dec 10 21:42:23 2020.

 ----------------------------------------------------------------------
 # B3LYP/6-311++G(d,p) empiricaldispersion=gd3bj scf=xqc pop=npa geom=c
 heck
 ----------------------------------------------------------------------

 ---------------------------------------
 CID_128068357_JID_6193_Energie_neutraal
 ---------------------------------------
 Structure from the checkpoint file:  "JID_6193.chk"
 Charge =  0 Multiplicity = 1

 SCF Done:  E(RB3LYP) =  -1110.61671783     A.U. after   16 cycles
 Normal termination of Gaussian 16 at Thu Dec 10 21:51:02 2020.

 ----------------------------------------------------------------------
 # B3LYP/6-311++G(d,p) empiricaldispersion=gd3bj scf=xqc pop=npa geom=c
 heck
 ----------------------------------------------------------------------

 -------------------------------------
 CID_128068357_JID_6193_Energie_kation
 -------------------------------------
 Structure from the checkpoint file:  "JID_6193.chk"
 Charge =  1 Multiplicity = 2

 SCF Done:  E(UB3LYP) =  -1110.28944506     A.U. after   24 cycles
 Normal termination of Gaussian 16 at Thu Dec 10 22:09:23 2020.
 Gaussian 16:  ES64L-G16RevA.03 25-Dec-2016

 ----------------------------------------------------------------------
 # B3LYP/6-311++G(d,p) empiricaldispersion=gd3bj scf=xqc pop=npa geom=c
 heck
 ----------------------------------------------------------------------

 ------------------------------------
 CID_128068357_JID_6193_Energie_anion
 ------------------------------------
 Structure from the checkpoint file:  "JID_6193.chk"
 Charge = -1 Multiplicity = 2

                         Standard orientation:
 ---------------------------------------------------------------------
 Center     Atomic      Atomic             Coordinates (Angstroms)
 Number     Number       Type             X           Y           Z
 ---------------------------------------------------------------------
      1          6           0       -4.305380   -1.037822    0.329003
      2          6           0       -3.057131   -1.630618   -0.332391
      3          6           0       -2.191423   -0.583063   -1.045078
      4          6           0       -1.517127    0.437313   -0.092234
      5          6           0       -1.946496    1.852344   -0.519762
      6          6           0       -1.318378    2.983019    0.287677
      7          6           0        0.198744    2.842578    0.225987
      8          6           0        0.612585    1.464006    0.723996
      9          7           0       -0.011248    0.379201   -0.090113
     10         16           0        0.675588   -1.117866    0.393066
     11          8           0        0.870397   -1.151542    1.852102
     12          8           0       -0.047087   -2.216230   -0.255972
     13          6           0        2.337521   -1.109616   -0.380991
     14          6           0        2.655469   -0.055420   -1.455048
     15          8           0        3.565272    0.630538   -0.559602
     16          6           0        3.473040   -0.444178    0.408238
     17          1           0       -4.048042   -0.297357    1.096591
     18          1           0       -4.903032   -1.815791    0.816805
     19          1           0       -4.945341   -0.537908   -0.409238
     20          1           0       -2.448080   -2.158676    0.407987
     21          1           0       -3.364782   -2.384613   -1.068082
     22          1           0       -1.433376   -1.076238   -1.652099
     23          1           0       -2.831869   -0.023862   -1.739989
     24          1           0       -1.862717    0.269949    0.939951
     25          1           0       -3.040320    1.883703   -0.455653
     26          1           0       -1.686102    1.974887   -1.579779
     27          1           0       -1.643870    3.955083   -0.100626
     28          1           0       -1.650255    2.927033    1.333963
     29          1           0        0.549678    2.980374   -0.804809
     30          1           0        0.700063    3.596125    0.844452
     31          1           0        1.695750    1.370886    0.641698
     32          1           0        0.338549    1.346424    1.781394
     33          1           0        2.467615   -2.158630   -0.651590
     34          1           0        3.176982   -0.469920   -2.326546
     35          1           0        1.823578    0.576186   -1.774337
     36          1           0        3.227083   -0.095225    1.414790
     37          1           0        4.390643   -1.044369    0.438233
 ---------------------------------------------------------------------

 SCF Done:  E(UB3LYP) =  -1110.60472646     A.U. after   32 cycles

 The electronic state is 2-A.
 Alpha  occ. eigenvalues --  -88.96806 -19.04238 -19.02721 -19.02662 -14.25741
 Alpha  occ. eigenvalues --  -10.14466 -10.14385 -10.13076 -10.12703 -10.11482
 Alpha  occ. eigenvalues --  -10.08145 -10.08067 -10.07662 -10.07321 -10.07252
 Alpha  occ. eigenvalues --  -10.07216  -8.03088  -5.99343  -5.99325  -5.99169
 Alpha  occ. eigenvalues --   -1.02711  -0.96879  -0.91755  -0.84849  -0.72491
 Alpha  occ. eigenvalues --   -0.70952  -0.69450  -0.66710  -0.61902  -0.60718
 Alpha  occ. eigenvalues --   -0.58084  -0.54766  -0.53338  -0.49596  -0.48014
 Alpha  occ. eigenvalues --   -0.46783  -0.44326  -0.43461  -0.41164  -0.39290
 Alpha  occ. eigenvalues --   -0.38008  -0.37691  -0.36644  -0.36016  -0.35545
 Alpha  occ. eigenvalues --   -0.34897  -0.34457  -0.33570  -0.32856  -0.32783
 Alpha  occ. eigenvalues --   -0.29622  -0.29401  -0.27524  -0.27122  -0.26787
 Alpha  occ. eigenvalues --   -0.26051  -0.25836  -0.25171  -0.24589  -0.24198
 Alpha  occ. eigenvalues --   -0.23531  -0.22976  -0.22360  -0.21578  -0.20290
 Alpha  occ. eigenvalues --   -0.18375  -0.16724   0.04072
 Alpha virt. eigenvalues --    0.05532   0.06539   0.07022   0.07959   0.08206
 Alpha virt. eigenvalues --    0.08742   0.09040   0.09598   0.10219   0.10706
 Alpha virt. eigenvalues --    0.11010   0.11566   0.11911   0.12133   0.12672

  Beta  occ. eigenvalues --  -88.96800 -19.04233 -19.02712 -19.02661 -14.25722
  Beta  occ. eigenvalues --  -10.14440 -10.14355 -10.13062 -10.12699 -10.11475
  Beta  occ. eigenvalues --  -10.08127 -10.08049 -10.07635 -10.07318 -10.07246
  Beta  occ. eigenvalues --  -10.07199  -8.03081  -5.99332  -5.99320  -5.99163
  Beta  occ. eigenvalues --   -1.02692  -0.96868  -0.91741  -0.84824  -0.72459
  Beta  occ. eigenvalues --   -0.70927  -0.69409  -0.66687  -0.61842  -0.60682
  Beta  occ. eigenvalues --   -0.58049  -0.54722  -0.53298  -0.49548  -0.47960
  Beta  occ. eigenvalues --   -0.46748  -0.44282  -0.43403  -0.41126  -0.39269
  Beta  occ. eigenvalues --   -0.37984  -0.37668  -0.36613  -0.35979  -0.35517
  Beta  occ. eigenvalues --   -0.34872  -0.34433  -0.33537  -0.32820  -0.32759
  Beta  occ. eigenvalues --   -0.29597  -0.29375  -0.27495  -0.27088  -0.26755
  Beta  occ. eigenvalues --   -0.26025  -0.25810  -0.25142  -0.24566  -0.24178
  Beta  occ. eigenvalues --   -0.23508  -0.22953  -0.22340  -0.21559  -0.20269
  Beta  occ. eigenvalues --   -0.18342  -0.16694
  Beta virt. eigenvalues --    0.06131   0.06842   0.07132   0.07461   0.08391
  Beta virt. eigenvalues --    0.08750   0.08890   0.09446   0.09856   0.10527
  Beta virt. eigenvalues --    0.10946   0.11442   0.11715   0.12019   0.12209

 Mulliken charges and spin densities:
               1          2
     1  C    0.068106  -0.713718
     2  C   -0.566307   0.328596
     3  C   -0.070218  -0.040779
     4  C   -0.329267  -0.351019
     5  C    0.085926  -0.241958
     6  C    0.020379  -0.469976
     7  C   -0.092899  -0.380153
     8  C   -0.030933  -0.378307
     9  N    0.300616   0.076835
    10  S    0.549309  -0.461895
    11  O   -0.033547   0.017089
    12  O   -0.090769  -0.002899
    13  C   -1.579770   1.274798
    14  C    1.063956  -1.391042
    15  O   -0.130245  -0.012123
    16  C    1.000702  -1.275277
    17  H   -0.034794   0.169411
    18  H    0.054963   0.081362
    19  H   -0.077482   0.214800
    20  H    0.186493   0.013849
    21  H    0.085558   0.053739
    22  H    0.053683   0.122390
    23  H    0.017790   0.151837
    24  H    0.271840  -0.053246
    25  H   -0.155217   0.347219
    26  H   -0.060676   0.229942
    27  H   -0.566721   0.764310
    28  H    0.005028   0.119572
    29  H    0.061856   0.071660
    30  H   -0.192065   0.362923
    31  H    0.370473  -0.172867
    32  H    0.108396   0.127546
    33  H   -0.344869   0.674098
    34  H   -0.716785   0.902216
    35  H    0.188184   0.033625
    36  H    0.112416   0.098712
    37  H   -0.533109   0.708728
 Sum of Mulliken charges =  -1.00000   1.00000

 Dipole moment (field-independent basis, Debye):
    X=             -2.6493    Y=             -0.8468    Z=              1.8789  Tot=              3.3565
 Quadrupole moment (field-independent basis, Debye-Ang):
   XX=           -186.9568   YY=           -167.9639   ZZ=           -143.1313
   XY=             16.9520   XZ=              7.6645   YZ=              0.1383

 Summary of Natural Population Analysis:

                                       Natural Population
                Natural  -----------------------------------------------
    Atom  No    Charge         Core      Valence    Rydberg      Total
 -----------------------------------------------------------------------
      C    1   -0.28817      0.99967     2.28378    0.00472     3.28817
      C    2   -0.19033      0.99963     2.18353    0.00717     3.19033
      C    3   -0.19643      0.99960     2.18685    0.00998     3.19643
      C    4   -0.00640      0.99956     1.99393    0.01291     3.00640
      C    5   -0.19049      0.99960     2.18086    0.01002     3.19049
      C    6   -0.19089      0.99962     2.18223    0.00905     3.19089
      C    7   -0.19210      0.99962     2.18324    0.00923     3.19210
      C    8   -0.09842      0.99958     2.08754    0.01130     3.09842
      N    9   -0.36819      0.99972     2.85630    0.01216     3.86819
      S   10    1.09644      4.99924     1.80718    0.09714     6.90356
      O   11   -0.46534      0.99991     3.46033    0.00510     4.46534
      O   12   -0.46254      0.99991     3.45685    0.00578     4.46254
      C   13   -0.23096      0.99953     2.21515    0.01628     3.23096
      C   14   -0.00644      0.99960     1.99401    0.01283     3.00644
      O   15   -0.30288      0.99991     3.29489    0.00808     4.30288
      C   16   -0.00837      0.99960     1.99583    0.01294     3.00837
      H   17    0.09545      0.00000     0.40363    0.00092     0.40455
      H   18    0.09683      0.00000     0.40251    0.00066     0.40317
      H   19    0.09522      0.00000     0.40372    0.00105     0.40478
      H   20    0.10386      0.00000     0.39479    0.00134     0.39614
      H   21    0.09447      0.00000     0.40458    0.00095     0.40553
      H   22    0.11551      0.00000     0.38317    0.00132     0.38449
      H   23    0.09374      0.00000     0.40510    0.00116     0.40626
      H   24    0.08801      0.00000     0.41017    0.00182     0.41199
      H   25    0.10622      0.00000     0.39249    0.00130     0.39378
      H   26    0.09862      0.00000     0.39990    0.00148     0.40138
      H   27    0.10453      0.00000     0.39350    0.00197     0.39547
      H   28    0.09431      0.00000     0.40438    0.00131     0.40569
      H   29    0.09876      0.00000     0.39984    0.00141     0.40124
      H   30    0.10388      0.00000     0.39514    0.00098     0.39612
      H   31    0.10726      0.00000     0.39007    0.00267     0.39274
      H   32    0.09559      0.00000     0.40312    0.00129     0.40441
      H   33    0.12663      0.00000     0.37107    0.00230     0.37337
      H   34    0.09326      0.00000     0.40368    0.00306     0.40674
      H   35    0.09929      0.00000     0.39884    0.00187     0.40071
      H   36    0.09657      0.00000     0.40201    0.00143     0.40343
      H   37    0.09350      0.00000     0.40408    0.00242     0.40650
 =======================================================================
   * Total *   -0.00000     19.99430    46.72828    0.27742    67.00000

 Normal termination of Gaussian 16 at Thu Dec 10 22:33:45 2020.
