 Gaussian 16, Revision A.03,

 -----------------------------------------------------------
 # opt freq B3LYP/6-31G(d) empiricaldispersion=gd3bj scf=xqc
 -----------------------------------------------------------

 -------------------------------
 CID_116496899_JID_5294_neutraal
 -------------------------------
 Symbolic Z-matrix:
 Charge =  0 Multiplicity = 1

 SCF Done:  E(RB3LYP) =  -673.954183747     A.U. after   14 cycles
 SCF Done:  E(RB3LYP) =  -673.958971098     A.U. after   14 cycles
 SCF Done:  E(RB3LYP) =  -673.959570781     A.U. after   12 cycles
 SCF Done:  E(RB3LYP) =  -673.960102169     A.U. after   12 cycles
 SCF Done:  E(RB3LYP) =  -673.960349744     A.U. after   11 cycles
 SCF Done:  E(RB3LYP) =  -673.960449782     A.U. after   12 cycles
 SCF Done:  E(RB3LYP) =  -673.960475081     A.U. after   11 cycles
 SCF Done:  E(RB3LYP) =  -673.960497639     A.U. after    9 cycles
 SCF Done:  E(RB3LYP) =  -673.960503686     A.U. after   10 cycles
 SCF Done:  E(RB3LYP) =  -673.960504933     A.U. after    8 cycles
 SCF Done:  E(RB3LYP) =  -673.960505867     A.U. after    9 cycles
 SCF Done:  E(RB3LYP) =  -673.960506028     A.U. after    8 cycles
 SCF Done:  E(RB3LYP) =  -673.960506099     A.U. after    7 cycles
 SCF Done:  E(RB3LYP) =  -673.960506125     A.U. after    7 cycles
 SCF Done:  E(RB3LYP) =  -673.960506135     A.U. after    6 cycles
 Optimization completed.
    -- Stationary point found.
 Normal termination of Gaussian 16 at Thu Dec 10 15:25:30 2020.

 --------------------------------------------------------------------
 #N Geom=AllCheck Guess=TCheck SCRF=Check GenChk RB3LYP/6-31G(d) Freq
 --------------------------------------------------------------------

 Structure from the checkpoint file:  "JID_5294.chk"
 -------------------------------
 CID_116496899_JID_5294_neutraal
 -------------------------------
 Charge =  0 Multiplicity = 1

 SCF Done:  E(RB3LYP) =  -673.960506135     A.U. after    1 cycles

  Exact polarizability: 166.450   2.688 142.982  -5.172  -6.975  95.018
 Approx polarizability: 228.839  -0.442 218.394  -9.015 -21.180 147.636

                      1                      2                      3
                      A                      A                      A
 Frequencies --     26.3243                48.5200                76.1835
 Red. masses --      3.9238                 3.6140                 4.3620
 Frc consts  --      0.0016                 0.0050                 0.0149
 IR Inten    --      0.6913                 0.1547                 0.2695

                      4                      5                      6
                      A                      A                      A
 Frequencies --     90.9154               103.0062               126.4058
 Red. masses --      3.2354                 2.6072                 2.7007
 Frc consts  --      0.0158                 0.0163                 0.0254
 IR Inten    --      2.8396                 3.9830                 2.3600

                      7                      8                      9
                      A                      A                      A
 Frequencies --    138.6076               185.1747               194.6597
 Red. masses --      1.0690                 2.3542                 3.0734
 Frc consts  --      0.0121                 0.0476                 0.0686
 IR Inten    --      0.8880                 0.3841                 0.0608

                     10                     11                     12
                      A                      A                      A
 Frequencies --    220.5506               230.8373               253.7893
 Red. masses --      2.6747                 1.2061                 2.0079
 Frc consts  --      0.0767                 0.0379                 0.0762
 IR Inten    --      1.1435                 0.3713                 5.9226

                     13                     14                     15
                      A                      A                      A
 Frequencies --    269.9308               290.8760               293.3011
 Red. masses --      3.0337                 2.5768                 2.0941
 Frc consts  --      0.1302                 0.1285                 0.1061
 IR Inten    --      3.1701                 1.5516                 3.0288

                     16                     17                     18
                      A                      A                      A
 Frequencies --    330.8113               343.3166               354.6521
 Red. masses --      3.1230                 1.8537                 1.5523
 Frc consts  --      0.2014                 0.1287                 0.1150
 IR Inten    --      1.5232                42.5700                80.1896

                     19                     20                     21
                      A                      A                      A
 Frequencies --    392.0085               450.8768               480.7464
 Red. masses --      2.6152                 3.1270                 3.2271
 Frc consts  --      0.2368                 0.3745                 0.4394
 IR Inten    --      3.1193                 1.3696                 6.6405

                     22                     23                     24
                      A                      A                      A
 Frequencies --    532.6995               569.1973               578.1814
 Red. masses --      5.1542                 4.1509                 3.1249
 Frc consts  --      0.8617                 0.7923                 0.6155
 IR Inten    --      1.6572                 3.0122                 2.2865

                     25                     26                     27
                      A                      A                      A
 Frequencies --    623.7538               691.3457               752.4884
 Red. masses --      3.2196                 5.7848                 3.5334
 Frc consts  --      0.7380                 1.6290                 1.1788
 IR Inten    --      7.1226                 5.4743                 2.0398

                     28                     29                     30
                      A                      A                      A
 Frequencies --    794.3384               818.9214               846.9272
 Red. masses --      2.1704                 4.3156                 1.4054
 Frc consts  --      0.8069                 1.7052                 0.5939
 IR Inten    --      8.8641                 1.8831                13.6588

                     31                     32                     33
                      A                      A                      A
 Frequencies --    856.4933               865.2534               921.4925
 Red. masses --      2.1676                 3.1452                 2.1145
 Frc consts  --      0.9369                 1.3874                 1.0579
 IR Inten    --      6.3047                17.9717                 6.3658

                     34                     35                     36
                      A                      A                      A
 Frequencies --    964.7140               971.0463               988.7699
 Red. masses --      1.3067                 1.6938                 1.4409
 Frc consts  --      0.7165                 0.9410                 0.8300
 IR Inten    --      0.6133                 3.5393                 0.5628

                     37                     38                     39
                      A                      A                      A
 Frequencies --   1016.2985              1028.0647              1050.3446
 Red. masses --      1.9669                 1.5805                 1.9421
 Frc consts  --      1.1969                 0.9842                 1.2624
 IR Inten    --     31.0768                 1.1639                30.2243

                     40                     41                     42
                      A                      A                      A
 Frequencies --   1055.4255              1072.6373              1103.6306
 Red. masses --      2.8115                 1.5802                 1.9846
 Frc consts  --      1.8452                 1.0712                 1.4242
 IR Inten    --     31.4222                 3.0727                 6.5962

                     43                     44                     45
                      A                      A                      A
 Frequencies --   1106.5417              1141.3022              1166.9081
 Red. masses --      2.0343                 2.4468                 2.6391
 Frc consts  --      1.4676                 1.8778                 2.1173
 IR Inten    --      7.3232                 9.5927                74.6313

                     46                     47                     48
                      A                      A                      A
 Frequencies --   1175.7264              1190.6476              1200.4609
 Red. masses --      3.0536                 1.6261                 2.1135
 Frc consts  --      2.4870                 1.3582                 1.7945
 IR Inten    --     67.3801                 1.8912                 7.7612

                     49                     50                     51
                      A                      A                      A
 Frequencies --   1226.1101              1232.5293              1257.8135
 Red. masses --      1.4933                 1.7298                 1.4601
 Frc consts  --      1.3227                 1.5483                 1.3610
 IR Inten    --     35.8894                 5.3800                12.8151

                     52                     53                     54
                      A                      A                      A
 Frequencies --   1261.5773              1277.1146              1295.9708
 Red. masses --      1.4675                 1.5831                 1.4366
 Frc consts  --      1.3761                 1.5214                 1.4215
 IR Inten    --      6.4479                24.0561                 6.3802

                     55                     56                     57
                      A                      A                      A
 Frequencies --   1304.7215              1340.1155              1347.0331
 Red. masses --      4.5832                 1.5517                 1.2194
 Frc consts  --      4.5967                 1.6419                 1.3036
 IR Inten    --      4.3710                 2.4311                27.4679

                     58                     59                     60
                      A                      A                      A
 Frequencies --   1382.6466              1408.9338              1414.8318
 Red. masses --      1.2851                 1.4804                 1.4241
 Frc consts  --      1.4474                 1.7314                 1.6796
 IR Inten    --      1.8840                19.4554                 2.3567

                     61                     62                     63
                      A                      A                      A
 Frequencies --   1423.1486              1437.2025              1441.5510
 Red. masses --      1.5101                 1.3587                 1.2719
 Frc consts  --      1.8020                 1.6535                 1.5572
 IR Inten    --      3.3876                15.0859                14.5661

                     64                     65                     66
                      A                      A                      A
 Frequencies --   1450.1323              1464.0954              1503.7712
 Red. masses --      1.2345                 1.8080                 1.1668
 Frc consts  --      1.5296                 2.2835                 1.5545
 IR Inten    --      8.7317                11.1332                 2.0947

                     67                     68                     69
                      A                      A                      A
 Frequencies --   1505.9665              1513.8233              1515.2586
 Red. masses --      1.0908                 1.0546                 1.0820
 Frc consts  --      1.4576                 1.4239                 1.4637
 IR Inten    --      3.7235                11.7293                 9.2985

                     70                     71                     72
                      A                      A                      A
 Frequencies --   1527.5826              1528.1397              1534.2539
 Red. masses --      1.0692                 1.0462                 1.0658
 Frc consts  --      1.4700                 1.4394                 1.4782
 IR Inten    --     10.5766                 9.0849                 8.4636

                     73                     74                     75
                      A                      A                      A
 Frequencies --   1536.4516              1540.3021              1563.8541
 Red. masses --      2.2679                 1.0743                 1.0877
 Frc consts  --      3.1544                 1.5017                 1.5673
 IR Inten    --     12.3537                 4.4333                 3.7458

                     76                     77                     78
                      A                      A                      A
 Frequencies --   1619.2054              1652.5983              2979.9197
 Red. masses --      5.7430                 5.6340                 1.0487
 Frc consts  --      8.8714                 9.0658                 5.4866
 IR Inten    --     11.1058                33.4244                27.6321

                     79                     80                     81
                      A                      A                      A
 Frequencies --   2992.8689              3006.4810              3030.0503
 Red. masses --      1.0441                 1.1048                 1.0821
 Frc consts  --      5.5103                 5.8839                 5.8536
 IR Inten    --     84.1691                78.2697                33.6847

                     82                     83                     84
                      A                      A                      A
 Frequencies --   3033.1031              3043.3257              3053.6832
 Red. masses --      1.1040                 1.0467                 1.0570
 Frc consts  --      5.9838                 5.7118                 5.8073
 IR Inten    --     71.1404                19.8645                22.3205

                     85                     86                     87
                      A                      A                      A
 Frequencies --   3060.0388              3074.8350              3100.6920
 Red. masses --      1.0421                 1.0847                 1.1010
 Frc consts  --      5.7494                 6.0423                 6.2365
 IR Inten    --     46.2134                 7.8846                20.3816

                     88                     89                     90
                      A                      A                      A
 Frequencies --   3108.7061              3122.8089              3135.5532
 Red. masses --      1.0890                 1.1004                 1.0967
 Frc consts  --      6.2004                 6.3226                 6.3527
 IR Inten    --     17.5422                34.0310                27.4485

                     91                     92                     93
                      A                      A                      A
 Frequencies --   3139.2115              3144.1884              3167.9409
 Red. masses --      1.1025                 1.1029                 1.0879
 Frc consts  --      6.4011                 6.4240                 6.4327
 IR Inten    --     29.3703                 5.3696                22.9705

                     94                     95                     96
                      A                      A                      A
 Frequencies --   3190.6226              3195.0182              3742.4100
 Red. masses --      1.0897                 1.0942                 1.0662
 Frc consts  --      6.5361                 6.5812                 8.7985
 IR Inten    --     28.3601                14.7542                14.2874

 - Thermochemistry -
 -------------------
 Temperature   298.150 Kelvin.  Pressure   1.00000 Atm.
 Atom     1 has atomic number  6 and mass  12.00000

 Molecular mass:   209.14158 amu.
 Principal axes and moments of inertia in atomic units:
                           1         2         3
     Eigenvalues --  1890.604434587.123895727.13192
           X            0.99997  -0.00340  -0.00651
           Y            0.00354   0.99975   0.02207
           Z            0.00644  -0.02209   0.99974
 This molecule is an asymmetric top.
 Rotational symmetry number  1.
 Warning -- assumption of classical behavior for rotation
           may cause significant error
 Rotational temperatures (Kelvin)      0.04581     0.01888     0.01512
 Rotational constants (GHZ):           0.95458     0.39344     0.31512
 Zero-point vibrational energy     782437.3 (Joules/Mol)
                                  187.00700 (Kcal/Mol)
 Warning -- explicit consideration of  24 degrees of freedom as
           vibrations may cause significant error
 Vibrational temperatures:     37.87    69.81   109.61   130.81   148.20
          (Kelvin)            181.87   199.43   266.43   280.07   317.32
                              332.12   365.15   388.37   418.51   421.99
                              475.96   493.96   510.27   564.01   648.71
                              691.69   766.44   818.95   831.87   897.44
                              994.69  1082.66  1142.88  1178.25  1218.54
                             1232.30  1244.91  1325.82  1388.01  1397.12
                             1422.62  1462.23  1479.16  1511.21  1518.52
                             1543.29  1587.88  1592.07  1642.08  1678.92
                             1691.61  1713.08  1727.20  1764.10  1773.33
                             1809.71  1815.13  1837.48  1864.61  1877.20
                             1928.13  1938.08  1989.32  2027.14  2035.63
                             2047.59  2067.81  2074.07  2086.42  2106.51
                             2163.59  2166.75  2178.05  2180.12  2197.85
                             2198.65  2207.45  2210.61  2216.15  2250.04
                             2329.68  2377.72  4287.44  4306.07  4325.66
                             4359.57  4363.96  4378.67  4393.57  4402.71
                             4424.00  4461.20  4472.73  4493.03  4511.36
                             4516.63  4523.79  4557.96  4590.59  4596.92
                             5384.49

 Zero-point correction=                           0.298015 (Hartree/Particle)
 Thermal correction to Energy=                    0.314039
 Thermal correction to Enthalpy=                  0.314983
 Thermal correction to Gibbs Free Energy=         0.254281
 Sum of electronic and zero-point Energies=           -673.662492
 Sum of electronic and thermal Energies=              -673.646467
 Sum of electronic and thermal Enthalpies=            -673.645523
 Sum of electronic and thermal Free Energies=         -673.706225

                     E (Thermal)             CV                S
                      KCal/Mol        Cal/Mol-Kelvin    Cal/Mol-Kelvin
 Total                  197.063             59.576            127.759
 Electronic               0.000              0.000              0.000
 Translational            0.889              2.981             41.917
 Rotational               0.889              2.981             32.274
 Vibrational            195.285             53.614             53.568
 Vibration     1          0.593              1.985              6.089
 Vibration     2          0.595              1.978              4.877
 Vibration     3          0.599              1.965              3.987
 Vibration     4          0.602              1.956              3.640
 Vibration     5          0.605              1.947              3.397
 Vibration     6          0.611              1.927              3.000
 Vibration     7          0.614              1.915              2.823
 Vibration     8          0.631              1.860              2.276
 Vibration     9          0.635              1.847              2.183
 Vibration    10          0.647              1.810              1.955
 Vibration    11          0.653              1.794              1.872
 Vibration    12          0.665              1.756              1.704
 Vibration    13          0.674              1.729              1.597
 Vibration    14          0.687              1.691              1.469
 Vibration    15          0.688              1.686              1.455
 Vibration    16          0.713              1.614              1.256
 Vibration    17          0.722              1.589              1.197
 Vibration    18          0.731              1.566              1.145
 Vibration    19          0.759              1.487              0.992
 Vibration    20          0.810              1.359              0.793
 Vibration    21          0.837              1.293              0.708
 Vibration    22          0.888              1.178              0.581
 Vibration    23          0.925              1.098              0.506
 Vibration    24          0.935              1.078              0.489

 Optimization completed.
    -- Stationary point found.
 Normal termination of Gaussian 16 at Thu Dec 10 15:36:32 2020.

 ----------------------------------------------------------------------
 # B3LYP/6-311++G(d,p) empiricaldispersion=gd3bj scf=xqc pop=npa geom=c
 heck
 ----------------------------------------------------------------------

 ---------------------------------------
 CID_116496899_JID_5294_Energie_neutraal
 ---------------------------------------
 Structure from the checkpoint file:  "JID_5294.chk"
 Charge =  0 Multiplicity = 1

 SCF Done:  E(RB3LYP) =  -674.155386405     A.U. after   14 cycles
 Normal termination of Gaussian 16 at Thu Dec 10 15:41:21 2020.

 ----------------------------------------------------------------------
 # B3LYP/6-311++G(d,p) empiricaldispersion=gd3bj scf=xqc pop=npa geom=c
 heck
 ----------------------------------------------------------------------

 -------------------------------------
 CID_116496899_JID_5294_Energie_kation
 -------------------------------------
 Structure from the checkpoint file:  "JID_5294.chk"
 Charge =  1 Multiplicity = 2

 SCF Done:  E(UB3LYP) =  -673.838047592     A.U. after   29 cycles
 Normal termination of Gaussian 16 at Thu Dec 10 16:01:22 2020.
 Gaussian 16:  ES64L-G16RevA.03 25-Dec-2016

 ----------------------------------------------------------------------
 # B3LYP/6-311++G(d,p) empiricaldispersion=gd3bj scf=xqc pop=npa geom=c
 heck
 ----------------------------------------------------------------------

 ------------------------------------
 CID_116496899_JID_5294_Energie_anion
 ------------------------------------
 Structure from the checkpoint file:  "JID_5294.chk"
 Charge = -1 Multiplicity = 2

                         Standard orientation:
 ---------------------------------------------------------------------
 Center     Atomic      Atomic             Coordinates (Angstroms)
 Number     Number       Type             X           Y           Z
 ---------------------------------------------------------------------
      1          6           0        0.375517    2.267108   -0.160472
      2          6           0        1.497714    1.260992   -0.073180
      3          6           0        1.282539   -0.076230    0.312121
      4          6           0        2.393608   -0.919469    0.413588
      5          7           0        3.656721   -0.553804    0.159907
      6          6           0        3.846591    0.714364   -0.218557
      7          6           0        2.814066    1.642264   -0.343771
      8          6           0       -0.112139   -0.599200    0.595482
      9          6           0       -0.842839   -1.059883   -0.684328
     10          6           0       -0.142664   -2.243102   -1.360903
     11          6           0       -2.319064   -1.399319   -0.407404
     12          6           0       -3.098574   -0.305158    0.308140
     13          8           0       -2.916430    0.922859   -0.382169
     14          6           0       -3.582578    1.997815    0.241371
     15          8           0       -0.112144   -1.706551    1.499118
     16          1           0       -0.488069    1.892025   -0.716727
     17          1           0        0.009656    2.526197    0.842329
     18          1           0        0.721437    3.190550   -0.633832
     19          1           0        2.245147   -1.951367    0.721895
     20          1           0        4.874322    1.005187   -0.430087
     21          1           0        3.034902    2.662528   -0.646213
     22          1           0       -0.693637    0.223882    1.031583
     23          1           0       -0.824726   -0.206684   -1.371113
     24          1           0       -0.098443   -3.104369   -0.687340
     25          1           0       -0.690130   -2.541550   -2.261950
     26          1           0        0.879486   -1.990479   -1.658009
     27          1           0       -2.805818   -1.613965   -1.366802
     28          1           0       -2.380099   -2.311179    0.198041
     29          1           0       -4.170243   -0.562069    0.344583
     30          1           0       -2.757907   -0.203365    1.351654
     31          1           0       -4.670861    1.832105    0.283185
     32          1           0       -3.219338    2.159030    1.269582
     33          1           0       -3.381395    2.893899   -0.351368
     34          1           0        0.374197   -1.435306    2.293120
 ---------------------------------------------------------------------

 SCF Done:  E(UB3LYP) =  -674.146470740     A.U. after   33 cycles
 SCF Done:  E(UB3LYP) =  -674.146470740     a.u. after    1 cycles

 The electronic state is 2-A.
 Alpha  occ. eigenvalues --  -19.02567 -19.01735 -14.19143 -10.11827 -10.11271
 Alpha  occ. eigenvalues --  -10.10746 -10.09308 -10.09076 -10.08119 -10.07352
 Alpha  occ. eigenvalues --  -10.07163 -10.06938 -10.06581 -10.06113 -10.05733
 Alpha  occ. eigenvalues --   -0.93811  -0.92133  -0.82979  -0.72279  -0.70342
 Alpha  occ. eigenvalues --   -0.66064  -0.63654  -0.60404  -0.58070  -0.57242
 Alpha  occ. eigenvalues --   -0.52276  -0.50627  -0.49276  -0.45417  -0.42230
 Alpha  occ. eigenvalues --   -0.40040  -0.38967  -0.38260  -0.37808  -0.36420
 Alpha  occ. eigenvalues --   -0.34861  -0.33914  -0.33188  -0.32129  -0.31065
 Alpha  occ. eigenvalues --   -0.30001  -0.29736  -0.28254  -0.27910  -0.27768
 Alpha  occ. eigenvalues --   -0.27438  -0.26378  -0.25429  -0.24176  -0.23211
 Alpha  occ. eigenvalues --   -0.21739  -0.21510  -0.18525  -0.16732  -0.16177
 Alpha  occ. eigenvalues --   -0.14951  -0.14294   0.04388
 Alpha virt. eigenvalues --    0.06625   0.07392   0.07548   0.08156   0.08535
 Alpha virt. eigenvalues --    0.08927   0.09419   0.10082   0.10364   0.10844
 Alpha virt. eigenvalues --    0.11444   0.11718   0.12813   0.13141   0.13275

  Beta  occ. eigenvalues --  -19.02559 -19.01688 -14.18996 -10.11815 -10.11251
  Beta  occ. eigenvalues --  -10.10699 -10.09266 -10.09078 -10.07960 -10.07350
  Beta  occ. eigenvalues --  -10.07157 -10.06954 -10.06574 -10.06105 -10.05730
  Beta  occ. eigenvalues --   -0.93795  -0.92026  -0.82777  -0.72146  -0.70227
  Beta  occ. eigenvalues --   -0.65991  -0.63614  -0.60308  -0.58017  -0.57173
  Beta  occ. eigenvalues --   -0.52225  -0.50560  -0.49117  -0.45377  -0.42154
  Beta  occ. eigenvalues --   -0.39974  -0.38902  -0.38202  -0.37728  -0.36377
  Beta  occ. eigenvalues --   -0.34810  -0.33876  -0.33157  -0.31976  -0.30956
  Beta  occ. eigenvalues --   -0.29967  -0.29691  -0.28224  -0.27805  -0.27508
  Beta  occ. eigenvalues --   -0.27333  -0.26322  -0.25386  -0.24133  -0.23189
  Beta  occ. eigenvalues --   -0.21690  -0.21456  -0.18432  -0.16374  -0.15961
  Beta  occ. eigenvalues --   -0.14740  -0.14086
  Beta virt. eigenvalues --    0.06842   0.07529   0.07827   0.07956   0.08730
  Beta virt. eigenvalues --    0.08992   0.09052   0.09573   0.10428   0.10748
  Beta virt. eigenvalues --    0.11184   0.11582   0.11993   0.13008   0.13349

 Mulliken charges and spin densities:
               1          2
     1  C    0.121047  -1.014000
     2  C   -0.048456   0.856898
     3  C    0.065048   0.418094
     4  C    0.009999  -0.779853
     5  N   -0.040825   0.077871
     6  C   -0.278155  -0.093721
     7  C   -0.096210  -0.105412
     8  C    0.094901  -0.371855
     9  C   -0.017453   0.426640
    10  C   -0.727650  -0.032510
    11  C   -0.179579  -0.358434
    12  C   -0.238021  -0.238550
    13  O   -0.165755   0.053056
    14  C    0.957164  -1.203361
    15  O   -0.289652   0.054317
    16  H    0.349056  -0.176609
    17  H   -0.364300   0.572187
    18  H   -0.057131   0.191534
    19  H    0.150941   0.023786
    20  H    0.113445   0.023870
    21  H    0.002626   0.143126
    22  H    0.524324  -0.330124
    23  H    0.065229   0.119876
    24  H    0.139688   0.031724
    25  H    0.064697   0.063636
    26  H    0.156574   0.001266
    27  H    0.040934   0.118119
    28  H    0.136530   0.013984
    29  H   -0.270140   0.420699
    30  H   -0.158654   0.354432
    31  H   -0.379155   0.504927
    32  H   -0.297635   0.435907
    33  H   -0.271737   0.408679
    34  H   -0.111693   0.389801
 Sum of Mulliken charges =  -1.00000   1.00000

 Dipole moment (field-independent basis, Debye):
    X=              2.5692    Y=             -2.2650    Z=             -3.9684  Tot=              5.2421
 Quadrupole moment (field-independent basis, Debye-Ang):
   XX=           -164.6963   YY=           -130.9289   ZZ=           -123.1066
   XY=             15.2582   XZ=              1.7888   YZ=             -2.7840

 Summary of Natural Population Analysis:

                                       Natural Population
                Natural  -----------------------------------------------
    Atom  No    Charge         Core      Valence    Rydberg      Total
 -----------------------------------------------------------------------
      C    1   -0.30407      0.99963     2.29816    0.00628     3.30407
      C    2    0.03214      0.99947     1.95948    0.00891     2.96786
      C    3   -0.04673      0.99944     2.03592    0.01137     3.04673
      C    4    0.02369      0.99952     1.96166    0.01513     2.97631
      N    5   -0.22414      0.99971     2.71311    0.01132     3.72414
      C    6    0.02773      0.99959     1.95760    0.01508     2.97227
      C    7   -0.12894      0.99951     2.12075    0.00868     3.12894
      C    8    0.05589      0.99949     1.92899    0.01563     2.94411
      C    9   -0.11310      0.99957     2.10420    0.00933     3.11310
      C   10   -0.28726      0.99965     2.28268    0.00494     3.28726
      C   11   -0.19542      0.99960     2.18573    0.01009     3.19542
      C   12   -0.00905      0.99958     1.99723    0.01224     3.00905
      O   13   -0.30332      0.99988     3.29408    0.00935     4.30332
      C   14   -0.09660      0.99962     2.08741    0.00958     3.09660
      O   15   -0.37554      0.99989     3.36940    0.00624     4.37554
      H   16    0.11182      0.00000     0.38645    0.00174     0.38818
      H   17    0.11404      0.00000     0.38351    0.00245     0.38596
      H   18    0.09926      0.00000     0.39986    0.00088     0.40074
      H   19    0.09441      0.00000     0.40378    0.00180     0.40559
      H   20    0.08395      0.00000     0.41501    0.00104     0.41605
      H   21    0.09839      0.00000     0.40069    0.00092     0.40161
      H   22    0.09124      0.00000     0.40558    0.00318     0.40876
      H   23    0.10347      0.00000     0.39452    0.00200     0.39653
      H   24    0.10252      0.00000     0.39654    0.00094     0.39748
      H   25    0.09489      0.00000     0.40433    0.00077     0.40511
      H   26    0.10326      0.00000     0.39604    0.00070     0.39674
      H   27    0.09600      0.00000     0.40295    0.00105     0.40400
      H   28    0.10480      0.00000     0.39420    0.00100     0.39520
      H   29    0.08067      0.00000     0.41802    0.00131     0.41933
      H   30    0.08237      0.00000     0.41580    0.00183     0.41763
      H   31    0.07804      0.00000     0.41989    0.00207     0.42196
      H   32    0.08207      0.00000     0.41562    0.00230     0.41793
      H   33    0.08956      0.00000     0.40912    0.00132     0.41044
      H   34    0.23396      0.00000     0.26179    0.00424     0.26604
 =======================================================================
   * Total *   -0.00000     14.99416    41.82011    0.18573    57.00000

 Normal termination of Gaussian 16 at Thu Dec 10 16:17:28 2020.
