 Gaussian 16, Revision A.03,

 -----------------------------------------------------------
 # opt freq B3LYP/6-31G(d) empiricaldispersion=gd3bj scf=xqc
 -----------------------------------------------------------

 -------------------------------
 CID_134371003_JID_9185_neutraal
 -------------------------------
 Symbolic Z-matrix:
 Charge =  0 Multiplicity = 1

 SCF Done:  E(RB3LYP) =  -842.462779635     A.U. after   15 cycles
 SCF Done:  E(RB3LYP) =  -842.468205031     A.U. after   12 cycles
 SCF Done:  E(RB3LYP) =  -842.469433028     A.U. after   12 cycles
 SCF Done:  E(RB3LYP) =  -842.470225433     A.U. after   12 cycles
 SCF Done:  E(RB3LYP) =  -842.471350984     A.U. after   12 cycles
 SCF Done:  E(RB3LYP) =  -842.471804445     A.U. after   12 cycles
 SCF Done:  E(RB3LYP) =  -842.471844443     A.U. after   12 cycles
 SCF Done:  E(RB3LYP) =  -842.472363311     A.U. after   12 cycles
 SCF Done:  E(RB3LYP) =  -842.472516264     A.U. after   11 cycles
 SCF Done:  E(RB3LYP) =  -842.472637613     A.U. after   13 cycles
 SCF Done:  E(RB3LYP) =  -842.475752057     A.U. after   10 cycles
 SCF Done:  E(RB3LYP) =  -842.475755746     A.U. after    9 cycles
 SCF Done:  E(RB3LYP) =  -842.475756698     A.U. after    9 cycles
 SCF Done:  E(RB3LYP) =  -842.475756934     A.U. after    8 cycles
 SCF Done:  E(RB3LYP) =  -842.475757003     A.U. after    7 cycles
 Optimization completed.
    -- Stationary point found.
 Normal termination of Gaussian 16 at Sat Dec 12 10:17:23 2020.

 --------------------------------------------------------------------
 #N Geom=AllCheck Guess=TCheck SCRF=Check GenChk RB3LYP/6-31G(d) Freq
 --------------------------------------------------------------------

 Structure from the checkpoint file:  "JID_9185.chk"
 -------------------------------
 CID_134371003_JID_9185_neutraal
 -------------------------------
 Charge =  0 Multiplicity = 1

 SCF Done:  E(RB3LYP) =  -842.475757003     A.U. after    1 cycles

  Exact polarizability: 173.148 -17.014 159.145   0.331  14.908 152.952
 Approx polarizability: 236.607 -33.155 254.786  -5.247  41.825 260.054

                      1                      2                      3
                      A                      A                      A
 Frequencies --     26.7367                38.5646                43.4731
 Red. masses --      4.8453                 3.8435                 8.2428
 Frc consts  --      0.0020                 0.0034                 0.0092
 IR Inten    --      0.6843                 0.0913                 0.9499

                      4                      5                      6
                      A                      A                      A
 Frequencies --     53.4804                57.4579                74.8466
 Red. masses --      3.9499                 4.5059                 5.7577
 Frc consts  --      0.0067                 0.0088                 0.0190
 IR Inten    --      0.7699                 0.6540                 0.7769

                      7                      8                      9
                      A                      A                      A
 Frequencies --     99.0487               107.3514               157.2263
 Red. masses --      3.2137                 4.7288                 2.6820
 Frc consts  --      0.0186                 0.0321                 0.0391
 IR Inten    --      0.2745                 0.7141                 0.5545

                     10                     11                     12
                      A                      A                      A
 Frequencies --    179.1478               189.9098               230.9698
 Red. masses --      5.4888                 3.3736                 3.2880
 Frc consts  --      0.1038                 0.0717                 0.1033
 IR Inten    --      0.1079                 1.2818                 0.3519

                     13                     14                     15
                      A                      A                      A
 Frequencies --    239.9204               280.8435               300.2000
 Red. masses --      4.0491                 1.6381                 2.0574
 Frc consts  --      0.1373                 0.0761                 0.1092
 IR Inten    --      0.5711                 0.6816                 0.3009

                     16                     17                     18
                      A                      A                      A
 Frequencies --    337.3058               369.0602               414.5056
 Red. masses --      5.0852                 2.8438                 2.9768
 Frc consts  --      0.3409                 0.2282                 0.3013
 IR Inten    --      0.4870                 0.3263                 0.1332

                     19                     20                     21
                      A                      A                      A
 Frequencies --    420.2181               444.0978               480.4101
 Red. masses --      2.5326                 2.6382                 2.7478
 Frc consts  --      0.2635                 0.3066                 0.3737
 IR Inten    --      1.2118                 0.4589                 2.4562

                     22                     23                     24
                      A                      A                      A
 Frequencies --    535.0077               582.5761               596.3185
 Red. masses --      3.2536                 4.0339                 3.4425
 Frc consts  --      0.5487                 0.8066                 0.7212
 IR Inten    --      0.3188                53.5557                18.9992

                     25                     26                     27
                      A                      A                      A
 Frequencies --    633.8051               650.4999               672.7295
 Red. masses --      5.8601                 3.0865                 2.0287
 Frc consts  --      1.3870                 0.7695                 0.5409
 IR Inten    --      2.1545                15.0502                57.5960

                     28                     29                     30
                      A                      A                      A
 Frequencies --    676.7602               690.3383               714.2137
 Red. masses --      4.2383                 2.7237                 1.8196
 Frc consts  --      1.1437                 0.7648                 0.5469
 IR Inten    --     31.8072                 8.0443                41.1984

                     31                     32                     33
                      A                      A                      A
 Frequencies --    745.2051               764.6545               794.7220
 Red. masses --      3.1878                 2.0208                 3.0520
 Frc consts  --      1.0430                 0.6962                 1.1357
 IR Inten    --      9.6290                 4.4729                19.8363

                     34                     35                     36
                      A                      A                      A
 Frequencies --    808.5425               817.4466               833.6311
 Red. masses --      1.5089                 3.3128                 1.2528
 Frc consts  --      0.5812                 1.3043                 0.5129
 IR Inten    --      3.5708                 8.6954                28.3876

                     37                     38                     39
                      A                      A                      A
 Frequencies --    843.8716               860.4238               872.3753
 Red. masses --      1.5089                 1.2518                 2.3710
 Frc consts  --      0.6331                 0.5460                 1.0631
 IR Inten    --      4.3564                 0.2772                 1.6389

                     40                     41                     42
                      A                      A                      A
 Frequencies --    898.3437               914.3182               930.0259
 Red. masses --      1.4650                 2.4589                 2.1203
 Frc consts  --      0.6966                 1.2111                 1.0805
 IR Inten    --      2.7347                 4.2061                 4.4726

                     43                     44                     45
                      A                      A                      A
 Frequencies --    946.2681               970.1083               989.7133
 Red. masses --      3.4053                 1.3565                 2.4212
 Frc consts  --      1.7965                 0.7521                 1.3973
 IR Inten    --     16.6351                 0.1698                18.4246

                     46                     47                     48
                      A                      A                      A
 Frequencies --    998.5341              1022.7348              1029.9224
 Red. masses --      1.2706                 6.1984                 3.0498
 Frc consts  --      0.7464                 3.8200                 1.9061
 IR Inten    --      1.2238                 0.9253                 4.3329

                     49                     50                     51
                      A                      A                      A
 Frequencies --   1056.7393              1062.5221              1083.1631
 Red. masses --      1.9013                 2.1372                 1.7355
 Frc consts  --      1.2510                 1.4216                 1.1997
 IR Inten    --      2.6213                 3.9936                 0.9862

                     52                     53                     54
                      A                      A                      A
 Frequencies --   1118.4174              1120.4874              1160.2264
 Red. masses --      1.5831                 1.6627                 2.0874
 Frc consts  --      1.1667                 1.2299                 1.6556
 IR Inten    --      5.9564                 0.5581                16.0738

                     55                     56                     57
                      A                      A                      A
 Frequencies --   1167.9417              1190.1567              1195.3332
 Red. masses --      2.2938                 2.4092                 1.1009
 Frc consts  --      1.8435                 2.0106                 0.9267
 IR Inten    --     93.3003                79.6106                 0.2421

                     58                     59                     60
                      A                      A                      A
 Frequencies --   1217.5055              1222.1083              1245.2350
 Red. masses --      1.1736                 2.5429                 1.4549
 Frc consts  --      1.0250                 2.2377                 1.3292
 IR Inten    --      6.3057                 6.6660                76.6872

                     61                     62                     63
                      A                      A                      A
 Frequencies --   1254.6944              1279.7392              1297.9635
 Red. masses --      1.5426                 1.5236                 2.4492
 Frc consts  --      1.4308                 1.4702                 2.4311
 IR Inten    --     37.3369                33.2096                29.0496

                     64                     65                     66
                      A                      A                      A
 Frequencies --   1305.6701              1311.2347              1338.6541
 Red. masses --      1.4115                 1.2506                 2.3392
 Frc consts  --      1.4177                 1.2668                 2.4698
 IR Inten    --      5.0596                 1.5064                26.0260

                     67                     68                     69
                      A                      A                      A
 Frequencies --   1345.6315              1370.4445              1376.3765
 Red. masses --      1.7661                 2.6260                 1.5203
 Frc consts  --      1.8842                 2.9058                 1.6968
 IR Inten    --      6.8251                 2.8905                10.2206

                     70                     71                     72
                      A                      A                      A
 Frequencies --   1385.9801              1394.2060              1423.1582
 Red. masses --      1.7236                 1.3788                 1.8712
 Frc consts  --      1.9507                 1.5790                 2.2330
 IR Inten    --      5.2239                 8.8012                49.4338

                     73                     74                     75
                      A                      A                      A
 Frequencies --   1429.5356              1437.6640              1442.6311
 Red. masses --      3.6744                 1.3846                 1.4330
 Frc consts  --      4.4241                 1.6862                 1.7572
 IR Inten    --      5.0163                 4.5847                 2.8816

                     76                     77                     78
                      A                      A                      A
 Frequencies --   1504.3863              1507.1871              1516.3168
 Red. masses --      2.0072                 1.2014                 1.0829
 Frc consts  --      2.6764                 1.6079                 1.4669
 IR Inten    --     18.1703                15.6947                 1.1217

                     79                     80                     81
                      A                      A                      A
 Frequencies --   1520.2327              1522.7045              1533.4919
 Red. masses --      1.1235                 2.8744                 1.0556
 Frc consts  --      1.5298                 3.9267                 1.4626
 IR Inten    --      1.2681                31.1318                 8.2317

                     82                     83                     84
                      A                      A                      A
 Frequencies --   1540.1832              1548.2482              1606.4992
 Red. masses --      1.0618                 2.2023                 5.7767
 Frc consts  --      1.4840                 3.1104                 8.7839
 IR Inten    --      8.8047                10.5281                 4.1339

                     85                     86                     87
                      A                      A                      A
 Frequencies --   1649.9633              1667.7577              1842.4703
 Red. masses --      5.5551                 5.5132                 9.4036
 Frc consts  --      8.9102                 9.0349                18.8082
 IR Inten    --      1.3264                 2.1549               207.9034

                     88                     89                     90
                      A                      A                      A
 Frequencies --   3038.4552              3040.7468              3052.1131
 Red. masses --      1.0410                 1.0597                 1.0625
 Frc consts  --      5.6623                 5.7728                 5.8313
 IR Inten    --     15.4975                42.8698                20.5076

                     91                     92                     93
                      A                      A                      A
 Frequencies --   3076.0756              3090.1674              3096.2676
 Red. masses --      1.0991                 1.1006                 1.0658
 Frc consts  --      6.1273                 6.1921                 6.0201
 IR Inten    --     15.2083                16.5550                 0.9504

                     94                     95                     96
                      A                      A                      A
 Frequencies --   3105.2751              3108.9768              3118.7048
 Red. masses --      1.0899                 1.0888                 1.1022
 Frc consts  --      6.1923                 6.2009                 6.3162
 IR Inten    --     41.5905                35.8683                43.5762

                     97                     98                     99
                      A                      A                      A
 Frequencies --   3152.8034              3171.8439              3188.6452
 Red. masses --      1.1059                 1.0878                 1.0866
 Frc consts  --      6.4770                 6.4478                 6.5095
 IR Inten    --      5.8582                 9.7836                 1.0857

                    100                    101                    102
                      A                      A                      A
 Frequencies --   3199.2542              3210.0438              3217.9659
 Red. masses --      1.0910                 1.0947                 1.0956
 Frc consts  --      6.5794                 6.6461                 6.6845
 IR Inten    --     20.6755                23.0767                 8.1958

                    103                    104                    105
                      A                      A                      A
 Frequencies --   3246.1109              3291.3336              3680.6318
 Red. masses --      1.0963                 1.0982                 1.0638
 Frc consts  --      6.8060                 7.0093                 8.4913
 IR Inten    --     11.3557                16.3022                54.0647

 - Thermochemistry -
 -------------------
 Temperature   298.150 Kelvin.  Pressure   1.00000 Atm.
 Atom     1 has atomic number  6 and mass  12.00000

 Molecular mass:   258.13683 amu.
 Principal axes and moments of inertia in atomic units:
                           1         2         3
     Eigenvalues --  3693.162605759.438926872.99291
           X            0.99959   0.01434   0.02470
           Y           -0.01443   0.99989   0.00369
           Z           -0.02464  -0.00405   0.99969
 This molecule is an asymmetric top.
 Rotational symmetry number  1.
 Warning -- assumption of classical behavior for rotation
           may cause significant error
 Rotational temperatures (Kelvin)      0.02345     0.01504     0.01260
 Rotational constants (GHZ):           0.48867     0.31335     0.26258
 Zero-point vibrational energy     817146.0 (Joules/Mol)
                                  195.30258 (Kcal/Mol)
 Warning -- explicit consideration of  24 degrees of freedom as
           vibrations may cause significant error
 Vibrational temperatures:     38.47    55.49    62.55    76.95    82.67
          (Kelvin)            107.69   142.51   154.45   226.21   257.75
                              273.24   332.31   345.19   404.07   431.92
                              485.31   531.00   596.38   604.60   638.96
                              691.20   769.76   838.20   857.97   911.90
                              935.92   967.91   973.71   993.24  1027.59
                             1072.18  1100.17  1143.43  1163.31  1176.12
                             1199.41  1214.14  1237.96  1255.15  1292.52
                             1315.50  1338.10  1361.47  1395.77  1423.98
                             1436.67  1471.49  1481.83  1520.41  1528.73
                             1558.43  1609.15  1612.13  1669.31  1680.41
                             1712.37  1719.82  1751.72  1758.34  1791.62
                             1805.23  1841.26  1867.48  1878.57  1886.57
                             1926.02  1936.06  1971.76  1980.30  1994.12
                             2005.95  2047.61  2056.78  2068.48  2075.62
                             2164.48  2168.51  2181.64  2187.28  2190.83
                             2206.35  2215.98  2227.58  2311.39  2373.93
                             2399.53  2650.90  4371.66  4374.96  4391.31
                             4425.79  4446.06  4454.84  4467.80  4473.12
                             4487.12  4536.18  4563.58  4587.75  4603.01
                             4618.54  4629.94  4670.43  4735.49  5295.61

 Zero-point correction=                           0.311234 (Hartree/Particle)
 Thermal correction to Energy=                    0.328801
 Thermal correction to Enthalpy=                  0.329745
 Thermal correction to Gibbs Free Energy=         0.263613
 Sum of electronic and zero-point Energies=           -842.164523
 Sum of electronic and thermal Energies=              -842.146956
 Sum of electronic and thermal Enthalpies=            -842.146012
 Sum of electronic and thermal Free Energies=         -842.212144

                     E (Thermal)             CV                S
                      KCal/Mol        Cal/Mol-Kelvin    Cal/Mol-Kelvin
 Total                  206.326             66.401            139.185
 Electronic               0.000              0.000              0.000
 Translational            0.889              2.981             42.545
 Rotational               0.889              2.981             33.347
 Vibrational            204.548             60.440             63.294
 Vibration     1          0.593              1.984              6.058
 Vibration     2          0.594              1.981              5.331
 Vibration     3          0.595              1.980              5.094
 Vibration     4          0.596              1.976              4.684
 Vibration     5          0.596              1.975              4.543
 Vibration     6          0.599              1.966              4.022
 Vibration     7          0.604              1.950              3.473
 Vibration     8          0.606              1.943              3.316
 Vibration     9          0.621              1.895              2.583
 Vibration    10          0.629              1.868              2.337
 Vibration    11          0.633              1.854              2.229
 Vibration    12          0.653              1.794              1.871
 Vibration    13          0.657              1.779              1.803
 Vibration    14          0.681              1.709              1.529
 Vibration    15          0.693              1.673              1.416
 Vibration    16          0.718              1.601              1.225
 Vibration    17          0.741              1.536              1.084
 Vibration    18          0.778              1.439              0.911
 Vibration    19          0.783              1.426              0.891
 Vibration    20          0.804              1.374              0.814
 Vibration    21          0.837              1.294              0.709
 Vibration    22          0.890              1.173              0.576
 Vibration    23          0.939              1.069              0.481
 Vibration    24          0.954              1.040              0.456

 Optimization completed.
    -- Stationary point found.
 Normal termination of Gaussian 16 at Sat Dec 12 10:36:48 2020.

 ----------------------------------------------------------------------
 # B3LYP/6-311++G(d,p) empiricaldispersion=gd3bj scf=xqc pop=npa geom=c
 heck
 ----------------------------------------------------------------------

 ---------------------------------------
 CID_134371003_JID_9185_Energie_neutraal
 ---------------------------------------
 Structure from the checkpoint file:  "JID_9185.chk"
 Charge =  0 Multiplicity = 1

 SCF Done:  E(RB3LYP) =  -842.710898860     A.U. after   15 cycles
 Normal termination of Gaussian 16 at Sat Dec 12 10:43:50 2020.

 ----------------------------------------------------------------------
 # B3LYP/6-311++G(d,p) empiricaldispersion=gd3bj scf=xqc pop=npa geom=c
 heck
 ----------------------------------------------------------------------

 -------------------------------------
 CID_134371003_JID_9185_Energie_kation
 -------------------------------------
 Structure from the checkpoint file:  "JID_9185.chk"
 Charge =  1 Multiplicity = 2

 SCF Done:  E(UB3LYP) =  -842.420896368     A.U. after   26 cycles
 Normal termination of Gaussian 16 at Sat Dec 12 11:00:10 2020.
 Gaussian 16:  ES64L-G16RevA.03 25-Dec-2016

 ----------------------------------------------------------------------
 # B3LYP/6-311++G(d,p) empiricaldispersion=gd3bj scf=xqc pop=npa geom=c
 heck
 ----------------------------------------------------------------------

 ------------------------------------
 CID_134371003_JID_9185_Energie_anion
 ------------------------------------
 Structure from the checkpoint file:  "JID_9185.chk"
 Charge = -1 Multiplicity = 2

                         Standard orientation:
 ---------------------------------------------------------------------
 Center     Atomic      Atomic             Coordinates (Angstroms)
 Number     Number       Type             X           Y           Z
 ---------------------------------------------------------------------
      1          6           0       -3.235401   -0.817774   -2.065191
      2          6           0       -3.558383   -1.516467   -0.743484
      3          6           0       -2.416336   -1.460477    0.294059
      4          6           0       -2.074016   -0.074561    0.749805
      5          6           0       -2.667406    0.730606    1.693283
      6          7           0       -2.048136    1.958480    1.768858
      7          6           0       -1.078051    1.912630    0.880609
      8          7           0       -1.050769    0.707989    0.213053
      9          6           0       -0.056089    0.219739   -0.737625
     10          6           0        0.632682    1.366399   -1.529064
     11          6           0        1.837188    1.962747   -0.828287
     12          8           0        1.812757    2.764517    0.080415
     13          8           0        2.991085    1.478017   -1.337076
     14          6           0        0.957519   -0.708013   -0.084523
     15          6           0        1.537379   -1.731980   -0.839467
     16          6           0        2.506308   -2.562784   -0.279107
     17          6           0        2.901848   -2.375914    1.046359
     18          6           0        2.321992   -1.358256    1.805048
     19          6           0        1.352587   -0.526872    1.243984
     20          1           0       -2.991076    0.238118   -1.902477
     21          1           0       -4.086486   -0.859642   -2.753435
     22          1           0       -2.383486   -1.293252   -2.568547
     23          1           0       -4.451021   -1.058363   -0.300109
     24          1           0       -3.805283   -2.569245   -0.933957
     25          1           0       -2.719280   -2.038817    1.174742
     26          1           0       -1.527945   -1.967192   -0.102519
     27          1           0       -3.515040    0.487662    2.321475
     28          1           0       -0.350513    2.687476    0.690791
     29          1           0       -0.606823   -0.352976   -1.487008
     30          1           0        0.966764    0.953207   -2.482685
     31          1           0       -0.093944    2.159026   -1.726758
     32          1           0        3.710523    1.869968   -0.806181
     33          1           0        1.227762   -1.879687   -1.871934
     34          1           0        2.946882   -3.357666   -0.874130
     35          1           0        3.653247   -3.024718    1.487249
     36          1           0        2.619795   -1.212586    2.839460
     37          1           0        0.896587    0.258987    1.837537
 ---------------------------------------------------------------------

 SCF Done:  E(UB3LYP) =  -842.705720720     A.U. after   33 cycles
 SCF Done:  E(UB3LYP) =  -842.705720720     a.u. after    1 cycles

 The electronic state is 2-A.
 Alpha  occ. eigenvalues --  -19.08200 -19.02515 -14.26937 -14.19246 -10.21454
 Alpha  occ. eigenvalues --  -10.14192 -10.11564 -10.10300 -10.10138 -10.08960
 Alpha  occ. eigenvalues --  -10.08524 -10.08202 -10.08184 -10.08088 -10.08073
 Alpha  occ. eigenvalues --  -10.08014 -10.07779 -10.07764 -10.06277  -1.02261
 Alpha  occ. eigenvalues --   -0.93251  -0.91763  -0.79940  -0.76236  -0.71580
 Alpha  occ. eigenvalues --   -0.69851  -0.65711  -0.65464  -0.64546  -0.59419
 Alpha  occ. eigenvalues --   -0.58840  -0.52648  -0.51936  -0.50963  -0.50543
 Alpha  occ. eigenvalues --   -0.48538  -0.45505  -0.43177  -0.42535  -0.40700
 Alpha  occ. eigenvalues --   -0.39670  -0.37912  -0.37433  -0.36616  -0.36049
 Alpha  occ. eigenvalues --   -0.35270  -0.34725  -0.33523  -0.32763  -0.32064
 Alpha  occ. eigenvalues --   -0.31633  -0.31375  -0.30284  -0.29863  -0.29512
 Alpha  occ. eigenvalues --   -0.28960  -0.26949  -0.25888  -0.25484  -0.25237
 Alpha  occ. eigenvalues --   -0.24962  -0.24274  -0.23788  -0.19536  -0.17624
 Alpha  occ. eigenvalues --   -0.17302  -0.16356  -0.15725  -0.12615   0.03881
 Alpha virt. eigenvalues --    0.06301   0.06667   0.07056   0.07390   0.07484
 Alpha virt. eigenvalues --    0.07922   0.08239   0.08668   0.08936   0.09742
 Alpha virt. eigenvalues --    0.10253   0.10762   0.11022   0.11515   0.11791

  Beta  occ. eigenvalues --  -19.08173 -19.02477 -14.26928 -14.19247 -10.21370
  Beta  occ. eigenvalues --  -10.14181 -10.11559 -10.10299 -10.10110 -10.08925
  Beta  occ. eigenvalues --  -10.08517 -10.08201 -10.08152 -10.08085 -10.08035
  Beta  occ. eigenvalues --  -10.08009 -10.07767 -10.07696 -10.06233  -1.02173
  Beta  occ. eigenvalues --   -0.93179  -0.91749  -0.79911  -0.76169  -0.71540
  Beta  occ. eigenvalues --   -0.69793  -0.65614  -0.65382  -0.64507  -0.59343
  Beta  occ. eigenvalues --   -0.58799  -0.52544  -0.51885  -0.50907  -0.50455
  Beta  occ. eigenvalues --   -0.48501  -0.45464  -0.43128  -0.42472  -0.40610
  Beta  occ. eigenvalues --   -0.39568  -0.37843  -0.37338  -0.36520  -0.35998
  Beta  occ. eigenvalues --   -0.35226  -0.34671  -0.33480  -0.32709  -0.32029
  Beta  occ. eigenvalues --   -0.31581  -0.31315  -0.30252  -0.29805  -0.29432
  Beta  occ. eigenvalues --   -0.28922  -0.26800  -0.25848  -0.25444  -0.25184
  Beta  occ. eigenvalues --   -0.24919  -0.24231  -0.23622  -0.19490  -0.17577
  Beta  occ. eigenvalues --   -0.17293  -0.16175  -0.15497  -0.12590
  Beta virt. eigenvalues --    0.06180   0.06709   0.07182   0.07523   0.07592
  Beta virt. eigenvalues --    0.07922   0.08384   0.08515   0.09093   0.09182
  Beta virt. eigenvalues --    0.10043   0.10602   0.10899   0.11319   0.11701

 Mulliken charges and spin densities:
               1          2
     1  C    0.491772  -0.948212
     2  C   -0.226957  -0.263451
     3  C   -0.660322   0.033289
     4  C    0.651972  -0.189174
     5  C   -0.565320   0.366164
     6  N   -0.075230   0.001529
     7  C   -0.062877  -0.103895
     8  N    0.219524  -0.026670
     9  C   -0.096123   0.298033
    10  C    0.888177  -1.467914
    11  C   -0.169470  -0.031818
    12  O   -0.290025   0.027389
    13  O   -0.103465   0.046577
    14  C    0.470329   0.149178
    15  C   -0.510253   0.295430
    16  C    0.171455  -0.532620
    17  C    0.466487  -0.796349
    18  C   -0.907815   0.459389
    19  C   -0.457203   0.173135
    20  H   -0.058406   0.224673
    21  H   -0.283469   0.450422
    22  H   -0.456800   0.606744
    23  H    0.169840  -0.055381
    24  H   -0.177214   0.323221
    25  H    0.073154   0.112224
    26  H    0.181685  -0.019392
    27  H    0.099536   0.034567
    28  H    0.212035   0.001200
    29  H    1.087058  -0.836594
    30  H   -0.396277   0.632759
    31  H   -0.023796   0.225642
    32  H    0.037818   0.231328
    33  H   -0.583530   0.762736
    34  H   -0.406318   0.592798
    35  H   -0.002730   0.129365
    36  H    0.075686   0.087426
    37  H    0.217076   0.006254
 Sum of Mulliken charges =  -1.00000   1.00000

 Dipole moment (field-independent basis, Debye):
    X=              0.7355    Y=              0.3650    Z=              4.1798  Tot=              4.2596
 Quadrupole moment (field-independent basis, Debye-Ang):
   XX=           -162.4569   YY=           -165.3613   ZZ=           -161.9808
   XY=              5.0410   XZ=              0.2626   YZ=            -14.8727

 Summary of Natural Population Analysis:

                                       Natural Population
                Natural  -----------------------------------------------
    Atom  No    Charge         Core      Valence    Rydberg      Total
 -----------------------------------------------------------------------
      C    1   -0.28906      0.99967     2.28438    0.00502     3.28906
      C    2   -0.18320      0.99964     2.17542    0.00815     3.18320
      C    3   -0.21001      0.99959     2.20188    0.00853     3.21001
      C    4    0.06386      0.99951     1.92417    0.01246     2.93614
      C    5   -0.03627      0.99950     2.02428    0.01249     3.03627
      N    6   -0.25762      0.99973     2.74787    0.01001     3.75762
      C    7    0.09554      0.99962     1.88728    0.01756     2.90446
      N    8   -0.21242      0.99962     2.70181    0.01099     3.71242
      C    9   -0.01212      0.99953     1.99632    0.01627     3.01212
      C   10   -0.23720      0.99956     2.22830    0.00934     3.23720
      C   11    0.41666      0.99972     1.55762    0.02600     2.58334
      O   12   -0.30901      0.99986     3.30318    0.00596     4.30901
      O   13   -0.33766      0.99987     3.33163    0.00615     4.33766
      C   14   -0.02190      0.99948     2.01071    0.01172     3.02190
      C   15   -0.08600      0.99949     2.07599    0.01052     3.08600
      C   16   -0.09900      0.99956     2.08951    0.00993     3.09900
      C   17   -0.09870      0.99956     2.08914    0.01000     3.09870
      C   18   -0.09406      0.99956     2.08568    0.00881     3.09406
      C   19   -0.10251      0.99950     2.09410    0.00892     3.10251
      H   20    0.09819      0.00000     0.40056    0.00125     0.40181
      H   21    0.09966      0.00000     0.39944    0.00090     0.40034
      H   22    0.09963      0.00000     0.39821    0.00216     0.40037
      H   23    0.09229      0.00000     0.40658    0.00113     0.40771
      H   24    0.09478      0.00000     0.40416    0.00107     0.40522
      H   25    0.10656      0.00000     0.39256    0.00088     0.39344
      H   26    0.10904      0.00000     0.38943    0.00153     0.39096
      H   27    0.09329      0.00000     0.40564    0.00107     0.40671
      H   28    0.10900      0.00000     0.38922    0.00178     0.39100
      H   29    0.11717      0.00000     0.37922    0.00361     0.38283
      H   30    0.12057      0.00000     0.37749    0.00195     0.37943
      H   31    0.11929      0.00000     0.37920    0.00151     0.38071
      H   32    0.23963      0.00000     0.25715    0.00322     0.26037
      H   33    0.10486      0.00000     0.39245    0.00269     0.39514
      H   34    0.10176      0.00000     0.39716    0.00109     0.39824
      H   35    0.09820      0.00000     0.40105    0.00075     0.40180
      H   36    0.09812      0.00000     0.40116    0.00072     0.40188
      H   37    0.10865      0.00000     0.39000    0.00136     0.39135
 =======================================================================
   * Total *    0.00000     18.99257    49.76995    0.23748    69.00000

 Normal termination of Gaussian 16 at Sat Dec 12 11:21:07 2020.
