 Gaussian 16, Revision A.03,

 -----------------------------------------------------------
 # opt freq B3LYP/6-31G(d) empiricaldispersion=gd3bj scf=xqc
 -----------------------------------------------------------

 ------------------------------
 CID_151541477_JID_964_neutraal
 ------------------------------
 Symbolic Z-matrix:
 Charge =  0 Multiplicity = 1

 SCF Done:  E(RB3LYP) =  -593.194954361     A.U. after   17 cycles
 SCF Done:  E(RB3LYP) =  -593.202722127     A.U. after   17 cycles
 SCF Done:  E(RB3LYP) =  -593.209329184     A.U. after   17 cycles
 SCF Done:  E(RB3LYP) =  -593.213838297     A.U. after   15 cycles
 SCF Done:  E(RB3LYP) =  -593.215644295     A.U. after   16 cycles
 SCF Done:  E(RB3LYP) =  -593.216086032     A.U. after   15 cycles
 SCF Done:  E(RB3LYP) =  -593.214231270     A.U. after   16 cycles
 SCF Done:  E(RB3LYP) =  -593.216602764     A.U. after   15 cycles
 SCF Done:  E(RB3LYP) =  -593.216896192     A.U. after   14 cycles
 SCF Done:  E(RB3LYP) =  -593.218602533     A.U. after   18 cycles
 SCF Done:  E(RB3LYP) =  -593.225593097     A.U. after   14 cycles
 SCF Done:  E(RB3LYP) =  -593.225633242     A.U. after   13 cycles
 SCF Done:  E(RB3LYP) =  -593.225656762     A.U. after   13 cycles
 SCF Done:  E(RB3LYP) =  -593.225667240     A.U. after   12 cycles
 SCF Done:  E(RB3LYP) =  -593.225668907     A.U. after   10 cycles
 SCF Done:  E(RB3LYP) =  -593.225669242     A.U. after   10 cycles
 Optimization completed.
    -- Stationary point found.
 Normal termination of Gaussian 16 at Tue Dec  8 13:50:52 2020.

 --------------------------------------------------------------------
 #N Geom=AllCheck Guess=TCheck SCRF=Check GenChk RB3LYP/6-31G(d) Freq
 --------------------------------------------------------------------

 Structure from the checkpoint file:  "JID_964.chk"
 ------------------------------
 CID_151541477_JID_964_neutraal
 ------------------------------
 Charge =  0 Multiplicity = 1

 SCF Done:  E(RB3LYP) =  -593.225669242     A.U. after    1 cycles

  Exact polarizability:  99.296   1.993  75.860  -3.687  -3.308  31.926
 Approx polarizability: 179.577   3.491 156.365 -16.893 -16.151  57.670

                      1                      2                      3
                      A                      A                      A
 Frequencies --     54.3948                81.0102               127.7842
 Red. masses --     10.6190                13.5021                12.0436
 Frc consts  --      0.0185                 0.0522                 0.1159
 IR Inten    --      0.1703                 0.0567                 0.1873

                      4                      5                      6
                      A                      A                      A
 Frequencies --    147.7841               252.7437               284.0387
 Red. masses --      7.7931                 9.8668                 6.5632
 Frc consts  --      0.1003                 0.3714                 0.3120
 IR Inten    --      0.3624                 1.7341                 2.1426

                      7                      8                      9
                      A                      A                      A
 Frequencies --    335.5981               385.2110               403.5949
 Red. masses --      9.8963                10.4615                 8.7711
 Frc consts  --      0.6567                 0.9146                 0.8418
 IR Inten    --      2.6567                 6.4201                13.8883

                     10                     11                     12
                      A                      A                      A
 Frequencies --    507.8428               516.0393               537.4693
 Red. masses --      1.9639                 3.0082                 8.3419
 Frc consts  --      0.2984                 0.4720                 1.4198
 IR Inten    --     12.3471                46.9549                14.8054

                     13                     14                     15
                      A                      A                      A
 Frequencies --    568.4177               679.3389               727.9264
 Red. masses --      7.3908                 6.1583                 3.4339
 Frc consts  --      1.4070                 1.6745                 1.0720
 IR Inten    --     56.3008                17.9636               253.0349

                     16                     17                     18
                      A                      A                      A
 Frequencies --    766.7788               821.8839               868.8264
 Red. masses --     12.6580                 4.9127                 6.6499
 Frc consts  --      4.3849                 1.9552                 2.9575
 IR Inten    --      9.8684               183.5865                36.0611

                     19                     20                     21
                      A                      A                      A
 Frequencies --   1037.1104              1123.6757              1198.5949
 Red. masses --      3.6767                11.6326                 4.8986
 Frc consts  --      2.3300                 8.6538                 4.1463
 IR Inten    --     78.1660                75.8571                19.7054

                     22                     23                     24
                      A                      A                      A
 Frequencies --   1357.8457              1377.4566              1433.2909
 Red. masses --      4.8180                 9.0575                 1.4847
 Frc consts  --      5.2338                10.1254                 1.7970
 IR Inten    --    196.9754               278.1362                19.2034

                     25                     26                     27
                      A                      A                      A
 Frequencies --   1560.7162              1649.5384              1690.3425
 Red. masses --      1.1367                11.7762                 6.6227
 Frc consts  --      1.6314                18.8790                11.1490
 IR Inten    --     32.6315               216.3776                11.8740

                     28                     29                     30
                      A                      A                      A
 Frequencies --   2300.5281              3555.8529              3597.7868
 Red. masses --     13.9853                 1.0771                 1.0676
 Frc consts  --     43.6092                 8.0239                 8.1419
 IR Inten    --    568.6486                26.6129                63.2189

 - Thermochemistry -
 -------------------
 Temperature   298.150 Kelvin.  Pressure   1.00000 Atm.
 Atom     1 has atomic number  6 and mass  12.00000

 Molecular mass:   146.01884 amu.
 Principal axes and moments of inertia in atomic units:
                           1         2         3
     Eigenvalues --   862.187401676.322342396.87148
           X            0.99982   0.01914   0.00044
           Y           -0.01915   0.99982   0.00158
           Z           -0.00041  -0.00159   1.00000
 This molecule is an asymmetric top.
 Rotational symmetry number  1.
 Warning -- assumption of classical behavior for rotation
           may cause significant error
 Rotational temperatures (Kelvin)      0.10046     0.05167     0.03614
 Rotational constants (GHZ):           2.09321     1.07661     0.75296
 Zero-point vibrational energy     179137.3 (Joules/Mol)
                                   42.81485 (Kcal/Mol)
 Warning -- explicit consideration of  13 degrees of freedom as
           vibrations may cause significant error
 Vibrational temperatures:     78.26   116.56   183.85   212.63   363.64
          (Kelvin)            408.67   482.85   554.23   580.68   730.67
                              742.47   773.30   817.83   977.42  1047.32
                             1103.22  1182.51  1250.05  1492.17  1616.72
                             1724.51  1953.64  1981.85  2062.19  2245.52
                             2373.32  2432.03  3309.95  5116.08  5176.41

 Zero-point correction=                           0.068230 (Hartree/Particle)
 Thermal correction to Energy=                    0.077276
 Thermal correction to Enthalpy=                  0.078220
 Thermal correction to Gibbs Free Energy=         0.033141
 Sum of electronic and zero-point Energies=           -593.157439
 Sum of electronic and thermal Energies=              -593.148394
 Sum of electronic and thermal Enthalpies=            -593.147449
 Sum of electronic and thermal Free Energies=         -593.192528

                     E (Thermal)             CV                S
                      KCal/Mol        Cal/Mol-Kelvin    Cal/Mol-Kelvin
 Total                   48.491             31.267             94.876
 Electronic               0.000              0.000              0.000
 Translational            0.889              2.981             40.846
 Rotational               0.889              2.981             29.628
 Vibrational             46.714             25.306             24.402
 Vibration     1          0.596              1.976              4.651
 Vibration     2          0.600              1.962              3.866
 Vibration     3          0.611              1.925              2.979
 Vibration     4          0.617              1.905              2.701
 Vibration     5          0.664              1.758              1.711
 Vibration     6          0.682              1.703              1.509
 Vibration     7          0.717              1.604              1.233
 Vibration     8          0.754              1.502              1.019
 Vibration     9          0.769              1.462              0.950
 Vibration    10          0.863              1.233              0.639
 Vibration    11          0.871              1.214              0.619
 Vibration    12          0.892              1.167              0.571
 Vibration    13          0.924              1.100              0.507

 Optimization completed.
    -- Stationary point found.
 Normal termination of Gaussian 16 at Tue Dec  8 13:52:43 2020.

 ----------------------------------------------------------------------
 # B3LYP/6-311++G(d,p) empiricaldispersion=gd3bj scf=xqc pop=npa geom=c
 heck
 ----------------------------------------------------------------------

 --------------------------------------
 CID_151541477_JID_964_Energie_neutraal
 --------------------------------------
 Structure from the checkpoint file:  "JID_964.chk"
 Charge =  0 Multiplicity = 1

 SCF Done:  E(RB3LYP) =  -593.411519428     A.U. after   16 cycles
 Normal termination of Gaussian 16 at Tue Dec  8 13:53:54 2020.

 ----------------------------------------------------------------------
 # B3LYP/6-311++G(d,p) empiricaldispersion=gd3bj scf=xqc pop=npa geom=c
 heck
 ----------------------------------------------------------------------

 ------------------------------------
 CID_151541477_JID_964_Energie_kation
 ------------------------------------
 Structure from the checkpoint file:  "JID_964.chk"
 Charge =  1 Multiplicity = 2

 SCF Done:  E(UB3LYP) =  -593.067985505     A.U. after   26 cycles
 Normal termination of Gaussian 16 at Tue Dec  8 13:58:55 2020.
 Gaussian 16:  ES64L-G16RevA.03 25-Dec-2016

 ----------------------------------------------------------------------
 # B3LYP/6-311++G(d,p) empiricaldispersion=gd3bj scf=xqc pop=npa geom=c
 heck
 ----------------------------------------------------------------------

 -----------------------------------
 CID_151541477_JID_964_Energie_anion
 -----------------------------------
 Structure from the checkpoint file:  "JID_964.chk"
 Charge = -1 Multiplicity = 2

                         Standard orientation:
 ---------------------------------------------------------------------
 Center     Atomic      Atomic             Coordinates (Angstroms)
 Number     Number       Type             X           Y           Z
 ---------------------------------------------------------------------
      1          6           0        0.234060    0.111388    0.070486
      2          7           0        0.061863   -1.149429    0.163167
      3          7           0       -1.125532   -1.779402    0.202197
      4          8           0       -2.162606   -1.268791   -0.612020
      5          7           0        1.497605    0.715663    0.046850
      6          7           0        2.463152   -0.066054   -0.002624
      7          7           0        3.425720   -0.665739   -0.047308
      8          7           0       -0.807795    1.169852    0.064284
      9          8           0       -1.833076    0.947065    0.723358
     10          8           0       -0.556531    2.210385   -0.520542
     11          1           0       -0.993107   -2.736816   -0.108557
     12          1           0       -2.598649   -0.615019   -0.026690
 ---------------------------------------------------------------------

 SCF Done:  E(UB3LYP) =  -593.469876015     A.U. after   25 cycles

 The electronic state is 2-A.
 Alpha  occ. eigenvalues --  -19.00822 -18.95326 -18.95228 -14.35993 -14.32756
 Alpha  occ. eigenvalues --  -14.26232 -14.25856 -14.24414 -14.19068 -10.12903
 Alpha  occ. eigenvalues --   -1.03606  -1.02340  -0.95415  -0.87562  -0.86250
 Alpha  occ. eigenvalues --   -0.81310  -0.67717  -0.58605  -0.50354  -0.44030
 Alpha  occ. eigenvalues --   -0.39657  -0.39406  -0.37413  -0.37301  -0.35399
 Alpha  occ. eigenvalues --   -0.33674  -0.32795  -0.32133  -0.25113  -0.20357
 Alpha  occ. eigenvalues --   -0.20099  -0.18757  -0.15765  -0.14219  -0.12061
 Alpha  occ. eigenvalues --   -0.11086  -0.08617   0.01713
 Alpha virt. eigenvalues --    0.08478   0.10184   0.10440   0.13730   0.14326
 Alpha virt. eigenvalues --    0.17084   0.17857   0.18824   0.19020   0.20863
 Alpha virt. eigenvalues --    0.21327   0.22582   0.23774   0.24485   0.25137

  Beta  occ. eigenvalues --  -19.00718 -18.94815 -18.94720 -14.35917 -14.32084
  Beta  occ. eigenvalues --  -14.26102 -14.25715 -14.24468 -14.18566 -10.12905
  Beta  occ. eigenvalues --   -1.02713  -1.01976  -0.95073  -0.87426  -0.85332
  Beta  occ. eigenvalues --   -0.80743  -0.67394  -0.57794  -0.49598  -0.43797
  Beta  occ. eigenvalues --   -0.39205  -0.39023  -0.37223  -0.36630  -0.33628
  Beta  occ. eigenvalues --   -0.32506  -0.32044  -0.31062  -0.23741  -0.20240
  Beta  occ. eigenvalues --   -0.19805  -0.18079  -0.15218  -0.11563  -0.10885
  Beta  occ. eigenvalues --   -0.10540  -0.07378
  Beta virt. eigenvalues --    0.08620   0.08935   0.10431   0.12686   0.14031
  Beta virt. eigenvalues --    0.14363   0.17370   0.17885   0.18879   0.20165
  Beta virt. eigenvalues --    0.20904   0.21464   0.22640   0.23800   0.24829

 Mulliken charges and spin densities:
               1          2
     1  C   -0.160531   0.004977
     2  N   -0.215757   0.231429
     3  N   -0.216237   0.063119
     4  O   -0.187089   0.000390
     5  N   -0.237877  -0.052825
     6  N    0.370238   0.035312
     7  N   -0.171032   0.080273
     8  N   -0.237018   0.237158
     9  O   -0.242328   0.149032
    10  O   -0.181518   0.224928
    11  H    0.253808   0.000389
    12  H    0.225342   0.025819
 Sum of Mulliken charges =  -1.00000   1.00000

 Dipole moment (field-independent basis, Debye):
    X=              1.6763    Y=             -3.3929    Z=             -0.0214  Tot=              3.7844
 Quadrupole moment (field-independent basis, Debye-Ang):
   XX=            -79.9679   YY=            -72.9900   ZZ=            -62.7439
   XY=              6.2445   XZ=              0.6878   YZ=              1.8162

 Summary of Natural Population Analysis:

                                       Natural Population
                Natural  -----------------------------------------------
    Atom  No    Charge         Core      Valence    Rydberg      Total
 -----------------------------------------------------------------------
      C    1    0.20945      0.99954     1.76928    0.02173     2.79055
      N    2   -0.09814      0.99958     2.58071    0.01785     3.59814
      N    3   -0.06164      0.99973     2.54319    0.01872     3.56164
      O    4   -0.30137      0.99990     3.29257    0.00890     4.30137
      N    5   -0.18043      0.99964     2.66524    0.01555     3.68043
      N    6    0.13296      0.99971     2.35062    0.01671     3.36704
      N    7   -0.03848      0.99981     2.52422    0.01445     3.53848
      N    8    0.29990      0.99974     2.17080    0.02956     3.20010
      O    9   -0.22328      0.99989     3.21370    0.00969     4.22328
      O   10   -0.14893      0.99989     3.14124    0.00780     4.14893
      H   11    0.16669      0.00000     0.33038    0.00293     0.33331
      H   12    0.24326      0.00000     0.25210    0.00465     0.25674
 =======================================================================
   * Total *    0.00000      9.99743    26.83403    0.16853    37.00000

 Normal termination of Gaussian 16 at Tue Dec  8 14:02:02 2020.
