 Gaussian 16, Revision A.03,

 -----------------------------------------------------------
 # opt freq B3LYP/6-31G(d) empiricaldispersion=gd3bj scf=xqc
 -----------------------------------------------------------

 ------------------------------
 CID_89312127_JID_6404_neutraal
 ------------------------------
 Symbolic Z-matrix:
 Charge =  0 Multiplicity = 1

 SCF Done:  E(RB3LYP) =  -692.366846766     A.U. after   14 cycles
 SCF Done:  E(RB3LYP) =  -692.372637674     A.U. after   13 cycles
 SCF Done:  E(RB3LYP) =  -692.373865392     A.U. after   12 cycles
 SCF Done:  E(RB3LYP) =  -692.374244896     A.U. after   11 cycles
 SCF Done:  E(RB3LYP) =  -692.374424158     A.U. after   11 cycles
 SCF Done:  E(RB3LYP) =  -692.374469452     A.U. after   11 cycles
 SCF Done:  E(RB3LYP) =  -692.374479569     A.U. after   10 cycles
 SCF Done:  E(RB3LYP) =  -692.374481289     A.U. after    8 cycles
 SCF Done:  E(RB3LYP) =  -692.374481804     A.U. after    8 cycles
 SCF Done:  E(RB3LYP) =  -692.374482107     A.U. after    8 cycles
 SCF Done:  E(RB3LYP) =  -692.374482214     A.U. after    7 cycles
 Optimization completed.
    -- Stationary point found.
 Normal termination of Gaussian 16 at Thu Dec 10 22:32:13 2020.

 --------------------------------------------------------------------
 #N Geom=AllCheck Guess=TCheck SCRF=Check GenChk RB3LYP/6-31G(d) Freq
 --------------------------------------------------------------------

 Structure from the checkpoint file:  "JID_6404.chk"
 ------------------------------
 CID_89312127_JID_6404_neutraal
 ------------------------------
 Charge =  0 Multiplicity = 1

 SCF Done:  E(RB3LYP) =  -692.374482214     A.U. after    1 cycles

  Exact polarizability: 227.132  -4.244 160.272  14.653  -4.305  93.041
 Approx polarizability: 315.058 -13.684 295.289  25.715  -9.135 155.213

                      1                      2                      3
                      A                      A                      A
 Frequencies --     40.2497                54.4248                68.9515
 Red. masses --      3.9136                 5.8875                 3.7301
 Frc consts  --      0.0037                 0.0103                 0.0104
 IR Inten    --      2.0260                 0.7540                 0.7306

                      4                      5                      6
                      A                      A                      A
 Frequencies --     98.7564               155.5247               168.4952
 Red. masses --      4.7463                 3.7620                 3.1689
 Frc consts  --      0.0273                 0.0536                 0.0530
 IR Inten    --      0.1510                 0.5407                 2.4524

                      7                      8                      9
                      A                      A                      A
 Frequencies --    205.6433               258.6036               280.6181
 Red. masses --      4.2378                 4.2130                 3.5432
 Frc consts  --      0.1056                 0.1660                 0.1644
 IR Inten    --      0.3752                 1.5031                12.3878

                     10                     11                     12
                      A                      A                      A
 Frequencies --    303.1646               336.2780               360.8929
 Red. masses --      1.4701                 2.5237                 1.9303
 Frc consts  --      0.0796                 0.1681                 0.1481
 IR Inten    --     68.7273                17.8790                47.9227

                     13                     14                     15
                      A                      A                      A
 Frequencies --    365.5784               399.1678               413.3481
 Red. masses --      1.6601                 3.4677                 3.9580
 Frc consts  --      0.1307                 0.3255                 0.3984
 IR Inten    --     68.5113                 4.5799                 9.7569

                     16                     17                     18
                      A                      A                      A
 Frequencies --    426.8959               435.3237               487.8097
 Red. masses --      3.1927                 2.3043                 4.1553
 Frc consts  --      0.3428                 0.2573                 0.5826
 IR Inten    --      0.7965                10.7987                 3.7731

                     19                     20                     21
                      A                      A                      A
 Frequencies --    519.0399               539.9393               560.1283
 Red. masses --      2.7823                 3.4800                 3.0571
 Frc consts  --      0.4416                 0.5977                 0.5651
 IR Inten    --      0.4616                12.8519                24.6175

                     22                     23                     24
                      A                      A                      A
 Frequencies --    564.0452               638.4895               666.4921
 Red. masses --      3.8457                 4.1858                 4.7535
 Frc consts  --      0.7209                 1.0054                 1.2441
 IR Inten    --      8.1824                 7.6350                 0.2166

                     25                     26                     27
                      A                      A                      A
 Frequencies --    687.2256               710.1105               747.6772
 Red. masses --      5.4073                 1.2795                 3.1658
 Frc consts  --      1.5046                 0.3801                 1.0427
 IR Inten    --     14.6447                 6.0559                 2.6433

                     28                     29                     30
                      A                      A                      A
 Frequencies --    772.0624               806.8605               809.9633
 Red. masses --      2.5119                 2.2578                 3.7338
 Frc consts  --      0.8822                 0.8660                 1.4432
 IR Inten    --     13.8261                15.9731                22.1968

                     31                     32                     33
                      A                      A                      A
 Frequencies --    817.8746               852.8005               860.8476
 Red. masses --      1.3708                 1.6266                 1.5383
 Frc consts  --      0.5403                 0.6970                 0.6717
 IR Inten    --      7.6153                35.6608                25.9459

                     34                     35                     36
                      A                      A                      A
 Frequencies --    864.7643               879.5492               944.2834
 Red. masses --      3.2098                 1.4243                 1.4232
 Frc consts  --      1.4143                 0.6492                 0.7477
 IR Inten    --      8.1803                30.3028                 2.4355

                     37                     38                     39
                      A                      A                      A
 Frequencies --    946.0374               969.1723               983.1160
 Red. masses --      1.3448                 1.2954                 2.4449
 Frc consts  --      0.7091                 0.7169                 1.3923
 IR Inten    --      0.8232                 0.4110                 0.5113

                     40                     41                     42
                      A                      A                      A
 Frequencies --   1011.3132              1035.6741              1056.5537
 Red. masses --      2.1703                 2.7469                 2.0237
 Frc consts  --      1.3078                 1.7360                 1.3310
 IR Inten    --      7.7721                 1.9453                 2.6330

                     43                     44                     45
                      A                      A                      A
 Frequencies --   1100.0542              1102.2739              1135.9635
 Red. masses --      1.9048                 1.7127                 1.3513
 Frc consts  --      1.3581                 1.2260                 1.0273
 IR Inten    --      2.1753                 1.8856                14.7848

                     46                     47                     48
                      A                      A                      A
 Frequencies --   1169.1971              1205.6337              1206.4334
 Red. masses --      2.8586                 1.1516                 1.1578
 Frc consts  --      2.3024                 0.9863                 0.9929
 IR Inten    --     14.7722                 3.0291                85.5381

                     49                     50                     51
                      A                      A                      A
 Frequencies --   1212.1706              1226.6859              1259.6120
 Red. masses --      1.3638                 1.1695                 1.6941
 Frc consts  --      1.1807                 1.0369                 1.5837
 IR Inten    --    158.0344               132.4572               155.4879

                     52                     53                     54
                      A                      A                      A
 Frequencies --   1298.6125              1310.7572              1328.5123
 Red. masses --      2.3167                 3.4005                 1.9816
 Frc consts  --      2.3019                 3.4422                 2.0606
 IR Inten    --     38.5223               104.7942                10.8804

                     55                     56                     57
                      A                      A                      A
 Frequencies --   1351.0285              1367.8284              1379.5449
 Red. masses --      1.5620                 1.8887                 1.6016
 Frc consts  --      1.6798                 2.0820                 1.7959
 IR Inten    --     31.2217                 9.5339                10.2301

                     58                     59                     60
                      A                      A                      A
 Frequencies --   1382.8539              1428.0973              1439.7453
 Red. masses --      2.1731                 2.4195                 2.1830
 Frc consts  --      2.4484                 2.9073                 2.6661
 IR Inten    --     49.4759                12.8257               170.0603

                     61                     62                     63
                      A                      A                      A
 Frequencies --   1458.6466              1480.5262              1496.8968
 Red. masses --      1.4854                 2.2989                 1.0917
 Frc consts  --      1.8621                 2.9690                 1.4412
 IR Inten    --     11.9132                20.2178                 1.7503

                     64                     65                     66
                      A                      A                      A
 Frequencies --   1513.8253              1565.5499              1640.0838
 Red. masses --      1.1067                 2.7434                 6.4082
 Frc consts  --      1.4943                 3.9616                10.1560
 IR Inten    --      2.0676                81.2558               116.1757

                     67                     68                     69
                      A                      A                      A
 Frequencies --   1641.4479              1664.1527              1676.4576
 Red. masses --      5.1357                 4.3758                 5.9050
 Frc consts  --      8.1528                 7.1400                 9.7782
 IR Inten    --      6.3112                57.3382                69.4879

                     70                     71                     72
                      A                      A                      A
 Frequencies --   1738.1317              2995.1896              3003.9459
 Red. masses --      5.6692                 1.0706                 1.0669
 Frc consts  --     10.0910                 5.6586                 5.6726
 IR Inten    --    103.6662                23.5667                45.2999

                     73                     74                     75
                      A                      A                      A
 Frequencies --   3047.7216              3103.8784              3166.0463
 Red. masses --      1.0955                 1.0897                 1.0890
 Frc consts  --      5.9956                 6.1855                 6.4316
 IR Inten    --     45.6059                18.9576                27.6323

                     76                     77                     78
                      A                      A                      A
 Frequencies --   3180.3341              3203.2209              3205.1151
 Red. masses --      1.0583                 1.0877                 1.0884
 Frc consts  --      6.3068                 6.5758                 6.5876
 IR Inten    --      5.9414                17.3164                13.9205

                     79                     80                     81
                      A                      A                      A
 Frequencies --   3205.5642              3217.5466              3219.6768
 Red. masses --      1.0916                 1.0924                 1.0944
 Frc consts  --      6.6086                 6.6632                 6.6845
 IR Inten    --      7.7122                 9.1142                 8.5696

                     82                     83                     84
                      A                      A                      A
 Frequencies --   3258.2243              3750.9565              3756.6028
 Red. masses --      1.1159                 1.0659                 1.0662
 Frc consts  --      6.9797                 8.8357                 8.8647
 IR Inten    --     16.9420                50.4223                66.8291

 - Thermochemistry -
 -------------------
 Temperature   298.150 Kelvin.  Pressure   1.00000 Atm.
 Atom     1 has atomic number  6 and mass  12.00000

 Molecular mass:   214.09938 amu.
 Principal axes and moments of inertia in atomic units:
                           1         2         3
     Eigenvalues --  1463.981357272.898298242.36907
           X            0.99997   0.00418   0.00696
           Y           -0.00415   0.99998  -0.00380
           Z           -0.00697   0.00377   0.99997
 This molecule is an asymmetric top.
 Rotational symmetry number  1.
 Warning -- assumption of classical behavior for rotation
           may cause significant error
 Rotational temperatures (Kelvin)      0.05916     0.01191     0.01051
 Rotational constants (GHZ):           1.23276     0.24815     0.21896
 Zero-point vibrational energy     647170.7 (Joules/Mol)
                                  154.67751 (Kcal/Mol)
 Warning -- explicit consideration of  22 degrees of freedom as
           vibrations may cause significant error
 Vibrational temperatures:     57.91    78.31    99.21   142.09   223.77
          (Kelvin)            242.43   295.87   372.07   403.75   436.19
                              483.83   519.24   525.99   574.31   594.72
                              614.21   626.33   701.85   746.78   776.85
                              805.90   811.54   918.64   958.93   988.76
                             1021.69  1075.74  1110.83  1160.89  1165.36
                             1176.74  1226.99  1238.57  1244.20  1265.48
                             1358.61  1361.14  1394.42  1414.48  1455.05
                             1490.10  1520.15  1582.73  1585.93  1634.40
                             1682.21  1734.64  1735.79  1744.04  1764.93
                             1812.30  1868.41  1885.89  1911.43  1943.83
                             1968.00  1984.86  1989.62  2054.71  2071.47
                             2098.67  2130.15  2153.70  2178.06  2252.48
                             2359.71  2361.68  2394.34  2412.05  2500.78
                             4309.41  4322.01  4384.99  4465.79  4555.23
                             4575.79  4608.72  4611.45  4612.09  4629.33
                             4632.40  4687.86  5396.79  5404.91

 Zero-point correction=                           0.246494 (Hartree/Particle)
 Thermal correction to Energy=                    0.260614
 Thermal correction to Enthalpy=                  0.261559
 Thermal correction to Gibbs Free Energy=         0.205247
 Sum of electronic and zero-point Energies=           -692.127988
 Sum of electronic and thermal Energies=              -692.113868
 Sum of electronic and thermal Enthalpies=            -692.112924
 Sum of electronic and thermal Free Energies=         -692.169236

                     E (Thermal)             CV                S
                      KCal/Mol        Cal/Mol-Kelvin    Cal/Mol-Kelvin
 Total                  163.538             56.276            118.519
 Electronic               0.000              0.000              0.000
 Translational            0.889              2.981             41.987
 Rotational               0.889              2.981             32.840
 Vibrational            161.761             50.315             43.692
 Vibration     1          0.594              1.981              5.247
 Vibration     2          0.596              1.976              4.650
 Vibration     3          0.598              1.969              4.183
 Vibration     4          0.604              1.950              3.479
 Vibration     5          0.620              1.896              2.604
 Vibration     6          0.625              1.881              2.452
 Vibration     7          0.640              1.832              2.082
 Vibration     8          0.667              1.748              1.671
 Vibration     9          0.680              1.709              1.530
 Vibration    10          0.695              1.668              1.399
 Vibration    11          0.717              1.603              1.230
 Vibration    12          0.735              1.553              1.118
 Vibration    13          0.739              1.543              1.098
 Vibration    14          0.765              1.472              0.966
 Vibration    15          0.777              1.441              0.915
 Vibration    16          0.789              1.412              0.869
 Vibration    17          0.796              1.393              0.841
 Vibration    18          0.844              1.277              0.689
 Vibration    19          0.874              1.208              0.612
 Vibration    20          0.895              1.162              0.565
 Vibration    21          0.916              1.118              0.524
 Vibration    22          0.920              1.109              0.516

 Optimization completed.
    -- Stationary point found.
 Normal termination of Gaussian 16 at Thu Dec 10 22:41:19 2020.

 ----------------------------------------------------------------------
 # B3LYP/6-311++G(d,p) empiricaldispersion=gd3bj scf=xqc pop=npa geom=c
 heck
 ----------------------------------------------------------------------

 --------------------------------------
 CID_89312127_JID_6404_Energie_neutraal
 --------------------------------------
 Structure from the checkpoint file:  "JID_6404.chk"
 Charge =  0 Multiplicity = 1

 SCF Done:  E(RB3LYP) =  -692.576119698     A.U. after   15 cycles
 Normal termination of Gaussian 16 at Thu Dec 10 22:45:18 2020.

 ----------------------------------------------------------------------
 # B3LYP/6-311++G(d,p) empiricaldispersion=gd3bj scf=xqc pop=npa geom=c
 heck
 ----------------------------------------------------------------------

 ------------------------------------
 CID_89312127_JID_6404_Energie_kation
 ------------------------------------
 Structure from the checkpoint file:  "JID_6404.chk"
 Charge =  1 Multiplicity = 2

 SCF Done:  E(UB3LYP) =  -692.323765807     A.U. after   21 cycles
 Normal termination of Gaussian 16 at Thu Dec 10 22:53:09 2020.
 Gaussian 16:  ES64L-G16RevA.03 25-Dec-2016

 ----------------------------------------------------------------------
 # B3LYP/6-311++G(d,p) empiricaldispersion=gd3bj scf=xqc pop=npa geom=c
 heck
 ----------------------------------------------------------------------

 -----------------------------------
 CID_89312127_JID_6404_Energie_anion
 -----------------------------------
 Structure from the checkpoint file:  "JID_6404.chk"
 Charge = -1 Multiplicity = 2

                         Standard orientation:
 ---------------------------------------------------------------------
 Center     Atomic      Atomic             Coordinates (Angstroms)
 Number     Number       Type             X           Y           Z
 ---------------------------------------------------------------------
      1          6           0       -0.073500    2.719960    0.158265
      2          6           0       -0.043550    1.373339    0.057880
      3          6           0        1.214773    0.623371   -0.055253
      4          6           0        1.273440   -0.641879   -0.544954
      5          6           0        2.519722   -1.362664   -0.724748
      6          6           0        3.653951   -0.898491   -0.164317
      7          6           0        3.629615    0.347833    0.680484
      8          6           0        2.531458    1.322251    0.231300
      9          8           0        4.816509   -1.607554   -0.248011
     10          6           0       -1.330259    0.621477    0.044185
     11          6           0       -2.382796    1.019093   -0.789665
     12          6           0       -3.607828    0.354579   -0.778265
     13          6           0       -3.801701   -0.732084    0.078059
     14          6           0       -2.762736   -1.148312    0.917106
     15          6           0       -1.545666   -0.478493    0.892031
     16          8           0       -4.977909   -1.428291    0.136011
     17          1           0        0.825030    3.326971    0.130875
     18          1           0       -1.014127    3.249485    0.266992
     19          1           0        0.359584   -1.143552   -0.846021
     20          1           0        2.527894   -2.303206   -1.265685
     21          1           0        4.604465    0.854461    0.650841
     22          1           0        3.463019    0.049590    1.728639
     23          1           0        2.405675    2.092420    0.997476
     24          1           0        2.863520    1.840262   -0.682766
     25          1           0        5.525471   -1.099598    0.174447
     26          1           0       -2.232120    1.854113   -1.467099
     27          1           0       -4.409076    0.674846   -1.441958
     28          1           0       -2.929015   -1.991071    1.580208
     29          1           0       -0.744093   -0.804456    1.547173
     30          1           0       -5.604566   -1.033389   -0.489759
 ---------------------------------------------------------------------

 SCF Done:  E(UB3LYP) =  -692.574920330     A.U. after   33 cycles
 SCF Done:  E(UB3LYP) =  -692.574920330     a.u. after    1 cycles

 The electronic state is 2-A.
 Alpha  occ. eigenvalues --  -19.05645 -19.04277 -10.13344 -10.10418 -10.07219
 Alpha  occ. eigenvalues --  -10.07083 -10.07051 -10.06989 -10.06925 -10.06832
 Alpha  occ. eigenvalues --  -10.05871 -10.05728 -10.04197 -10.03694 -10.03626
 Alpha  occ. eigenvalues --  -10.02758  -0.96657  -0.95207  -0.75546  -0.72550
 Alpha  occ. eigenvalues --   -0.68032  -0.64885  -0.63272  -0.62426  -0.59482
 Alpha  occ. eigenvalues --   -0.52670  -0.52098  -0.50886  -0.48757  -0.44556
 Alpha  occ. eigenvalues --   -0.43715  -0.42158  -0.39762  -0.37122  -0.36623
 Alpha  occ. eigenvalues --   -0.34345  -0.33956  -0.33467  -0.32360  -0.31934
 Alpha  occ. eigenvalues --   -0.31162  -0.30014  -0.29106  -0.28508  -0.28214
 Alpha  occ. eigenvalues --   -0.26069  -0.25409  -0.25095  -0.24001  -0.23612
 Alpha  occ. eigenvalues --   -0.21606  -0.20606  -0.19108  -0.15801  -0.15408
 Alpha  occ. eigenvalues --   -0.11591  -0.07224   0.03872
 Alpha virt. eigenvalues --    0.05177   0.06060   0.08319   0.08646   0.09017
 Alpha virt. eigenvalues --    0.09138   0.09430   0.10357   0.10594   0.10762
 Alpha virt. eigenvalues --    0.11784   0.12252   0.12869   0.13380   0.14026

  Beta  occ. eigenvalues --  -19.05609 -19.04189 -10.13329 -10.10137 -10.07205
  Beta  occ. eigenvalues --  -10.07085 -10.07051 -10.06968 -10.06920 -10.06830
  Beta  occ. eigenvalues --  -10.05863 -10.05680 -10.04152 -10.03716 -10.03494
  Beta  occ. eigenvalues --  -10.02606  -0.96583  -0.94975  -0.75494  -0.72362
  Beta  occ. eigenvalues --   -0.67860  -0.64849  -0.63147  -0.62264  -0.59220
  Beta  occ. eigenvalues --   -0.52565  -0.52040  -0.50639  -0.48582  -0.44501
  Beta  occ. eigenvalues --   -0.43533  -0.41964  -0.39681  -0.36979  -0.36512
  Beta  occ. eigenvalues --   -0.34266  -0.33777  -0.33366  -0.32320  -0.31850
  Beta  occ. eigenvalues --   -0.31091  -0.29923  -0.28795  -0.28443  -0.28034
  Beta  occ. eigenvalues --   -0.25956  -0.25221  -0.24885  -0.23951  -0.23557
  Beta  occ. eigenvalues --   -0.21509  -0.20504  -0.18525  -0.15597  -0.15004
  Beta  occ. eigenvalues --   -0.11378  -0.06316
  Beta virt. eigenvalues --    0.06510   0.06809   0.07634   0.08455   0.08677
  Beta virt. eigenvalues --    0.09091   0.09333   0.09732   0.10293   0.10753
  Beta virt. eigenvalues --    0.10976   0.11789   0.12373   0.12780   0.13354

 Mulliken charges and spin densities:
               1          2
     1  C   -0.577094   0.136502
     2  C    0.162044   0.065338
     3  C    0.942245  -0.401111
     4  C   -0.432597   0.200982
     5  C    0.305894  -0.561307
     6  C   -0.177665   0.165460
     7  C   -0.210557  -0.217527
     8  C   -1.153048   0.307229
     9  O   -0.238384   0.024134
    10  C    1.362112   0.094002
    11  C   -0.829317   0.566292
    12  C    0.045221  -0.173802
    13  C    0.429994  -0.938047
    14  C   -0.136284  -0.165902
    15  C   -0.691878   0.020212
    16  O   -0.268395   0.030165
    17  H    0.075147   0.040243
    18  H    0.130699  -0.027161
    19  H    0.144478  -0.006630
    20  H    0.165250  -0.002183
    21  H   -0.321440   0.457568
    22  H    0.158356   0.000349
    23  H    0.178135  -0.040785
    24  H    0.038825   0.108786
    25  H   -0.047875   0.309556
    26  H    0.136921   0.055958
    27  H   -0.465471   0.607562
    28  H    0.170823  -0.000484
    29  H    0.184595  -0.003237
    30  H   -0.080735   0.347839
 Sum of Mulliken charges =  -1.00000   1.00000

 Dipole moment (field-independent basis, Debye):
    X=             -0.3602    Y=              0.1767    Z=              1.9630  Tot=              2.0035
 Quadrupole moment (field-independent basis, Debye-Ang):
   XX=           -192.1918   YY=           -120.9819   ZZ=           -111.6706
   XY=              0.9062   XZ=              0.0664   YZ=             -1.2944

 Summary of Natural Population Analysis:

                                       Natural Population
                Natural  -----------------------------------------------
    Atom  No    Charge         Core      Valence    Rydberg      Total
 -----------------------------------------------------------------------
      C    1   -0.17976      0.99952     2.17266    0.00758     3.17976
      C    2   -0.01666      0.99940     2.00647    0.01079     3.01666
      C    3   -0.03336      0.99946     2.02387    0.01002     3.03336
      C    4   -0.05343      0.99950     2.04550    0.00844     3.05343
      C    5   -0.18607      0.99949     2.17711    0.00947     3.18607
      C    6    0.22718      0.99939     1.75949    0.01394     2.77282
      C    7   -0.21788      0.99960     2.20860    0.00969     3.21788
      C    8   -0.19419      0.99961     2.18503    0.00954     3.19419
      O    9   -0.33766      0.99987     3.33086    0.00693     4.33766
      C   10   -0.03406      0.99948     2.02367    0.01091     3.03406
      C   11   -0.08268      0.99953     2.07391    0.00924     3.08268
      C   12   -0.14359      0.99952     2.13397    0.01010     3.14359
      C   13    0.15527      0.99938     1.83233    0.01302     2.84473
      C   14   -0.13055      0.99952     2.12163    0.00940     3.13055
      C   15   -0.08346      0.99953     2.07680    0.00713     3.08346
      O   16   -0.34368      0.99988     3.33706    0.00675     4.34368
      H   17    0.08807      0.00000     0.41111    0.00083     0.41193
      H   18    0.08834      0.00000     0.41079    0.00087     0.41166
      H   19    0.09816      0.00000     0.40060    0.00124     0.40184
      H   20    0.10007      0.00000     0.39881    0.00112     0.39993
      H   21    0.09971      0.00000     0.39803    0.00227     0.40029
      H   22    0.10207      0.00000     0.39673    0.00120     0.39793
      H   23    0.10111      0.00000     0.39779    0.00110     0.39889
      H   24    0.09760      0.00000     0.40067    0.00173     0.40240
      H   25    0.23334      0.00000     0.26221    0.00445     0.26666
      H   26    0.10334      0.00000     0.39530    0.00135     0.39666
      H   27    0.09940      0.00000     0.39905    0.00155     0.40060
      H   28    0.10234      0.00000     0.39674    0.00092     0.39766
      H   29    0.10558      0.00000     0.39337    0.00105     0.39442
      H   30    0.23546      0.00000     0.25953    0.00501     0.26454
 =======================================================================
   * Total *    0.00001     15.99268    40.82969    0.17762    56.99999

 Normal termination of Gaussian 16 at Thu Dec 10 23:04:20 2020.
