 Gaussian 16, Revision A.03,

 -----------------------------------------------------------
 # opt freq B3LYP/6-31G(d) empiricaldispersion=gd3bj scf=xqc
 -----------------------------------------------------------

 ------------------------------
 CID_82722589_JID_4414_neutraal
 ------------------------------
 Symbolic Z-matrix:
 Charge =  0 Multiplicity = 1

 SCF Done:  E(RB3LYP) =  -1061.40197785     A.U. after   16 cycles
 SCF Done:  E(RB3LYP) =  -1061.40444520     A.U. after   14 cycles
 SCF Done:  E(RB3LYP) =  -1061.40070027     A.U. after   14 cycles
 SCF Done:  E(RB3LYP) =  -1061.40654517     A.U. after   13 cycles
 SCF Done:  E(RB3LYP) =  -1061.40711030     A.U. after   14 cycles
 SCF Done:  E(RB3LYP) =  -1061.40821878     A.U. after   13 cycles
 SCF Done:  E(RB3LYP) =  -1061.40835491     A.U. after   12 cycles
 SCF Done:  E(RB3LYP) =  -1061.40841073     A.U. after   11 cycles
 SCF Done:  E(RB3LYP) =  -1061.40844427     A.U. after   10 cycles
 SCF Done:  E(RB3LYP) =  -1061.40845340     A.U. after   10 cycles
 SCF Done:  E(RB3LYP) =  -1061.40845591     A.U. after    9 cycles
 SCF Done:  E(RB3LYP) =  -1061.40845754     A.U. after    9 cycles
 SCF Done:  E(RB3LYP) =  -1061.40845858     A.U. after    9 cycles
 SCF Done:  E(RB3LYP) =  -1061.40845918     A.U. after    9 cycles
 SCF Done:  E(RB3LYP) =  -1061.40845929     A.U. after    7 cycles
 Optimization completed.
    -- Stationary point found.
 Normal termination of Gaussian 16 at Thu Dec 10 09:40:56 2020.

 --------------------------------------------------------------------
 #N Geom=AllCheck Guess=TCheck SCRF=Check GenChk RB3LYP/6-31G(d) Freq
 --------------------------------------------------------------------

 Structure from the checkpoint file:  "JID_4414.chk"
 ------------------------------
 CID_82722589_JID_4414_neutraal
 ------------------------------
 Charge =  0 Multiplicity = 1

 SCF Done:  E(RB3LYP) =  -1061.40845929     A.U. after    2 cycles

  Exact polarizability: 139.268   0.174 123.884 -16.306  -8.628  91.341
 Approx polarizability: 187.900   3.147 235.102 -35.935 -18.656 148.947

                      1                      2                      3
                      A                      A                      A
 Frequencies --     24.2139                34.2161                45.5262
 Red. masses --      5.5984                 3.3271                 4.4189
 Frc consts  --      0.0019                 0.0023                 0.0054
 IR Inten    --      0.5879                 0.4079                 0.5539

                      4                      5                      6
                      A                      A                      A
 Frequencies --     83.8562               100.3551               135.5436
 Red. masses --      2.8699                 4.6182                 6.2234
 Frc consts  --      0.0119                 0.0274                 0.0674
 IR Inten    --      1.9518                 3.1814                 0.0761

                      7                      8                      9
                      A                      A                      A
 Frequencies --    145.4927               166.3106               191.7682
 Red. masses --      2.5797                 4.7768                 1.5146
 Frc consts  --      0.0322                 0.0778                 0.0328
 IR Inten    --      4.4680                 1.5279                 4.6950

                     10                     11                     12
                      A                      A                      A
 Frequencies --    208.3811               228.5589               266.7903
 Red. masses --      1.8881                 1.9893                 3.6047
 Frc consts  --      0.0483                 0.0612                 0.1512
 IR Inten    --      9.2375                 3.6643                 7.3856

                     13                     14                     15
                      A                      A                      A
 Frequencies --    285.0072               314.9843               325.2084
 Red. masses --      3.4654                 4.4751                 4.0323
 Frc consts  --      0.1658                 0.2616                 0.2513
 IR Inten    --      1.5716                 2.5780                 2.6057

                     16                     17                     18
                      A                      A                      A
 Frequencies --    420.2230               441.8438               500.7791
 Red. masses --      4.1506                 2.3051                 6.6298
 Frc consts  --      0.4318                 0.2651                 0.9796
 IR Inten    --      5.9938                 1.6442                 6.0900

                     19                     20                     21
                      A                      A                      A
 Frequencies --    510.9223               523.2157               575.7369
 Red. masses --      3.9693                 6.5002                 7.3667
 Frc consts  --      0.6105                 1.0484                 1.4387
 IR Inten    --     12.2551                15.3112                27.2378

                     22                     23                     24
                      A                      A                      A
 Frequencies --    614.9885               657.5797               678.2196
 Red. masses --      6.0416                 5.2770                 4.3142
 Frc consts  --      1.3463                 1.3444                 1.1692
 IR Inten    --      4.6628                22.1446                30.8210

                     25                     26                     27
                      A                      A                      A
 Frequencies --    741.4952               798.8725               841.7158
 Red. masses --      3.8882                 2.5881                 8.9285
 Frc consts  --      1.2596                 0.9732                 3.7270
 IR Inten    --     36.3012               136.7582                41.7082

                     28                     29                     30
                      A                      A                      A
 Frequencies --    876.9672               897.2815               996.3894
 Red. masses --      2.7361                 2.2586                 2.3768
 Frc consts  --      1.2398                 1.0714                 1.3903
 IR Inten    --     12.7511                48.3463                 3.9845

                     31                     32                     33
                      A                      A                      A
 Frequencies --   1018.3757              1036.3996              1078.6324
 Red. masses --      2.6620                 4.4179                 1.5356
 Frc consts  --      1.6266                 2.7959                 1.0526
 IR Inten    --     53.2163                14.7155                 5.3448

                     34                     35                     36
                      A                      A                      A
 Frequencies --   1082.2342              1099.8790              1123.6428
 Red. masses --      3.2591                 4.0128                 2.4109
 Frc consts  --      2.2490                 2.8601                 1.7934
 IR Inten    --     18.1609                65.4813                31.2458

                     37                     38                     39
                      A                      A                      A
 Frequencies --   1144.4754              1184.6713              1190.7011
 Red. masses --      3.7698                 2.7116                 1.3304
 Frc consts  --      2.9093                 2.2422                 1.1113
 IR Inten    --     23.0669                38.6355                 2.2232

                     40                     41                     42
                      A                      A                      A
 Frequencies --   1237.9025              1278.3383              1294.8195
 Red. masses --      1.7713                 1.1954                 4.9790
 Frc consts  --      1.5992                 1.1510                 4.9183
 IR Inten    --     65.8192                18.8049                33.9033

                     43                     44                     45
                      A                      A                      A
 Frequencies --   1343.8430              1370.2224              1403.0517
 Red. masses --      1.1933                 7.7240                 1.2668
 Frc consts  --      1.2697                 8.5442                 1.4693
 IR Inten    --     30.4655                34.7380                18.2042

                     46                     47                     48
                      A                      A                      A
 Frequencies --   1406.3003              1430.3712              1442.8686
 Red. masses --      4.8084                 1.2609                 1.3538
 Frc consts  --      5.6028                 1.5199                 1.6605
 IR Inten    --    163.9187                18.2226                 4.4534

                     49                     50                     51
                      A                      A                      A
 Frequencies --   1461.3184              1496.4121              1507.0335
 Red. masses --      1.4459                 1.0984                 1.1346
 Frc consts  --      1.8192                 1.4491                 1.5183
 IR Inten    --     14.4238                 0.3409                 8.7926

                     52                     53                     54
                      A                      A                      A
 Frequencies --   1511.4090              1513.8384              1520.8784
 Red. masses --      1.1086                 1.0824                 1.0817
 Frc consts  --      1.4921                 1.4616                 1.4742
 IR Inten    --     11.5853                16.6221                 6.1934

                     55                     56                     57
                      A                      A                      A
 Frequencies --   1537.8885              1545.3670              1569.7768
 Red. masses --      1.0608                 1.1230                 4.2828
 Frc consts  --      1.4782                 1.5801                 6.2181
 IR Inten    --      7.4982                20.3587                18.2930

                     58                     59                     60
                      A                      A                      A
 Frequencies --   1766.2226              2990.1681              2998.1966
 Red. masses --      9.6974                 1.0596                 1.0487
 Frc consts  --     17.8236                 5.5821                 5.5539
 IR Inten    --    270.8764                35.8023                51.3621

                     61                     62                     63
                      A                      A                      A
 Frequencies --   3029.0567              3045.8374              3068.2442
 Red. masses --      1.0685                 1.0975                 1.0393
 Frc consts  --      5.7763                 5.9989                 5.7644
 IR Inten    --     66.9116                56.3424                11.9406

                     64                     65                     66
                      A                      A                      A
 Frequencies --   3081.3480              3107.3805              3132.5983
 Red. masses --      1.0980                 1.0938                 1.0981
 Frc consts  --      6.1425                 6.2224                 6.3490
 IR Inten    --     35.6692                41.8126                 9.5021

                     67                     68                     69
                      A                      A                      A
 Frequencies --   3146.0575              3161.7584              3480.5034
 Red. masses --      1.0965                 1.1035                 1.0763
 Frc consts  --      6.3943                 6.4996                 7.6821
 IR Inten    --     25.5638                 6.3996                13.5228

 - Thermochemistry -
 -------------------
 Temperature   298.150 Kelvin.  Pressure   1.00000 Atm.
 Atom     1 has atomic number  6 and mass  12.00000

 Molecular mass:   217.05211 amu.
 Principal axes and moments of inertia in atomic units:
                           1         2         3
     Eigenvalues --  1722.520535620.108816252.26900
           X            0.99999  -0.00112   0.00523
           Y            0.00139   0.99868  -0.05132
           Z           -0.00517   0.05133   0.99867
 This molecule is an asymmetric top.
 Rotational symmetry number  1.
 Warning -- assumption of classical behavior for rotation
           may cause significant error
 Rotational temperatures (Kelvin)      0.05028     0.01541     0.01385
 Rotational constants (GHZ):           1.04773     0.32112     0.28865
 Zero-point vibrational energy     505245.6 (Joules/Mol)
                                  120.75659 (Kcal/Mol)
 Warning -- explicit consideration of  22 degrees of freedom as
           vibrations may cause significant error
 Vibrational temperatures:     34.84    49.23    65.50   120.65   144.39
          (Kelvin)            195.02   209.33   239.28   275.91   299.81
                              328.85   383.85   410.06   453.19   467.90
                              604.61   635.71   720.51   735.10   752.79
                              828.36   884.83   946.11   975.81  1066.85
                             1149.40  1211.04  1261.76  1290.99  1433.58
                             1465.22  1491.15  1551.91  1557.09  1582.48
                             1616.67  1646.64  1704.48  1713.15  1781.07
                             1839.24  1862.96  1933.49  1971.44  2018.68
                             2023.35  2057.99  2075.97  2102.51  2153.00
                             2168.29  2174.58  2178.08  2188.20  2212.68
                             2223.44  2258.56  2541.20  4302.18  4313.74
                             4358.14  4382.28  4414.52  4433.37  4470.83
                             4507.11  4526.48  4549.07  5007.67

 Zero-point correction=                           0.192438 (Hartree/Particle)
 Thermal correction to Energy=                    0.207172
 Thermal correction to Enthalpy=                  0.208116
 Thermal correction to Gibbs Free Energy=         0.148413
 Sum of electronic and zero-point Energies=          -1061.216021
 Sum of electronic and thermal Energies=             -1061.201288
 Sum of electronic and thermal Enthalpies=           -1061.200343
 Sum of electronic and thermal Free Energies=        -1061.260046

                     E (Thermal)             CV                S
                      KCal/Mol        Cal/Mol-Kelvin    Cal/Mol-Kelvin
 Total                  130.002             51.759            125.655
 Electronic               0.000              0.000              0.000
 Translational            0.889              2.981             42.028
 Rotational               0.889              2.981             32.470
 Vibrational            128.225             45.798             51.157
 Vibration     1          0.593              1.985              6.255
 Vibration     2          0.594              1.983              5.569
 Vibration     3          0.595              1.979              5.003
 Vibration     4          0.601              1.960              3.799
 Vibration     5          0.604              1.949              3.447
 Vibration     6          0.613              1.918              2.866
 Vibration     7          0.617              1.908              2.730
 Vibration     8          0.624              1.884              2.477
 Vibration     9          0.634              1.851              2.211
 Vibration    10          0.642              1.828              2.058
 Vibration    11          0.651              1.797              1.890
 Vibration    12          0.672              1.734              1.617
 Vibration    13          0.683              1.701              1.503
 Vibration    14          0.702              1.645              1.336
 Vibration    15          0.709              1.625              1.284
 Vibration    16          0.783              1.426              0.891
 Vibration    17          0.802              1.379              0.821
 Vibration    18          0.856              1.248              0.656
 Vibration    19          0.866              1.226              0.631
 Vibration    20          0.878              1.199              0.603
 Vibration    21          0.932              1.084              0.493
 Vibration    22          0.974              1.000              0.425

 Optimization completed.
    -- Stationary point found.
 Normal termination of Gaussian 16 at Thu Dec 10 09:46:49 2020.

 ----------------------------------------------------------------------
 # B3LYP/6-311++G(d,p) empiricaldispersion=gd3bj scf=xqc pop=npa geom=c
 heck
 ----------------------------------------------------------------------

 --------------------------------------
 CID_82722589_JID_4414_Energie_neutraal
 --------------------------------------
 Structure from the checkpoint file:  "JID_4414.chk"
 Charge =  0 Multiplicity = 1

 SCF Done:  E(RB3LYP) =  -1061.62835378     A.U. after   16 cycles
 Normal termination of Gaussian 16 at Thu Dec 10 09:49:30 2020.

 ----------------------------------------------------------------------
 # B3LYP/6-311++G(d,p) empiricaldispersion=gd3bj scf=xqc pop=npa geom=c
 heck
 ----------------------------------------------------------------------

 ------------------------------------
 CID_82722589_JID_4414_Energie_kation
 ------------------------------------
 Structure from the checkpoint file:  "JID_4414.chk"
 Charge =  1 Multiplicity = 2

 SCF Done:  E(UB3LYP) =  -1061.29475603     A.U. after   33 cycles
 SCF Done:  E(UB3LYP) =  -1061.29475603     a.u. after    1 cycles
 Normal termination of Gaussian 16 at Thu Dec 10 09:56:44 2020.
 Gaussian 16:  ES64L-G16RevA.03 25-Dec-2016

 ----------------------------------------------------------------------
 # B3LYP/6-311++G(d,p) empiricaldispersion=gd3bj scf=xqc pop=npa geom=c
 heck
 ----------------------------------------------------------------------

 -----------------------------------
 CID_82722589_JID_4414_Energie_anion
 -----------------------------------
 Structure from the checkpoint file:  "JID_4414.chk"
 Charge = -1 Multiplicity = 2

                         Standard orientation:
 ---------------------------------------------------------------------
 Center     Atomic      Atomic             Coordinates (Angstroms)
 Number     Number       Type             X           Y           Z
 ---------------------------------------------------------------------
      1          6           0        0.619600   -1.575750    1.554483
      2          6           0        1.553771   -1.013738    0.531607
      3          6           0        1.643063    0.280611    0.058762
      4         16           0        2.952698    0.374900   -1.049004
      5          7           0        3.292564   -1.306396   -0.863356
      6          7           0        2.500865   -1.849019   -0.017464
      7          6           0        0.919043    1.521078    0.420302
      8          8           0        1.472741    2.610298    0.459327
      9          7           0       -0.423176    1.418237    0.771346
     10          8           0       -1.166856    0.432058    0.083594
     11          6           0       -2.296275    0.053533    0.873689
     12          6           0       -3.049749   -1.017724    0.097526
     13          8           0       -3.603875   -0.570195   -1.119559
     14          6           0       -4.779299    0.200383   -0.971256
     15          1           0       -0.240200   -2.053830    1.072884
     16          1           0        1.139793   -2.336631    2.142213
     17          1           0        0.249366   -0.795449    2.222491
     18          1           0       -0.878395    2.328774    0.691427
     19          1           0       -1.970546   -0.338960    1.844607
     20          1           0       -2.931077    0.932135    1.057686
     21          1           0       -2.354692   -1.822087   -0.164448
     22          1           0       -3.827328   -1.437700    0.757968
     23          1           0       -5.548923   -0.344346   -0.401226
     24          1           0       -4.595443    1.164126   -0.472911
     25          1           0       -5.154507    0.398167   -1.977876
 ---------------------------------------------------------------------

 SCF Done:  E(UB3LYP) =  -1061.65484316     A.U. after   30 cycles

 The electronic state is 2-A.
 Alpha  occ. eigenvalues --  -88.71459 -19.05204 -19.04907 -18.94036 -14.24457
 Alpha  occ. eigenvalues --  -14.17939 -14.17861 -10.14291 -10.13877 -10.12991
 Alpha  occ. eigenvalues --  -10.11833 -10.04947 -10.04330 -10.03823  -7.80077
 Alpha  occ. eigenvalues --   -5.76424  -5.75988  -5.75679  -0.98004  -0.96087
 Alpha  occ. eigenvalues --   -0.89090  -0.86892  -0.74131  -0.66589  -0.65904
 Alpha  occ. eigenvalues --   -0.64406  -0.60513  -0.55900  -0.52042  -0.50752
 Alpha  occ. eigenvalues --   -0.44178  -0.42635  -0.41819  -0.40804  -0.39190
 Alpha  occ. eigenvalues --   -0.38755  -0.35729  -0.34091  -0.32297  -0.31121
 Alpha  occ. eigenvalues --   -0.30198  -0.29707  -0.29557  -0.27839  -0.26449
 Alpha  occ. eigenvalues --   -0.26292  -0.25103  -0.23894  -0.21144  -0.20041
 Alpha  occ. eigenvalues --   -0.18720  -0.17841  -0.14026  -0.13052  -0.11528
 Alpha  occ. eigenvalues --   -0.10610  -0.08898   0.03808
 Alpha virt. eigenvalues --    0.05366   0.07638   0.08312   0.09375   0.10530
 Alpha virt. eigenvalues --    0.11103   0.11537   0.12573   0.13114   0.13529
 Alpha virt. eigenvalues --    0.14087   0.14508   0.14783   0.15430   0.15997

  Beta  occ. eigenvalues --  -88.71364 -19.05147 -19.04905 -18.93698 -14.24399
  Beta  occ. eigenvalues --  -14.17879 -14.17239 -10.14287 -10.13875 -10.12987
  Beta  occ. eigenvalues --  -10.11578 -10.04833 -10.04339 -10.03604  -7.79992
  Beta  occ. eigenvalues --   -5.76376  -5.75945  -5.75373  -0.97873  -0.96062
  Beta  occ. eigenvalues --   -0.88492  -0.86271  -0.73956  -0.66373  -0.65567
  Beta  occ. eigenvalues --   -0.63966  -0.60478  -0.55525  -0.51999  -0.50056
  Beta  occ. eigenvalues --   -0.44027  -0.42473  -0.41578  -0.40535  -0.39119
  Beta  occ. eigenvalues --   -0.38720  -0.35584  -0.33778  -0.32151  -0.30776
  Beta  occ. eigenvalues --   -0.29861  -0.29594  -0.29289  -0.27566  -0.26170
  Beta  occ. eigenvalues --   -0.25219  -0.24296  -0.23265  -0.20872  -0.19663
  Beta  occ. eigenvalues --   -0.18660  -0.17351  -0.13093  -0.12133  -0.10732
  Beta  occ. eigenvalues --   -0.08626  -0.08372
  Beta virt. eigenvalues --    0.05317   0.07565   0.08233   0.09306   0.10443
  Beta virt. eigenvalues --    0.10500   0.11056   0.11488   0.12621   0.13101
  Beta virt. eigenvalues --    0.14069   0.14091   0.14861   0.15196   0.15787

 Mulliken charges and spin densities:
               1          2
     1  C   -0.647965   0.003510
     2  C   -0.789057   0.067736
     3  C    0.745424   0.110973
     4  S   -0.024452   0.164891
     5  N   -0.193884   0.284786
     6  N   -0.028878  -0.014302
     7  C   -0.014790   0.180231
     8  O   -0.391847   0.114547
     9  N   -0.401425   0.026785
    10  O    0.139547   0.011815
    11  C   -0.147169   0.017684
    12  C   -0.380252  -0.073424
    13  O   -0.111707   0.007622
    14  C   -0.224822  -0.043040
    15  H    0.080166   0.018877
    16  H    0.158339   0.002043
    17  H    0.118223  -0.001579
    18  H    0.286489  -0.001182
    19  H    0.104325   0.020545
    20  H    0.100190   0.017329
    21  H    0.231670  -0.004237
    22  H    0.071061   0.036582
    23  H    0.079221   0.031001
    24  H    0.113687   0.006486
    25  H    0.127905   0.014321
 Sum of Mulliken charges =  -1.00000   1.00000

 Dipole moment (field-independent basis, Debye):
    X=            -11.9477    Y=              0.0132    Z=              2.5289  Tot=             12.2124
 Quadrupole moment (field-independent basis, Debye-Ang):
   XX=           -127.4523   YY=           -117.5269   ZZ=           -101.1537
   XY=              0.7980   XZ=              1.2727   YZ=             -5.7990

 Summary of Natural Population Analysis:

                                       Natural Population
                Natural  -----------------------------------------------
    Atom  No    Charge         Core      Valence    Rydberg      Total
 -----------------------------------------------------------------------
      C    1   -0.29500      0.99963     2.28994    0.00543     3.29500
      C    2    0.06634      0.99947     1.91705    0.01715     2.93366
      C    3   -0.12356      0.99941     2.11097    0.01318     3.12356
      S    4    0.29127      4.99947     2.68256    0.02670     7.70873
      N    5   -0.08936      0.99982     2.57073    0.01881     3.58936
      N    6   -0.14554      0.99970     2.62749    0.01835     3.64554
      C    7    0.35234      0.99962     1.62627    0.02176     2.64766
      O    8   -0.28566      0.99988     3.27968    0.00609     4.28566
      N    9   -0.17442      0.99964     2.65948    0.01530     3.67442
      O   10   -0.21578      0.99989     3.20500    0.01090     4.21578
      C   11   -0.02332      0.99960     2.01251    0.01121     3.02332
      C   12   -0.02042      0.99958     2.00818    0.01266     3.02042
      O   13   -0.29104      0.99989     3.28052    0.01064     4.29104
      C   14   -0.09955      0.99962     2.09104    0.00888     3.09955
      H   15    0.09622      0.00000     0.40236    0.00142     0.40378
      H   16    0.10237      0.00000     0.39645    0.00118     0.39763
      H   17    0.10148      0.00000     0.39756    0.00096     0.39852
      H   18    0.17414      0.00000     0.32376    0.00210     0.32586
      H   19    0.08828      0.00000     0.40880    0.00293     0.41172
      H   20    0.07548      0.00000     0.42250    0.00202     0.42452
      H   21    0.10040      0.00000     0.39794    0.00166     0.39960
      H   22    0.07465      0.00000     0.42339    0.00196     0.42535
      H   23    0.07316      0.00000     0.42492    0.00192     0.42684
      H   24    0.07762      0.00000     0.42086    0.00152     0.42238
      H   25    0.08992      0.00000     0.40903    0.00104     0.41008
 =======================================================================
   * Total *   -0.00000     17.99521    38.78899    0.21580    57.00000

 Normal termination of Gaussian 16 at Thu Dec 10 10:02:57 2020.
