 Gaussian 16, Revision A.03,

 -----------------------------------------------------------
 # opt freq B3LYP/6-31G(d) empiricaldispersion=gd3bj scf=xqc
 -----------------------------------------------------------

 -------------------------------
 CID_130777306_JID_1321_neutraal
 -------------------------------
 Symbolic Z-matrix:
 Charge =  0 Multiplicity = 1

 SCF Done:  E(RB3LYP) =  -836.995116690     A.U. after   14 cycles
 SCF Done:  E(RB3LYP) =  -837.005060103     A.U. after   12 cycles
 SCF Done:  E(RB3LYP) =  -837.006150363     A.U. after   12 cycles
 SCF Done:  E(RB3LYP) =  -837.006513425     A.U. after   13 cycles
 SCF Done:  E(RB3LYP) =  -837.006793110     A.U. after   11 cycles
 SCF Done:  E(RB3LYP) =  -837.007000586     A.U. after   11 cycles
 SCF Done:  E(RB3LYP) =  -837.007112813     A.U. after   12 cycles
 SCF Done:  E(RB3LYP) =  -837.007171616     A.U. after   10 cycles
 SCF Done:  E(RB3LYP) =  -837.007209625     A.U. after   11 cycles
 SCF Done:  E(RB3LYP) =  -837.007233368     A.U. after   11 cycles
 SCF Done:  E(RB3LYP) =  -837.007243815     A.U. after   10 cycles
 SCF Done:  E(RB3LYP) =  -837.007248711     A.U. after    9 cycles
 SCF Done:  E(RB3LYP) =  -837.007249898     A.U. after    8 cycles
 SCF Done:  E(RB3LYP) =  -837.007250094     A.U. after    7 cycles
 SCF Done:  E(RB3LYP) =  -837.007250062     A.U. after    7 cycles
 Optimization completed.
    -- Stationary point found.
 Normal termination of Gaussian 16 at Tue Dec  8 19:43:39 2020.

 --------------------------------------------------------------------
 #N Geom=AllCheck Guess=TCheck SCRF=Check GenChk RB3LYP/6-31G(d) Freq
 --------------------------------------------------------------------

 Structure from the checkpoint file:  "JID_1321.chk"
 -------------------------------
 CID_130777306_JID_1321_neutraal
 -------------------------------
 Charge =  0 Multiplicity = 1

 SCF Done:  E(RB3LYP) =  -837.007250062     A.U. after    1 cycles

  Exact polarizability: 168.188   7.442  84.561   2.362   1.516  89.889
 Approx polarizability: 226.935  16.735 126.566   5.335   4.909 142.299

                      1                      2                      3
                      A                      A                      A
 Frequencies --     47.6149                55.2338                65.5937
 Red. masses --      2.8987                 4.2947                 4.9048
 Frc consts  --      0.0039                 0.0077                 0.0124
 IR Inten    --      1.1986                 1.6400                 2.7158

                      4                      5                      6
                      A                      A                      A
 Frequencies --    109.5405               135.1229               136.0990
 Red. masses --      2.6003                 1.2410                 2.3686
 Frc consts  --      0.0184                 0.0134                 0.0258
 IR Inten    --      1.2599                 2.4358                 0.2655

                      7                      8                      9
                      A                      A                      A
 Frequencies --    178.8729               245.5752               315.0080
 Red. masses --      3.2352                 3.6636                 3.8016
 Frc consts  --      0.0610                 0.1302                 0.2223
 IR Inten    --      3.3274                 1.1503                 0.5583

                     10                     11                     12
                      A                      A                      A
 Frequencies --    357.3493               395.4807               428.9517
 Red. masses --      4.0262                 3.6319                 3.8407
 Frc consts  --      0.3029                 0.3347                 0.4164
 IR Inten    --      2.3764                 6.7667                 2.3196

                     13                     14                     15
                      A                      A                      A
 Frequencies --    462.8277               477.7528               546.6134
 Red. masses --      3.1088                 1.1934                 1.5327
 Frc consts  --      0.3924                 0.1605                 0.2698
 IR Inten    --      4.4073                99.6623                94.2357

                     16                     17                     18
                      A                      A                      A
 Frequencies --    577.2508               593.1679               613.0810
 Red. masses --      1.7516                 2.0957                 2.3000
 Frc consts  --      0.3439                 0.4344                 0.5094
 IR Inten    --     48.4908                57.6235                 7.9423

                     19                     20                     21
                      A                      A                      A
 Frequencies --    658.6008               728.0843               772.1978
 Red. masses --      2.7503                 2.2231                 2.3491
 Frc consts  --      0.7029                 0.6943                 0.8253
 IR Inten    --    127.8890                32.3347                 3.4543

                     22                     23                     24
                      A                      A                      A
 Frequencies --    794.5511               867.5846               879.9226
 Red. masses --      1.2120                 3.3190                 2.5735
 Frc consts  --      0.4508                 1.4719                 1.1740
 IR Inten    --      0.8283                48.8525                 5.6439

                     25                     26                     27
                      A                      A                      A
 Frequencies --    920.4166               945.2974               968.4176
 Red. masses --      2.3955                 2.2178                 1.6749
 Frc consts  --      1.1957                 1.1676                 0.9255
 IR Inten    --      5.7518                 2.8849                 1.2955

                     28                     29                     30
                      A                      A                      A
 Frequencies --    978.9556              1003.6581              1042.2751
 Red. masses --      2.6013                 1.6333                 1.7789
 Frc consts  --      1.4688                 0.9693                 1.1386
 IR Inten    --      5.7339                 5.1060                 9.0487

                     31                     32                     33
                      A                      A                      A
 Frequencies --   1058.6346              1086.8450              1119.2821
 Red. masses --      2.3073                 1.9825                 2.2278
 Frc consts  --      1.5235                 1.3798                 1.6444
 IR Inten    --     10.0037                 0.6855                67.3886

                     34                     35                     36
                      A                      A                      A
 Frequencies --   1153.0299              1216.1241              1241.4422
 Red. masses --      2.3465                 1.3316                 1.3766
 Frc consts  --      1.8380                 1.1603                 1.2500
 IR Inten    --      2.2185                 0.6514                 0.9685

                     37                     38                     39
                      A                      A                      A
 Frequencies --   1254.9141              1266.1335              1271.0143
 Red. masses --      1.5470                 1.3605                 1.2636
 Frc consts  --      1.4354                 1.2850                 1.2027
 IR Inten    --     25.0779                 4.7802                 0.6011

                     40                     41                     42
                      A                      A                      A
 Frequencies --   1294.1336              1296.4174              1313.7644
 Red. masses --      1.5660                 1.4259                 1.8872
 Frc consts  --      1.5453                 1.4119                 1.9191
 IR Inten    --      7.1753                 3.0835               233.2231

                     43                     44                     45
                      A                      A                      A
 Frequencies --   1404.0050              1428.7793              1445.3520
 Red. masses --      1.9933                 1.2993                 3.0100
 Frc consts  --      2.3150                 1.5628                 3.7048
 IR Inten    --      6.2165                23.6844                68.2884

                     46                     47                     48
                      A                      A                      A
 Frequencies --   1492.1406              1507.5292              1509.2106
 Red. masses --      1.2171                 1.4184                 1.1213
 Frc consts  --      1.5966                 1.8992                 1.5048
 IR Inten    --     59.3822               190.1691                13.4658

                     49                     50                     51
                      A                      A                      A
 Frequencies --   1513.0655              1517.2536              1541.5876
 Red. masses --      1.0679                 1.0842                 1.1374
 Frc consts  --      1.4404                 1.4706                 1.5926
 IR Inten    --     11.2964                 2.8778                 1.6261

                     52                     53                     54
                      A                      A                      A
 Frequencies --   1651.9424              1694.1256              3050.3237
 Red. masses --      1.3652                 4.8022                 1.0817
 Frc consts  --      2.1950                 8.1205                 5.9300
 IR Inten    --    101.7780                80.7361                 9.3756

                     55                     56                     57
                      A                      A                      A
 Frequencies --   3062.9537              3063.4001              3077.0264
 Red. masses --      1.0408                 1.0604                 1.0600
 Frc consts  --      5.7533                 5.8629                 5.9131
 IR Inten    --     11.1238                30.6596                42.1777

                     58                     59                     60
                      A                      A                      A
 Frequencies --   3095.1907              3118.7080              3124.0372
 Red. masses --      1.0601                 1.1050                 1.0980
 Frc consts  --      5.9838                 6.3321                 6.3137
 IR Inten    --     24.7371                17.6429                11.1885

                     61                     62                     63
                      A                      A                      A
 Frequencies --   3130.4263              3150.2709              3158.8337
 Red. masses --      1.1081                 1.1074                 1.1031
 Frc consts  --      6.3979                 6.4749                 6.4851
 IR Inten    --     36.4185                37.0705                 5.5555

                     64                     65                     66
                      A                      A                      A
 Frequencies --   3543.4024              3606.6936              3681.7083
 Red. masses --      1.0495                 1.0771                 1.0981
 Frc consts  --      7.7635                 8.2554                 8.7695
 IR Inten    --     18.9790                51.5970                56.7114

 - Thermochemistry -
 -------------------
 Temperature   298.150 Kelvin.  Pressure   1.00000 Atm.
 Atom     1 has atomic number  6 and mass  12.00000

 Molecular mass:   171.08302 amu.
 Principal axes and moments of inertia in atomic units:
                           1         2         3
     Eigenvalues --   742.300884281.135094311.57299
           X            0.99998  -0.00537   0.00259
           Y            0.00530   0.99970   0.02394
           Z           -0.00272  -0.02393   0.99971
 This molecule is an asymmetric top.
 Rotational symmetry number  1.
 Warning -- assumption of classical behavior for rotation
           may cause significant error
 Rotational temperatures (Kelvin)      0.11668     0.02023     0.02009
 Rotational constants (GHZ):           2.43128     0.42156     0.41858
 Zero-point vibrational energy     534974.8 (Joules/Mol)
                                  127.86204 (Kcal/Mol)
 Warning -- explicit consideration of  18 degrees of freedom as
           vibrations may cause significant error
 Vibrational temperatures:     68.51    79.47    94.37   157.60   194.41
          (Kelvin)            195.82   257.36   353.33   453.23   514.15
                              569.01   617.17   665.91   687.38   786.45
                              830.54   853.44   882.09   947.58  1047.55
                             1111.02  1143.18  1248.26  1266.01  1324.27
                             1360.07  1393.34  1408.50  1444.04  1499.60
                             1523.14  1563.73  1610.40  1658.95  1749.73
                             1786.16  1805.54  1821.68  1828.71  1861.97
                             1865.26  1890.21  2020.05  2055.69  2079.54
                             2146.86  2169.00  2171.42  2176.96  2182.99
                             2218.00  2376.78  2437.47  4388.74  4406.91
                             4407.55  4427.15  4453.29  4487.13  4494.79
                             4503.99  4532.54  4544.86  5098.17  5189.23
                             5297.16

 Zero-point correction=                           0.203761 (Hartree/Particle)
 Thermal correction to Energy=                    0.215745
 Thermal correction to Enthalpy=                  0.216689
 Thermal correction to Gibbs Free Energy=         0.164620
 Sum of electronic and zero-point Energies=           -836.803489
 Sum of electronic and thermal Energies=              -836.791505
 Sum of electronic and thermal Enthalpies=            -836.790561
 Sum of electronic and thermal Free Energies=         -836.842631

                     E (Thermal)             CV                S
                      KCal/Mol        Cal/Mol-Kelvin    Cal/Mol-Kelvin
 Total                  135.382             44.085            109.589
 Electronic               0.000              0.000              0.000
 Translational            0.889              2.981             41.319
 Rotational               0.889              2.981             30.994
 Vibrational            133.604             38.124             37.276
 Vibration     1          0.595              1.978              4.914
 Vibration     2          0.596              1.975              4.621
 Vibration     3          0.597              1.971              4.281
 Vibration     4          0.606              1.942              3.277
 Vibration     5          0.613              1.918              2.872
 Vibration     6          0.614              1.917              2.858
 Vibration     7          0.629              1.868              2.340
 Vibration     8          0.660              1.770              1.762
 Vibration     9          0.702              1.645              1.336
 Vibration    10          0.733              1.560              1.134
 Vibration    11          0.762              1.480              0.979
 Vibration    12          0.790              1.407              0.862
 Vibration    13          0.820              1.333              0.758
 Vibration    14          0.834              1.299              0.716
 Vibration    15          0.902              1.147              0.551
 Vibration    16          0.934              1.080              0.490
 Vibration    17          0.951              1.046              0.462
 Vibration    18          0.972              1.004              0.428

 Optimization completed.
    -- Stationary point found.
 Normal termination of Gaussian 16 at Tue Dec  8 19:48:57 2020.

 ----------------------------------------------------------------------
 # B3LYP/6-311++G(d,p) empiricaldispersion=gd3bj scf=xqc pop=npa geom=c
 heck
 ----------------------------------------------------------------------

 ---------------------------------------
 CID_130777306_JID_1321_Energie_neutraal
 ---------------------------------------
 Structure from the checkpoint file:  "JID_1321.chk"
 Charge =  0 Multiplicity = 1

 SCF Done:  E(RB3LYP) =  -837.162420351     A.U. after   15 cycles
 Normal termination of Gaussian 16 at Tue Dec  8 19:51:39 2020.

 ----------------------------------------------------------------------
 # B3LYP/6-311++G(d,p) empiricaldispersion=gd3bj scf=xqc pop=npa geom=c
 heck
 ----------------------------------------------------------------------

 -------------------------------------
 CID_130777306_JID_1321_Energie_kation
 -------------------------------------
 Structure from the checkpoint file:  "JID_1321.chk"
 Charge =  1 Multiplicity = 2

 SCF Done:  E(UB3LYP) =  -836.873381489     A.U. after   30 cycles
 Normal termination of Gaussian 16 at Tue Dec  8 19:58:27 2020.
 Gaussian 16:  ES64L-G16RevA.03 25-Dec-2016

 ----------------------------------------------------------------------
 # B3LYP/6-311++G(d,p) empiricaldispersion=gd3bj scf=xqc pop=npa geom=c
 heck
 ----------------------------------------------------------------------

 ------------------------------------
 CID_130777306_JID_1321_Energie_anion
 ------------------------------------
 Structure from the checkpoint file:  "JID_1321.chk"
 Charge = -1 Multiplicity = 2

                         Standard orientation:
 ---------------------------------------------------------------------
 Center     Atomic      Atomic             Coordinates (Angstroms)
 Number     Number       Type             X           Y           Z
 ---------------------------------------------------------------------
      1          6           0        0.241771    1.970308   -0.034702
      2          6           0        0.749582    0.634091   -0.503010
      3          7           0        0.025924   -0.338912   -0.939221
      4          7           0       -1.373378   -0.082886   -0.945415
      5          6           0       -2.159354   -0.249646    0.163744
      6         16           0       -3.831900   -0.293002    0.045282
      7          7           0       -1.492715   -0.313818    1.354460
      8          6           0        2.226440    0.397463   -0.411323
      9          6           0        2.838188    0.277425    1.024404
     10          6           0        3.785032   -0.818787    0.470764
     11          6           0        2.832366   -0.987142   -0.741914
     12          1           0       -0.696096    2.225108   -0.533824
     13          1           0        0.989532    2.748527   -0.213188
     14          1           0        0.037943    1.937546    1.042091
     15          1           0       -1.817100   -0.400194   -1.798327
     16          1           0       -0.552390   -0.693612    1.346724
     17          1           0       -2.073431   -0.573874    2.139153
     18          1           0        2.742948    1.197619   -0.956971
     19          1           0        3.280899    1.175631    1.463881
     20          1           0        2.109037   -0.136308    1.730531
     21          1           0        3.959505   -1.694050    1.102677
     22          1           0        4.753540   -0.401768    0.176860
     23          1           0        2.095021   -1.778403   -0.588284
     24          1           0        3.278028   -1.111143   -1.732381
 ---------------------------------------------------------------------

 SCF Done:  E(UB3LYP) =  -837.155159197     A.U. after   33 cycles
 SCF Done:  E(UB3LYP) =  -837.155159197     a.u. after    1 cycles

 The electronic state is 2-A.
 Alpha  occ. eigenvalues --  -88.68914 -14.26968 -14.24307 -14.23370 -10.18655
 Alpha  occ. eigenvalues --  -10.12015 -10.07643 -10.06751 -10.06492 -10.06400
 Alpha  occ. eigenvalues --  -10.06201  -7.77698  -5.74124  -5.73497  -5.73247
 Alpha  occ. eigenvalues --   -0.92123  -0.83541  -0.76835  -0.73244  -0.64738
 Alpha  occ. eigenvalues --   -0.61298  -0.56926  -0.55582  -0.52297  -0.47923
 Alpha  occ. eigenvalues --   -0.45489  -0.43847  -0.39960  -0.38421  -0.37888
 Alpha  occ. eigenvalues --   -0.36706  -0.33432  -0.32486  -0.29682  -0.28724
 Alpha  occ. eigenvalues --   -0.28446  -0.27139  -0.25483  -0.23506  -0.22444
 Alpha  occ. eigenvalues --   -0.21854  -0.20767  -0.19286  -0.15811  -0.11835
 Alpha  occ. eigenvalues --   -0.11470   0.04348
 Alpha virt. eigenvalues --    0.06561   0.07474   0.07904   0.08426   0.08703
 Alpha virt. eigenvalues --    0.09650   0.10173   0.10671   0.10968   0.11835
 Alpha virt. eigenvalues --    0.12406   0.12595   0.13722   0.14135   0.15205

  Beta  occ. eigenvalues --  -88.68911 -14.26977 -14.24278 -14.23256 -10.18601
  Beta  occ. eigenvalues --  -10.11906 -10.07637 -10.06725 -10.06418 -10.06374
  Beta  occ. eigenvalues --  -10.06193  -7.77695  -5.74123  -5.73491  -5.73243
  Beta  occ. eigenvalues --   -0.92017  -0.83429  -0.76732  -0.73179  -0.64613
  Beta  occ. eigenvalues --   -0.61236  -0.56844  -0.55481  -0.52228  -0.47795
  Beta  occ. eigenvalues --   -0.45402  -0.43781  -0.39892  -0.38341  -0.37788
  Beta  occ. eigenvalues --   -0.36574  -0.33276  -0.32360  -0.29596  -0.28657
  Beta  occ. eigenvalues --   -0.28393  -0.27076  -0.25383  -0.23411  -0.22192
  Beta  occ. eigenvalues --   -0.21780  -0.20704  -0.19003  -0.15717  -0.11815
  Beta  occ. eigenvalues --   -0.11418
  Beta virt. eigenvalues --    0.06925   0.07520   0.08077   0.08455   0.08865
  Beta virt. eigenvalues --    0.09410   0.09992   0.10508   0.11076   0.11457
  Beta virt. eigenvalues --    0.12221   0.12575   0.12795   0.13993   0.14560

 Mulliken charges and spin densities:
               1          2
     1  C    0.727573  -1.408399
     2  C   -0.108250   0.076985
     3  N   -0.113556   0.113868
     4  N    0.089781  -0.077742
     5  C    0.076727  -0.029317
     6  S   -0.593934  -0.147707
     7  N   -0.237055   0.000688
     8  C   -2.076810   2.521545
     9  C    2.248840  -2.789922
    10  C   -0.357362   0.198215
    11  C    0.967698  -1.576346
    12  H   -0.019508   0.187687
    13  H   -0.421886   0.603043
    14  H    0.131603   0.066971
    15  H    0.262772   0.033779
    16  H    0.178823   0.111563
    17  H    0.036805   0.249119
    18  H   -0.923333   1.149247
    19  H   -0.216452   0.361428
    20  H   -0.515574   0.650367
    21  H   -0.015972   0.147872
    22  H   -0.211330   0.352164
    23  H   -0.009935   0.172936
    24  H    0.100333   0.031958
 Sum of Mulliken charges =  -1.00000   1.00000

 Dipole moment (field-independent basis, Debye):
    X=             -2.5775    Y=             -3.2212    Z=             -1.5562  Tot=              4.4092
 Quadrupole moment (field-independent basis, Debye-Ang):
   XX=           -157.3735   YY=           -108.9709   ZZ=           -102.2804
   XY=            -11.7431   XZ=             -1.9366   YZ=              1.1888

 Summary of Natural Population Analysis:

                                       Natural Population
                Natural  -----------------------------------------------
    Atom  No    Charge         Core      Valence    Rydberg      Total
 -----------------------------------------------------------------------
      C    1   -0.32779      0.99961     2.32182    0.00635     3.32779
      C    2    0.18134      0.99957     1.80229    0.01680     2.81866
      N    3   -0.16415      0.99963     2.65344    0.01108     3.66415
      N    4   -0.23634      0.99961     2.72286    0.01387     3.73634
      C    5    0.14578      0.99968     1.83174    0.02281     2.85422
      S    6   -0.15870      4.99957     3.14619    0.01294     8.15870
      N    7   -0.39767      0.99967     2.88652    0.01148     3.89767
      C    8   -0.13476      0.99956     2.12198    0.01323     3.13476
      C    9   -0.17555      0.99963     2.16729    0.00864     3.17555
      C   10   -0.18925      0.99965     2.18120    0.00841     3.18925
      C   11   -0.18318      0.99963     2.17609    0.00745     3.18318
      H   12    0.11394      0.00000     0.38488    0.00118     0.38606
      H   13    0.11269      0.00000     0.38536    0.00195     0.38731
      H   14    0.11758      0.00000     0.38105    0.00137     0.38242
      H   15    0.19803      0.00000     0.30002    0.00194     0.30197
      H   16    0.19824      0.00000     0.29939    0.00237     0.30176
      H   17    0.19929      0.00000     0.29894    0.00176     0.30071
      H   18    0.11243      0.00000     0.38260    0.00497     0.38757
      H   19    0.10374      0.00000     0.39272    0.00354     0.39626
      H   20    0.09417      0.00000     0.40323    0.00261     0.40583
      H   21    0.09400      0.00000     0.40511    0.00089     0.40600
      H   22    0.09696      0.00000     0.40157    0.00147     0.40304
      H   23    0.10359      0.00000     0.39463    0.00177     0.39641
      H   24    0.09561      0.00000     0.40342    0.00097     0.40439
 =======================================================================
   * Total *    0.00000     14.99582    30.84434    0.15984    46.00000

 Normal termination of Gaussian 16 at Tue Dec  8 20:06:43 2020.
