 Gaussian 16, Revision A.03,

 -----------------------------------------------------------
 # opt freq B3LYP/6-31G(d) empiricaldispersion=gd3bj scf=xqc
 -----------------------------------------------------------

 -------------------------------
 CID_116873082_JID_6080_neutraal
 -------------------------------
 Symbolic Z-matrix:
 Charge =  0 Multiplicity = 1

 SCF Done:  E(RB3LYP) =  -730.443648152     A.U. after   13 cycles
 SCF Done:  E(RB3LYP) =  -730.449849609     A.U. after   11 cycles
 SCF Done:  E(RB3LYP) =  -730.450239615     A.U. after   11 cycles
 SCF Done:  E(RB3LYP) =  -730.448869522     A.U. after   13 cycles
 SCF Done:  E(RB3LYP) =  -730.450824298     A.U. after   11 cycles
 SCF Done:  E(RB3LYP) =  -730.451224666     A.U. after   10 cycles
 SCF Done:  E(RB3LYP) =  -730.451270657     A.U. after   10 cycles
 SCF Done:  E(RB3LYP) =  -730.451263629     A.U. after    9 cycles
 SCF Done:  E(RB3LYP) =  -730.451278076     A.U. after    9 cycles
 SCF Done:  E(RB3LYP) =  -730.451286089     A.U. after    8 cycles
 SCF Done:  E(RB3LYP) =  -730.451286958     A.U. after    7 cycles
 SCF Done:  E(RB3LYP) =  -730.451287313     A.U. after    7 cycles
 Optimization completed.
    -- Stationary point found.
 Normal termination of Gaussian 16 at Thu Dec 10 21:12:35 2020.

 --------------------------------------------------------------------
 #N Geom=AllCheck Guess=TCheck SCRF=Check GenChk RB3LYP/6-31G(d) Freq
 --------------------------------------------------------------------

 Structure from the checkpoint file:  "JID_6080.chk"
 -------------------------------
 CID_116873082_JID_6080_neutraal
 -------------------------------
 Charge =  0 Multiplicity = 1

 SCF Done:  E(RB3LYP) =  -730.451287313     A.U. after    1 cycles

  Exact polarizability: 156.092  -5.034 129.463  -5.305   0.142 124.919
 Approx polarizability: 196.871  -4.236 194.197  -6.679  -0.408 193.076

                      1                      2                      3
                      A                      A                      A
 Frequencies --     37.7912                68.1180                95.7393
 Red. masses --      3.9394                 3.6937                 4.2554
 Frc consts  --      0.0033                 0.0101                 0.0230
 IR Inten    --      0.3791                 0.2876                 0.7556

                      4                      5                      6
                      A                      A                      A
 Frequencies --    110.9599               133.6047               158.0025
 Red. masses --      3.9997                 4.6444                 3.7180
 Frc consts  --      0.0290                 0.0488                 0.0547
 IR Inten    --      2.0489                 8.3966                 0.1671

                      7                      8                      9
                      A                      A                      A
 Frequencies --    217.3417               243.2724               259.1534
 Red. masses --      2.5069                 2.4324                 2.7995
 Frc consts  --      0.0698                 0.0848                 0.1108
 IR Inten    --      0.7288                 1.7255                 0.5561

                     10                     11                     12
                      A                      A                      A
 Frequencies --    286.1529               321.0851               361.0833
 Red. masses --      2.5362                 2.5271                 2.2054
 Frc consts  --      0.1224                 0.1535                 0.1694
 IR Inten    --      5.4048                 3.1193                 1.2745

                     13                     14                     15
                      A                      A                      A
 Frequencies --    370.4542               399.4591               412.5662
 Red. masses --      2.2033                 2.0667                 2.2795
 Frc consts  --      0.1782                 0.1943                 0.2286
 IR Inten    --      3.0414                 1.3352                 2.9130

                     16                     17                     18
                      A                      A                      A
 Frequencies --    420.4132               451.1075               491.6275
 Red. masses --      2.4460                 2.8852                 3.0585
 Frc consts  --      0.2547                 0.3459                 0.4355
 IR Inten    --      0.0767                 0.1851                 0.5723

                     19                     20                     21
                      A                      A                      A
 Frequencies --    497.3913               511.5246               525.9261
 Red. masses --      2.2178                 2.7016                 2.9242
 Frc consts  --      0.3233                 0.4165                 0.4766
 IR Inten    --      1.0574                13.0058                 0.7342

                     22                     23                     24
                      A                      A                      A
 Frequencies --    557.2005               621.4838               724.4844
 Red. masses --      2.4928                 1.7835                 2.3387
 Frc consts  --      0.4560                 0.4059                 0.7232
 IR Inten    --      4.5462                 4.3008                 0.8233

                     25                     26                     27
                      A                      A                      A
 Frequencies --    749.4352               814.3019               817.4610
 Red. masses --      2.9585                 1.6874                 2.1559
 Frc consts  --      0.9790                 0.6592                 0.8488
 IR Inten    --     20.8718                 8.9643               148.0601

                     28                     29                     30
                      A                      A                      A
 Frequencies --    827.3085               833.4227               851.2386
 Red. masses --      3.1856                 1.8192                 2.9661
 Frc consts  --      1.2846                 0.7445                 1.2663
 IR Inten    --      6.2461                 1.5511                 7.8734

                     31                     32                     33
                      A                      A                      A
 Frequencies --    874.7497               889.2679               898.7282
 Red. masses --      1.8266                 2.4208                 2.6580
 Frc consts  --      0.8235                 1.1279                 1.2649
 IR Inten    --     33.7694                18.7608                 2.6548

                     34                     35                     36
                      A                      A                      A
 Frequencies --    922.0022               939.7833               979.1827
 Red. masses --      2.6445                 1.8941                 2.0954
 Frc consts  --      1.3245                 0.9856                 1.1837
 IR Inten    --     14.3971                11.6146                17.3162

                     37                     38                     39
                      A                      A                      A
 Frequencies --    994.5305              1021.3010              1028.2286
 Red. masses --      3.5764                 2.3157                 6.7701
 Frc consts  --      2.0842                 1.4231                 4.2172
 IR Inten    --      3.0389                19.3789                47.2305

                     40                     41                     42
                      A                      A                      A
 Frequencies --   1031.7525              1037.0290              1040.0067
 Red. masses --      1.7461                 2.3489                 1.8304
 Frc consts  --      1.0952                 1.4883                 1.1664
 IR Inten    --      4.1876                 9.3486                16.4210

                     43                     44                     45
                      A                      A                      A
 Frequencies --   1052.3638              1057.5478              1075.0373
 Red. masses --      2.0236                 2.0905                 2.2453
 Frc consts  --      1.3204                 1.3775                 1.5288
 IR Inten    --      8.8460                12.1179                 6.9734

                     46                     47                     48
                      A                      A                      A
 Frequencies --   1103.9221              1125.4328              1139.0866
 Red. masses --      2.2431                 2.9873                 4.0439
 Frc consts  --      1.6105                 2.2293                 3.0915
 IR Inten    --     21.0914                47.0123                20.7120

                     49                     50                     51
                      A                      A                      A
 Frequencies --   1149.5095              1160.9064              1168.6828
 Red. masses --      3.8339                 1.1761                 2.8052
 Frc consts  --      2.9848                 0.9339                 2.2574
 IR Inten    --     29.2490                 4.5609                 1.9652

                     52                     53                     54
                      A                      A                      A
 Frequencies --   1180.4722              1196.8361              1211.0394
 Red. masses --      1.9565                 1.6769                 1.3445
 Frc consts  --      1.6063                 1.4152                 1.1618
 IR Inten    --      2.0869                 4.3758                 6.6397

                     55                     56                     57
                      A                      A                      A
 Frequencies --   1227.8949              1245.0147              1247.6709
 Red. masses --      1.4966                 1.2087                 1.9151
 Frc consts  --      1.3295                 1.1038                 1.7564
 IR Inten    --     75.0329                14.7998                14.9748

                     58                     59                     60
                      A                      A                      A
 Frequencies --   1259.4623              1301.8492              1311.1859
 Red. masses --      1.5707                 1.2583                 1.2779
 Frc consts  --      1.4679                 1.2565                 1.2944
 IR Inten    --     20.2647                 9.5088                 7.0909

                     61                     62                     63
                      A                      A                      A
 Frequencies --   1323.9331              1342.0884              1349.3917
 Red. masses --      1.3680                 1.2532                 1.2671
 Frc consts  --      1.4127                 1.3299                 1.3593
 IR Inten    --      6.9576                13.5083                 1.8540

                     64                     65                     66
                      A                      A                      A
 Frequencies --   1354.8882              1371.2350              1376.3156
 Red. masses --      1.3272                 1.2898                 1.5237
 Frc consts  --      1.4354                 1.4289                 1.7006
 IR Inten    --      5.3560                 1.3301                 1.5030

                     67                     68                     69
                      A                      A                      A
 Frequencies --   1387.4934              1390.5867              1396.1378
 Red. masses --      1.3390                 1.5766                 1.2770
 Frc consts  --      1.5188                 1.7963                 1.4666
 IR Inten    --      0.3512                 5.1880                 7.5287

                     70                     71                     72
                      A                      A                      A
 Frequencies --   1399.7998              1414.1581              1417.8425
 Red. masses --      1.3837                 1.3229                 1.3520
 Frc consts  --      1.5975                 1.5587                 1.6013
 IR Inten    --      6.0988                 7.1201                 8.0079

                     73                     74                     75
                      A                      A                      A
 Frequencies --   1419.2307              1429.8150              1452.0497
 Red. masses --      1.2339                 1.3707                 1.3319
 Frc consts  --      1.4643                 1.6510                 1.6546
 IR Inten    --      7.5612                10.0427                 4.7508

                     76                     77                     78
                      A                      A                      A
 Frequencies --   1492.4993              1497.1107              1507.5575
 Red. masses --      1.0922                 1.1023                 1.1057
 Frc consts  --      1.4335                 1.4557                 1.4806
 IR Inten    --      4.0298                 7.9396                 3.7400

                     79                     80                     81
                      A                      A                      A
 Frequencies --   1509.6077              1512.5756              1516.2884
 Red. masses --      1.0916                 1.0852                 1.1586
 Frc consts  --      1.4657                 1.4628                 1.5694
 IR Inten    --      4.8024                 4.2457                 5.2709

                     82                     83                     84
                      A                      A                      A
 Frequencies --   1518.6881              1526.7741              1538.9514
 Red. masses --      1.0962                 1.0841                 1.1020
 Frc consts  --      1.4897                 1.4889                 1.5377
 IR Inten    --      3.6651                 0.4399                 2.9642

                     85                     86                     87
                      A                      A                      A
 Frequencies --   1547.7669              1573.2581              2974.7297
 Red. masses --      1.0857                 1.1063                 1.0720
 Frc consts  --      1.5324                 1.6133                 5.5892
 IR Inten    --      3.5668                 6.7549                39.0597

                     88                     89                     90
                      A                      A                      A
 Frequencies --   2989.7664              2995.7281              3004.6761
 Red. masses --      1.0745                 1.0756                 1.0708
 Frc consts  --      5.6588                 5.6873                 5.6960
 IR Inten    --     15.0833                89.8545                59.6148

                     91                     92                     93
                      A                      A                      A
 Frequencies --   3026.8973              3036.8381              3047.0871
 Red. masses --      1.0820                 1.0672                 1.0597
 Frc consts  --      5.8407                 5.7989                 5.7968
 IR Inten    --     27.0525                37.6272                47.5806

                     94                     95                     96
                      A                      A                      A
 Frequencies --   3053.4988              3059.7376              3060.9703
 Red. masses --      1.0660                 1.0634                 1.0685
 Frc consts  --      5.8562                 5.8657                 5.8987
 IR Inten    --     18.5866                47.8291                52.1026

                     97                     98                     99
                      A                      A                      A
 Frequencies --   3087.1805              3089.1927              3095.7086
 Red. masses --      1.0977                 1.0683                 1.0959
 Frc consts  --      6.1638                 6.0067                 6.1879
 IR Inten    --     65.9018                26.0469                40.2685

                    100                    101                    102
                      A                      A                      A
 Frequencies --   3101.9012              3106.8596              3107.3249
 Red. masses --      1.0956                 1.1017                 1.0937
 Frc consts  --      6.2110                 6.2657                 6.2219
 IR Inten    --     59.0256                40.4083                53.6371

                    103                    104                    105
                      A                      A                      A
 Frequencies --   3135.7320              3136.6596              3138.9224
 Red. masses --      1.0935                 1.1019                 1.0920
 Frc consts  --      6.3350                 6.3873                 6.3389
 IR Inten    --     19.9853                71.2015                 9.5886

                    106                    107                    108
                      A                      A                      A
 Frequencies --   3140.9892              3163.6323              3452.2328
 Red. masses --      1.0945                 1.0871                 1.0735
 Frc consts  --      6.3620                 6.4105                 7.5380
 IR Inten    --     21.9574                24.4650                 4.8208

 - Thermochemistry -
 -------------------
 Temperature   298.150 Kelvin.  Pressure   1.00000 Atm.
 Atom     1 has atomic number  6 and mass  12.00000

 Molecular mass:   226.16813 amu.
 Principal axes and moments of inertia in atomic units:
                           1         2         3
     Eigenvalues --  1729.027925101.395895704.59735
           X            0.99995  -0.00938  -0.00444
           Y            0.00938   0.99996  -0.00064
           Z            0.00445   0.00060   0.99999
 This molecule is an asymmetric top.
 Rotational symmetry number  1.
 Warning -- assumption of classical behavior for rotation
           may cause significant error
 Rotational temperatures (Kelvin)      0.05009     0.01698     0.01518
 Rotational constants (GHZ):           1.04379     0.35377     0.31637
 Zero-point vibrational energy     906840.5 (Joules/Mol)
                                  216.74009 (Kcal/Mol)
 Warning -- explicit consideration of  22 degrees of freedom as
           vibrations may cause significant error
 Vibrational temperatures:     54.37    98.01   137.75   159.65   192.23
          (Kelvin)            227.33   312.71   350.01   372.86   411.71
                              461.97   519.52   533.00   574.73   593.59
                              604.88   649.04   707.34   715.64   735.97
                              756.69   801.69   894.18  1042.37  1078.27
                             1171.60  1176.14  1190.31  1199.11  1224.74
                             1258.57  1279.46  1293.07  1326.56  1352.14
                             1408.83  1430.91  1469.42  1479.39  1484.46
                             1492.05  1496.34  1514.12  1521.58  1546.74
                             1588.30  1619.25  1638.89  1653.89  1670.29
                             1681.47  1698.44  1721.98  1742.42  1766.67
                             1791.30  1795.12  1812.09  1873.07  1886.50
                             1904.84  1930.97  1941.47  1949.38  1972.90
                             1980.21  1996.29  2000.74  2008.73  2014.00
                             2034.66  2039.96  2041.96  2057.18  2089.18
                             2147.37  2154.01  2169.04  2171.99  2176.26
                             2181.60  2185.05  2196.69  2214.21  2226.89
                             2263.57  4279.97  4301.61  4310.18  4323.06
                             4355.03  4369.33  4384.08  4393.30  4402.28
                             4404.05  4441.76  4444.66  4454.03  4462.94
                             4470.08  4470.75  4511.62  4512.95  4516.21
                             4519.18  4551.76  4966.99

 Zero-point correction=                           0.345397 (Hartree/Particle)
 Thermal correction to Energy=                    0.359611
 Thermal correction to Enthalpy=                  0.360555
 Thermal correction to Gibbs Free Energy=         0.304589
 Sum of electronic and zero-point Energies=           -730.105890
 Sum of electronic and thermal Energies=              -730.091677
 Sum of electronic and thermal Enthalpies=            -730.090732
 Sum of electronic and thermal Free Energies=         -730.146698

                     E (Thermal)             CV                S
                      KCal/Mol        Cal/Mol-Kelvin    Cal/Mol-Kelvin
 Total                  225.659             58.120            117.790
 Electronic               0.000              0.000              0.000
 Translational            0.889              2.981             42.151
 Rotational               0.889              2.981             32.287
 Vibrational            223.882             52.158             43.352
 Vibration     1          0.594              1.982              5.372
 Vibration     2          0.598              1.969              4.207
 Vibration     3          0.603              1.952              3.539
 Vibration     4          0.607              1.940              3.252
 Vibration     5          0.613              1.920              2.893
 Vibration     6          0.621              1.894              2.574
 Vibration     7          0.646              1.815              1.981
 Vibration     8          0.659              1.774              1.779
 Vibration     9          0.668              1.747              1.667
 Vibration    10          0.684              1.699              1.497
 Vibration    11          0.707              1.633              1.305
 Vibration    12          0.735              1.552              1.117
 Vibration    13          0.742              1.533              1.078
 Vibration    14          0.766              1.471              0.965
 Vibration    15          0.776              1.443              0.918
 Vibration    16          0.783              1.426              0.891
 Vibration    17          0.810              1.358              0.792
 Vibration    18          0.847              1.269              0.679
 Vibration    19          0.853              1.256              0.665
 Vibration    20          0.867              1.224              0.630
 Vibration    21          0.881              1.193              0.596
 Vibration    22          0.913              1.124              0.529

 Optimization completed.
    -- Stationary point found.
 Normal termination of Gaussian 16 at Thu Dec 10 21:28:50 2020.

 ----------------------------------------------------------------------
 # B3LYP/6-311++G(d,p) empiricaldispersion=gd3bj scf=xqc pop=npa geom=c
 heck
 ----------------------------------------------------------------------

 ---------------------------------------
 CID_116873082_JID_6080_Energie_neutraal
 ---------------------------------------
 Structure from the checkpoint file:  "JID_6080.chk"
 Charge =  0 Multiplicity = 1

 SCF Done:  E(RB3LYP) =  -730.657458555     A.U. after   14 cycles
 Normal termination of Gaussian 16 at Thu Dec 10 21:36:34 2020.

 ----------------------------------------------------------------------
 # B3LYP/6-311++G(d,p) empiricaldispersion=gd3bj scf=xqc pop=npa geom=c
 heck
 ----------------------------------------------------------------------

 -------------------------------------
 CID_116873082_JID_6080_Energie_kation
 -------------------------------------
 Structure from the checkpoint file:  "JID_6080.chk"
 Charge =  1 Multiplicity = 2

 SCF Done:  E(UB3LYP) =  -730.390436471     A.U. after   22 cycles
 Normal termination of Gaussian 16 at Thu Dec 10 21:52:55 2020.
 Gaussian 16:  ES64L-G16RevA.03 25-Dec-2016

 ----------------------------------------------------------------------
 # B3LYP/6-311++G(d,p) empiricaldispersion=gd3bj scf=xqc pop=npa geom=c
 heck
 ----------------------------------------------------------------------

 ------------------------------------
 CID_116873082_JID_6080_Energie_anion
 ------------------------------------
 Structure from the checkpoint file:  "JID_6080.chk"
 Charge = -1 Multiplicity = 2

                         Standard orientation:
 ---------------------------------------------------------------------
 Center     Atomic      Atomic             Coordinates (Angstroms)
 Number     Number       Type             X           Y           Z
 ---------------------------------------------------------------------
      1          6           0       -2.403186    0.385721    1.264358
      2          6           0       -3.506303    0.585023    0.214308
      3          8           0       -3.844786   -0.616013   -0.458086
      4          6           0       -2.705930   -1.173915   -1.100628
      5          6           0       -1.651815   -1.598345   -0.084061
      6          6           0       -1.163250   -0.414513    0.781464
      7          6           0       -0.019035    0.414650    0.130238
      8          6           0       -0.388281    1.593590   -0.807009
      9          8           0        0.509451    2.486283   -0.112806
     10          6           0        0.561844    1.574871    1.009071
     11          7           0        0.973194   -0.481150   -0.480922
     12          6           0        2.018428    0.057854   -1.363021
     13          6           0        3.310720    0.482630   -0.644629
     14          7           0        3.869314   -0.562020    0.222761
     15          6           0        2.838226   -1.119294    1.104240
     16          6           0        1.558331   -1.535663    0.358817
     17          1           0       -2.846527   -0.182339    2.090998
     18          1           0       -2.123036    1.361729    1.676433
     19          1           0       -4.422389    0.929340    0.704206
     20          1           0       -3.226488    1.348673   -0.527993
     21          1           0       -2.284422   -0.450728   -1.821101
     22          1           0       -3.069123   -2.035913   -1.667899
     23          1           0       -0.814086   -2.065885   -0.605379
     24          1           0       -2.108564   -2.349704    0.572147
     25          1           0       -0.723706   -0.833929    1.695242
     26          1           0       -0.166465    1.496812   -1.873549
     27          1           0       -1.421333    1.929824   -0.696800
     28          1           0       -0.097620    1.905656    1.822625
     29          1           0        1.574991    1.454868    1.396428
     30          1           0        2.271289   -0.745373   -2.074215
     31          1           0        1.636719    0.891003   -1.951487
     32          1           0        3.122378    1.375402   -0.039116
     33          1           0        4.069505    0.757658   -1.387128
     34          1           0        4.220084   -1.315474   -0.370285
     35          1           0        2.603973   -0.369551    1.870022
     36          1           0        3.259112   -1.986411    1.628022
     37          1           0        0.818138   -1.917454    1.063938
     38          1           0        1.814191   -2.373827   -0.309728
 ---------------------------------------------------------------------

 SCF Done:  E(UB3LYP) =  -730.644848167     A.U. after   32 cycles

 The electronic state is 2-A.
 Alpha  occ. eigenvalues --  -19.03198 -19.02937 -14.20951 -14.19894 -10.12669
 Alpha  occ. eigenvalues --  -10.12625 -10.12343 -10.12195 -10.11853 -10.09379
 Alpha  occ. eigenvalues --  -10.09144 -10.09126 -10.09047 -10.08563 -10.07727
 Alpha  occ. eigenvalues --  -10.06478  -0.95844  -0.94520  -0.84036  -0.79310
 Alpha  occ. eigenvalues --   -0.71598  -0.67065  -0.66193  -0.64302  -0.60753
 Alpha  occ. eigenvalues --   -0.56823  -0.55860  -0.54357  -0.53674  -0.49883
 Alpha  occ. eigenvalues --   -0.47193  -0.44852  -0.42657  -0.40977  -0.39806
 Alpha  occ. eigenvalues --   -0.38363  -0.37203  -0.36800  -0.36079  -0.35319
 Alpha  occ. eigenvalues --   -0.34815  -0.34023  -0.33836  -0.32755  -0.31579
 Alpha  occ. eigenvalues --   -0.31210  -0.29476  -0.29332  -0.28312  -0.27171
 Alpha  occ. eigenvalues --   -0.26394  -0.25604  -0.25385  -0.24677  -0.23296
 Alpha  occ. eigenvalues --   -0.22567  -0.21346  -0.20561  -0.17236  -0.16040
 Alpha  occ. eigenvalues --   -0.15286  -0.09851   0.04288
 Alpha virt. eigenvalues --    0.06161   0.06889   0.07523   0.08147   0.08435
 Alpha virt. eigenvalues --    0.09156   0.09286   0.09690   0.10613   0.10883
 Alpha virt. eigenvalues --    0.11211   0.11942   0.12407   0.12570   0.12874

  Beta  occ. eigenvalues --  -19.03197 -19.02932 -14.20950 -14.19876 -10.12658
  Beta  occ. eigenvalues --  -10.12623 -10.12332 -10.12185 -10.11841 -10.09359
  Beta  occ. eigenvalues --  -10.09137 -10.09098 -10.09025 -10.08553 -10.07704
  Beta  occ. eigenvalues --  -10.06461  -0.95837  -0.94508  -0.84015  -0.79279
  Beta  occ. eigenvalues --   -0.71565  -0.67036  -0.66156  -0.64281  -0.60729
  Beta  occ. eigenvalues --   -0.56789  -0.55826  -0.54315  -0.53622  -0.49833
  Beta  occ. eigenvalues --   -0.47148  -0.44816  -0.42626  -0.40935  -0.39772
  Beta  occ. eigenvalues --   -0.38336  -0.37169  -0.36767  -0.36053  -0.35288
  Beta  occ. eigenvalues --   -0.34784  -0.33997  -0.33815  -0.32731  -0.31559
  Beta  occ. eigenvalues --   -0.31176  -0.29447  -0.29298  -0.28273  -0.27142
  Beta  occ. eigenvalues --   -0.26359  -0.25571  -0.25345  -0.24647  -0.23270
  Beta  occ. eigenvalues --   -0.22537  -0.21317  -0.20542  -0.17225  -0.16014
  Beta  occ. eigenvalues --   -0.15251  -0.09812
  Beta virt. eigenvalues --    0.06481   0.07090   0.07551   0.07842   0.08616
  Beta virt. eigenvalues --    0.08943   0.09494   0.09615   0.09954   0.10957
  Beta virt. eigenvalues --    0.11356   0.11561   0.12232   0.12519   0.12932

 Mulliken charges and spin densities:
               1          2
     1  C    0.336247  -0.810918
     2  C    0.232816  -0.618063
     3  O   -0.124072   0.033631
     4  C   -0.318747  -0.260433
     5  C   -0.404587   0.255373
     6  C    0.108600   0.141843
     7  C   -1.915645   0.216471
     8  C    0.621053  -0.400430
     9  O    0.034657   0.014137
    10  C    0.505939  -0.607197
    11  N    0.371544   0.058025
    12  C    0.519232  -0.413097
    13  C    0.025049  -0.500170
    14  N   -0.299635   0.220133
    15  C    1.487033  -2.157883
    16  C   -0.527138   0.467387
    17  H   -0.341983   0.546281
    18  H   -0.104072   0.203663
    19  H   -0.131348   0.326574
    20  H    0.052761   0.067569
    21  H    0.005607   0.141256
    22  H   -0.109688   0.315290
    23  H   -0.114527   0.258667
    24  H   -0.074428   0.275873
    25  H   -0.246724   0.461198
    26  H   -0.136684   0.326623
    27  H    0.259881  -0.133575
    28  H   -0.068591   0.208446
    29  H    0.240571  -0.088103
    30  H   -0.357752   0.565129
    31  H    0.223433  -0.129047
    32  H    0.148588   0.017011
    33  H   -0.044311   0.216372
    34  H   -0.001629   0.232861
    35  H   -0.023729   0.179175
    36  H   -0.411689   0.600926
    37  H   -0.101698   0.259577
    38  H   -0.314334   0.509425
 Sum of Mulliken charges =  -1.00000   1.00000

 Dipole moment (field-independent basis, Debye):
    X=             -1.2619    Y=              4.6389    Z=             -1.6852  Tot=              5.0943
 Quadrupole moment (field-independent basis, Debye-Ang):
   XX=           -178.4329   YY=           -146.9171   ZZ=           -140.9244
   XY=              4.2837   XZ=              4.9848   YZ=              1.4610

 Summary of Natural Population Analysis:

                                       Natural Population
                Natural  -----------------------------------------------
    Atom  No    Charge         Core      Valence    Rydberg      Total
 -----------------------------------------------------------------------
      C    1   -0.20506      0.99961     2.19581    0.00964     3.20506
      C    2   -0.00758      0.99957     1.99556    0.01244     3.00758
      O    3   -0.30064      0.99989     3.29161    0.00915     4.30064
      C    4   -0.00929      0.99957     1.99743    0.01229     3.00929
      C    5   -0.20628      0.99960     2.19689    0.00979     3.20628
      C    6   -0.11852      0.99954     2.10505    0.01392     3.11852
      C    7    0.06363      0.99952     1.92007    0.01678     2.93637
      C    8   -0.00872      0.99956     1.99800    0.01116     3.00872
      O    9   -0.30773      0.99991     3.30063    0.00719     4.30773
      C   10   -0.01452      0.99957     2.00244    0.01251     3.01452
      N   11   -0.28832      0.99970     2.77282    0.01580     3.78832
      C   12   -0.09374      0.99959     2.08143    0.01272     3.09374
      C   13   -0.09786      0.99961     2.08704    0.01121     3.09786
      N   14   -0.33727      0.99976     2.82468    0.01283     3.83727
      C   15   -0.09539      0.99962     2.08442    0.01134     3.09539
      C   16   -0.09868      0.99959     2.08639    0.01270     3.09868
      H   17    0.10551      0.00000     0.39290    0.00159     0.39449
      H   18    0.10129      0.00000     0.39734    0.00136     0.39871
      H   19    0.09150      0.00000     0.40731    0.00119     0.40850
      H   20    0.07152      0.00000     0.42703    0.00145     0.42848
      H   21    0.07474      0.00000     0.42375    0.00151     0.42526
      H   22    0.09166      0.00000     0.40713    0.00121     0.40834
      H   23    0.11321      0.00000     0.38503    0.00176     0.38679
      H   24    0.10115      0.00000     0.39735    0.00151     0.39885
      H   25    0.10674      0.00000     0.39068    0.00258     0.39326
      H   26    0.08770      0.00000     0.41084    0.00146     0.41230
      H   27    0.08524      0.00000     0.41304    0.00172     0.41476
      H   28    0.08234      0.00000     0.41607    0.00159     0.41766
      H   29    0.08727      0.00000     0.41113    0.00160     0.41273
      H   30    0.09213      0.00000     0.40622    0.00165     0.40787
      H   31    0.09924      0.00000     0.39933    0.00143     0.40076
      H   32    0.09029      0.00000     0.40811    0.00160     0.40971
      H   33    0.09390      0.00000     0.40517    0.00093     0.40610
      H   34    0.16965      0.00000     0.32751    0.00284     0.33035
      H   35    0.08607      0.00000     0.41244    0.00149     0.41393
      H   36    0.09807      0.00000     0.40060    0.00133     0.40193
      H   37    0.10262      0.00000     0.39536    0.00202     0.39738
      H   38    0.09412      0.00000     0.40349    0.00238     0.40588
 =======================================================================
   * Total *   -0.00000     15.99421    45.77811    0.22767    62.00000

 Normal termination of Gaussian 16 at Thu Dec 10 22:19:08 2020.
