 Gaussian 16, Revision A.03,

 -----------------------------------------------------------
 # opt freq B3LYP/6-31G(d) empiricaldispersion=gd3bj scf=xqc
 -----------------------------------------------------------

 -------------------------------
 CID_103377548_JID_6333_neutraal
 -------------------------------
 Symbolic Z-matrix:
 Charge =  0 Multiplicity = 1

 SCF Done:  E(RB3LYP) =  -801.125675982     A.U. after   14 cycles
 SCF Done:  E(RB3LYP) =  -801.119160155     A.U. after   14 cycles
 SCF Done:  E(RB3LYP) =  -801.130573844     A.U. after   12 cycles
 SCF Done:  E(RB3LYP) =  -801.130186816     A.U. after   13 cycles
 SCF Done:  E(RB3LYP) =  -801.134272621     A.U. after   13 cycles
 SCF Done:  E(RB3LYP) =  -801.134139298     A.U. after   12 cycles
 SCF Done:  E(RB3LYP) =  -801.135736671     A.U. after   12 cycles
 SCF Done:  E(RB3LYP) =  -801.136270646     A.U. after   12 cycles
 SCF Done:  E(RB3LYP) =  -801.136853480     A.U. after   12 cycles
 SCF Done:  E(RB3LYP) =  -801.137085690     A.U. after   12 cycles
 SCF Done:  E(RB3LYP) =  -801.137179397     A.U. after   10 cycles
 SCF Done:  E(RB3LYP) =  -801.137185380     A.U. after   10 cycles
 SCF Done:  E(RB3LYP) =  -801.137186550     A.U. after    8 cycles
 SCF Done:  E(RB3LYP) =  -801.137186778     A.U. after    8 cycles
 SCF Done:  E(RB3LYP) =  -801.137186886     A.U. after    7 cycles
 Optimization completed.
    -- Stationary point found.
 Normal termination of Gaussian 16 at Thu Dec 10 22:15:43 2020.

 --------------------------------------------------------------------
 #N Geom=AllCheck Guess=TCheck SCRF=Check GenChk RB3LYP/6-31G(d) Freq
 --------------------------------------------------------------------

 Structure from the checkpoint file:  "JID_6333.chk"
 -------------------------------
 CID_103377548_JID_6333_neutraal
 -------------------------------
 Charge =  0 Multiplicity = 1

 SCF Done:  E(RB3LYP) =  -801.137186886     A.U. after    1 cycles

  Exact polarizability: 141.410  -2.903 115.609  -0.918  -1.973 116.810
 Approx polarizability: 200.599  -9.913 157.848  -3.203  -3.878 195.379

                      1                      2                      3
                      A                      A                      A
 Frequencies --     38.2095                52.2418                58.0032
 Red. masses --      4.8708                 7.6028                 3.6977
 Frc consts  --      0.0042                 0.0122                 0.0073
 IR Inten    --      0.0052                 1.1352                 0.1518

                      4                      5                      6
                      A                      A                      A
 Frequencies --     72.6622                83.3486                96.2999
 Red. masses --      5.3807                 3.7282                 3.8855
 Frc consts  --      0.0167                 0.0153                 0.0212
 IR Inten    --      1.7056                 2.3484                 5.4486

                      7                      8                      9
                      A                      A                      A
 Frequencies --    102.7862               136.2344               171.7481
 Red. masses --      5.0209                 3.0664                 2.0698
 Frc consts  --      0.0313                 0.0335                 0.0360
 IR Inten    --      0.6173                 2.8885                 0.7937

                     10                     11                     12
                      A                      A                      A
 Frequencies --    194.6777               210.1956               246.2818
 Red. masses --      3.6958                 5.3220                 1.6750
 Frc consts  --      0.0825                 0.1385                 0.0599
 IR Inten    --      1.9680                 0.2384                 0.1502

                     13                     14                     15
                      A                      A                      A
 Frequencies --    267.2752               295.0387               329.6366
 Red. masses --      3.9921                 2.7937                 3.5159
 Frc consts  --      0.1680                 0.1433                 0.2251
 IR Inten    --      1.8857                 0.8909                 2.0087

                     16                     17                     18
                      A                      A                      A
 Frequencies --    351.0476               388.5356               421.0359
 Red. masses --      3.3056                 5.1496                 3.0054
 Frc consts  --      0.2400                 0.4580                 0.3139
 IR Inten    --      0.5800                10.1365                 2.2011

                     19                     20                     21
                      A                      A                      A
 Frequencies --    454.8089               496.9561               523.7470
 Red. masses --      2.7034                 2.2242                 3.9207
 Frc consts  --      0.3295                 0.3236                 0.6337
 IR Inten    --      1.4405                 8.4610                16.1789

                     22                     23                     24
                      A                      A                      A
 Frequencies --    594.9601               648.6624               663.9739
 Red. masses --      1.7798                 2.6777                 1.0737
 Frc consts  --      0.3712                 0.6638                 0.2789
 IR Inten    --     28.2155                25.5553               224.8644

                     25                     26                     27
                      A                      A                      A
 Frequencies --    671.7303               675.4431               693.0050
 Red. masses --      4.0325                 3.2293                 2.8083
 Frc consts  --      1.0720                 0.8680                 0.7946
 IR Inten    --     50.6677                14.8993                23.9634

                     28                     29                     30
                      A                      A                      A
 Frequencies --    735.9618               806.0227               818.3899
 Red. masses --      3.2709                 1.3888                 1.4624
 Frc consts  --      1.0438                 0.5316                 0.5771
 IR Inten    --     89.0055                13.9023                13.1709

                     31                     32                     33
                      A                      A                      A
 Frequencies --    823.4013               858.9101               860.5703
 Red. masses --      2.8469                 1.5356                 3.4000
 Frc consts  --      1.1372                 0.6675                 1.4835
 IR Inten    --      1.8724                11.2046                 3.4272

                     34                     35                     36
                      A                      A                      A
 Frequencies --    883.9294               912.0256               914.5130
 Red. masses --      2.5720                 2.4562                 2.7699
 Frc consts  --      1.1840                 1.2038                 1.3649
 IR Inten    --      6.1887                16.9468                26.0968

                     37                     38                     39
                      A                      A                      A
 Frequencies --    921.1569               965.4049              1005.8086
 Red. masses --      1.7866                 3.4285                 2.7927
 Frc consts  --      0.8932                 1.8827                 1.6646
 IR Inten    --     10.6963                 6.5765                24.0079

                     40                     41                     42
                      A                      A                      A
 Frequencies --   1049.9895              1096.5419              1115.9869
 Red. masses --      1.8642                 3.0521                 1.9034
 Frc consts  --      1.2109                 2.1622                 1.3967
 IR Inten    --      0.3021                93.0303                 5.0334

                     43                     44                     45
                      A                      A                      A
 Frequencies --   1126.9114              1136.6364              1143.7809
 Red. masses --      2.2555                 3.0345                 3.4592
 Frc consts  --      1.6876                 2.3098                 2.6663
 IR Inten    --     21.8045                81.1212               177.1919

                     46                     47                     48
                      A                      A                      A
 Frequencies --   1165.2615              1177.0859              1211.0952
 Red. masses --      1.9787                 2.1913                 3.2631
 Frc consts  --      1.5830                 1.7888                 2.8200
 IR Inten    --     52.5825               114.7840                44.7777

                     49                     50                     51
                      A                      A                      A
 Frequencies --   1252.2505              1259.1403              1267.7097
 Red. masses --      1.4640                 1.1834                 1.5583
 Frc consts  --      1.3527                 1.1054                 1.4755
 IR Inten    --      9.6261                 9.0323                15.5818

                     52                     53                     54
                      A                      A                      A
 Frequencies --   1314.7542              1324.4824              1328.5365
 Red. masses --      1.3533                 1.9437                 1.5155
 Frc consts  --      1.3782                 2.0090                 1.5760
 IR Inten    --      6.0228                 8.4973                21.2292

                     55                     56                     57
                      A                      A                      A
 Frequencies --   1334.4270              1364.0525              1399.0828
 Red. masses --      1.2139                 1.6521                 1.7605
 Frc consts  --      1.2736                 1.8111                 2.0304
 IR Inten    --      6.5881                 5.7280                 9.1467

                     58                     59                     60
                      A                      A                      A
 Frequencies --   1402.4596              1418.9470              1423.9261
 Red. masses --      1.4304                 2.2254                 1.3155
 Frc consts  --      1.6576                 2.6399                 1.5715
 IR Inten    --     14.1825                15.0880                12.4889

                     61                     62                     63
                      A                      A                      A
 Frequencies --   1428.3836              1436.6880              1441.2103
 Red. masses --      1.7263                 1.4190                 2.2300
 Frc consts  --      2.0751                 1.7257                 2.7290
 IR Inten    --     39.3874                 5.6732                 4.2876

                     64                     65                     66
                      A                      A                      A
 Frequencies --   1448.6722              1471.1324              1505.4252
 Red. masses --      1.2931                 1.1741                 1.2251
 Frc consts  --      1.5990                 1.4971                 1.6358
 IR Inten    --      9.6360                25.4822                 2.6392

                     67                     68                     69
                      A                      A                      A
 Frequencies --   1509.0707              1516.2585              1521.9740
 Red. masses --      1.6124                 1.0978                 1.0604
 Frc consts  --      2.1634                 1.4871                 1.4472
 IR Inten    --     43.6800                 0.3611                 0.7418

                     70                     71                     72
                      A                      A                      A
 Frequencies --   1527.7842              1534.5356              1537.6396
 Red. masses --      1.2994                 1.1828                 1.0802
 Frc consts  --      1.7870                 1.6410                 1.5047
 IR Inten    --      4.5924                22.7205                 6.6112

                     73                     74                     75
                      A                      A                      A
 Frequencies --   1588.0169              1831.4593              3009.1721
 Red. masses --      4.7234                 9.5978                 1.0654
 Frc consts  --      7.0181                18.9678                 5.6841
 IR Inten    --     21.2909               317.2667                60.0395

                     76                     77                     78
                      A                      A                      A
 Frequencies --   3050.8014              3053.8840              3055.9125
 Red. masses --      1.0397                 1.0634                 1.0648
 Frc consts  --      5.7016                 5.8430                 5.8587
 IR Inten    --     14.9637                14.4499                32.0757

                     79                     80                     81
                      A                      A                      A
 Frequencies --   3066.2305              3072.4886              3078.0870
 Red. masses --      1.0642                 1.0804                 1.0946
 Frc consts  --      5.8947                 6.0092                 6.1106
 IR Inten    --     17.0636                48.5264                57.5823

                     82                     83                     84
                      A                      A                      A
 Frequencies --   3095.2840              3111.7405              3117.0139
 Red. masses --      1.1005                 1.1027                 1.1031
 Frc consts  --      6.2120                 6.2907                 6.3147
 IR Inten    --      3.9736                 7.2962                23.2697

                     85                     86                     87
                      A                      A                      A
 Frequencies --   3123.0191              3131.8487              3259.3239
 Red. masses --      1.1008                 1.1026                 1.0961
 Frc consts  --      6.3258                 6.3719                 6.8607
 IR Inten    --     35.6582                36.5052                 2.1448

                     88                     89                     90
                      A                      A                      A
 Frequencies --   3277.3555              3646.1602              3682.7969
 Red. masses --      1.0977                 1.0658                 1.0641
 Frc consts  --      6.9467                 8.3481                 8.5030
 IR Inten    --      0.6989               316.0381                56.2840

 - Thermochemistry -
 -------------------
 Temperature   298.150 Kelvin.  Pressure   1.00000 Atm.
 Atom     1 has atomic number  6 and mass  12.00000

 Molecular mass:   228.11101 amu.
 Principal axes and moments of inertia in atomic units:
                           1         2         3
     Eigenvalues --  2654.358484291.845624768.09710
           X            0.99969   0.01057  -0.02249
           Y           -0.01042   0.99992   0.00656
           Z            0.02256  -0.00632   0.99973
 This molecule is an asymmetric top.
 Rotational symmetry number  1.
 Warning -- assumption of classical behavior for rotation
           may cause significant error
 Rotational temperatures (Kelvin)      0.03263     0.02018     0.01817
 Rotational constants (GHZ):           0.67992     0.42050     0.37850
 Zero-point vibrational energy     705121.3 (Joules/Mol)
                                  168.52802 (Kcal/Mol)
 Warning -- explicit consideration of  22 degrees of freedom as
           vibrations may cause significant error
 Vibrational temperatures:     54.97    75.16    83.45   104.54   119.92
          (Kelvin)            138.55   147.89   196.01   247.11   280.10
                              302.42   354.34   384.55   424.49   474.27
                              505.08   559.02   605.78   654.37   715.01
                              753.56   856.01   933.28   955.31   966.47
                              971.81   997.08  1058.88  1159.69  1177.48
                             1184.69  1235.78  1238.17  1271.78  1312.20
                             1315.78  1325.34  1389.00  1447.13  1510.70
                             1577.68  1605.66  1621.37  1635.37  1645.65
                             1676.55  1693.56  1742.50  1801.71  1811.62
                             1823.95  1891.64  1905.63  1911.47  1919.94
                             1962.57  2012.97  2017.83  2041.55  2048.71
                             2055.13  2067.07  2073.58  2084.32  2116.63
                             2165.97  2171.22  2181.56  2189.78  2198.14
                             2207.85  2212.32  2284.80  2635.06  4329.53
                             4389.42  4393.86  4396.78  4411.62  4420.63
                             4428.68  4453.42  4477.10  4484.69  4493.33
                             4506.03  4689.44  4715.38  5246.01  5298.72

 Zero-point correction=                           0.268567 (Hartree/Particle)
 Thermal correction to Energy=                    0.284655
 Thermal correction to Enthalpy=                  0.285599
 Thermal correction to Gibbs Free Energy=         0.223987
 Sum of electronic and zero-point Energies=           -800.868620
 Sum of electronic and thermal Energies=              -800.852532
 Sum of electronic and thermal Enthalpies=            -800.851588
 Sum of electronic and thermal Free Energies=         -800.913200

                     E (Thermal)             CV                S
                      KCal/Mol        Cal/Mol-Kelvin    Cal/Mol-Kelvin
 Total                  178.624             59.132            129.674
 Electronic               0.000              0.000              0.000
 Translational            0.889              2.981             42.176
 Rotational               0.889              2.981             32.363
 Vibrational            176.846             53.170             55.135
 Vibration     1          0.594              1.982              5.350
 Vibration     2          0.596              1.977              4.731
 Vibration     3          0.596              1.974              4.524
 Vibration     4          0.599              1.967              4.080
 Vibration     5          0.600              1.961              3.810
 Vibration     6          0.603              1.952              3.528
 Vibration     7          0.605              1.947              3.401
 Vibration     8          0.614              1.917              2.856
 Vibration     9          0.626              1.877              2.416
 Vibration    10          0.635              1.847              2.183
 Vibration    11          0.642              1.825              2.042
 Vibration    12          0.661              1.769              1.757
 Vibration    13          0.672              1.733              1.614
 Vibration    14          0.689              1.683              1.445
 Vibration    15          0.712              1.616              1.262
 Vibration    16          0.728              1.573              1.161
 Vibration    17          0.757              1.495              1.006
 Vibration    18          0.784              1.425              0.888
 Vibration    19          0.813              1.350              0.781
 Vibration    20          0.852              1.257              0.666
 Vibration    21          0.879              1.197              0.601
 Vibration    22          0.953              1.043              0.458

                           ! Non-Optimized Parameters !
 Normal termination of Gaussian 16 at Thu Dec 10 22:26:57 2020.

 ----------------------------------------------------------------------
 # B3LYP/6-311++G(d,p) empiricaldispersion=gd3bj scf=xqc pop=npa geom=c
 heck
 ----------------------------------------------------------------------

 ---------------------------------------
 CID_103377548_JID_6333_Energie_neutraal
 ---------------------------------------
 Structure from the checkpoint file:  "JID_6333.chk"
 Charge =  0 Multiplicity = 1

 SCF Done:  E(RB3LYP) =  -801.382102943     A.U. after   16 cycles
 Normal termination of Gaussian 16 at Thu Dec 10 22:31:32 2020.

 ----------------------------------------------------------------------
 # B3LYP/6-311++G(d,p) empiricaldispersion=gd3bj scf=xqc pop=npa geom=c
 heck
 ----------------------------------------------------------------------

 -------------------------------------
 CID_103377548_JID_6333_Energie_kation
 -------------------------------------
 Structure from the checkpoint file:  "JID_6333.chk"
 Charge =  1 Multiplicity = 2

 SCF Done:  E(UB3LYP) =  -801.072443222     A.U. after   26 cycles
 Normal termination of Gaussian 16 at Thu Dec 10 22:41:30 2020.
 Gaussian 16:  ES64L-G16RevA.03 25-Dec-2016

 ----------------------------------------------------------------------
 # B3LYP/6-311++G(d,p) empiricaldispersion=gd3bj scf=xqc pop=npa geom=c
 heck
 ----------------------------------------------------------------------

 ------------------------------------
 CID_103377548_JID_6333_Energie_anion
 ------------------------------------
 Structure from the checkpoint file:  "JID_6333.chk"
 Charge = -1 Multiplicity = 2

                         Standard orientation:
 ---------------------------------------------------------------------
 Center     Atomic      Atomic             Coordinates (Angstroms)
 Number     Number       Type             X           Y           Z
 ---------------------------------------------------------------------
      1          6           0        3.176203    1.712243   -0.311868
      2          6           0        2.646404    0.747440   -1.373541
      3          6           0        2.544183   -0.698504   -0.870932
      4          7           0        1.671958   -0.837276    0.290483
      5          6           0        2.072917   -1.059872    1.576324
      6          7           0        1.066409   -1.053820    2.429782
      7          6           0       -0.047264   -0.809679    1.666005
      8          6           0        0.291295   -0.672344    0.334545
      9          6           0       -0.533332   -0.395822   -0.880043
     10          6           0       -1.819780   -1.223764   -0.803739
     11          8           0       -2.906001   -0.857790   -0.403498
     12          8           0       -1.604176   -2.472843   -1.258764
     13          8           0       -0.809038    0.963364   -1.193237
     14          6           0       -0.776842    1.977308   -0.178365
     15          6           0       -2.145510    2.296124    0.411177
     16          8           0       -2.628883    1.311092    1.301243
     17          1           0        2.514406    1.744231    0.559735
     18          1           0        3.251708    2.728156   -0.712477
     19          1           0        4.172750    1.413837    0.036197
     20          1           0        1.662042    1.078982   -1.721896
     21          1           0        3.308483    0.745201   -2.248833
     22          1           0        2.184038   -1.361221   -1.665625
     23          1           0        3.529105   -1.066769   -0.566425
     24          1           0        3.113577   -1.222717    1.824468
     25          1           0       -1.030004   -0.702850    2.103299
     26          1           0       -0.002073   -0.783586   -1.755934
     27          1           0       -2.440326   -2.962602   -1.141258
     28          1           0       -0.086264    1.699827    0.623634
     29          1           0       -0.383934    2.866240   -0.686147
     30          1           0       -2.050288    3.225846    0.986332
     31          1           0       -2.853189    2.484353   -0.411345
     32          1           0       -2.923458    0.561367    0.751081
 ---------------------------------------------------------------------

 SCF Done:  E(UB3LYP) =  -801.376476555     A.U. after   33 cycles
 SCF Done:  E(UB3LYP) =  -801.376476554     a.u. after    1 cycles

 The electronic state is 2-A.
 Alpha  occ. eigenvalues --  -19.08171 -19.04162 -19.03181 -19.01430 -14.27688
 Alpha  occ. eigenvalues --  -14.19940 -10.21446 -10.15923 -10.12663 -10.12510
 Alpha  occ. eigenvalues --  -10.12286 -10.11995 -10.11072 -10.08926 -10.07759
 Alpha  occ. eigenvalues --  -10.06838  -1.02637  -0.95407  -0.93545  -0.92485
 Alpha  occ. eigenvalues --   -0.91834  -0.79636  -0.70932  -0.68826  -0.65368
 Alpha  occ. eigenvalues --   -0.61754  -0.60574  -0.54151  -0.52557  -0.51473
 Alpha  occ. eigenvalues --   -0.50653  -0.46042  -0.43937  -0.43233  -0.42439
 Alpha  occ. eigenvalues --   -0.40018  -0.39463  -0.38512  -0.37809  -0.36712
 Alpha  occ. eigenvalues --   -0.35597  -0.34647  -0.34050  -0.32347  -0.31942
 Alpha  occ. eigenvalues --   -0.31419  -0.31361  -0.30273  -0.29260  -0.26521
 Alpha  occ. eigenvalues --   -0.26420  -0.25906  -0.24936  -0.24283  -0.23159
 Alpha  occ. eigenvalues --   -0.21179  -0.19344  -0.17985  -0.17870  -0.16574
 Alpha  occ. eigenvalues --   -0.13922   0.03952
 Alpha virt. eigenvalues --    0.05952   0.06705   0.07001   0.07877   0.08434
 Alpha virt. eigenvalues --    0.09671   0.09894   0.10424   0.10758   0.10997
 Alpha virt. eigenvalues --    0.11536   0.12335   0.12542   0.13056   0.13133

  Beta  occ. eigenvalues --  -19.08110 -19.04141 -19.03112 -19.01430 -14.27678
  Beta  occ. eigenvalues --  -14.19947 -10.21311 -10.15916 -10.12618 -10.12503
  Beta  occ. eigenvalues --  -10.12284 -10.11953 -10.11058 -10.08908 -10.07735
  Beta  occ. eigenvalues --  -10.06816  -1.02481  -0.95350  -0.93428  -0.92452
  Beta  occ. eigenvalues --   -0.91824  -0.79605  -0.70858  -0.68777  -0.65335
  Beta  occ. eigenvalues --   -0.61652  -0.60499  -0.54037  -0.52492  -0.51402
  Beta  occ. eigenvalues --   -0.50595  -0.45964  -0.43886  -0.43155  -0.42316
  Beta  occ. eigenvalues --   -0.39951  -0.39406  -0.38418  -0.37735  -0.36529
  Beta  occ. eigenvalues --   -0.35567  -0.34471  -0.34001  -0.32292  -0.31906
  Beta  occ. eigenvalues --   -0.31348  -0.31305  -0.30229  -0.29226  -0.26466
  Beta  occ. eigenvalues --   -0.26369  -0.25867  -0.24890  -0.24028  -0.23092
  Beta  occ. eigenvalues --   -0.21135  -0.19294  -0.17967  -0.17827  -0.16544
  Beta  occ. eigenvalues --   -0.13777
  Beta virt. eigenvalues --    0.06502   0.07106   0.07414   0.07737   0.08568
  Beta virt. eigenvalues --    0.08883   0.09957   0.10272   0.10727   0.10951
  Beta virt. eigenvalues --    0.11353   0.11901   0.12498   0.12761   0.13166

 Mulliken charges and spin densities:
               1          2
     1  C    0.499133  -1.089433
     2  C   -0.574194   0.594970
     3  C    1.282415  -1.680898
     4  N   -0.011102   0.160711
     5  C   -0.106226   0.157610
     6  N   -0.107519   0.019672
     7  C    0.190185  -0.639555
     8  C   -0.651895   0.916408
     9  C    0.500506  -1.331211
    10  C    0.117935  -0.105142
    11  O   -0.308790   0.039099
    12  O   -0.138971   0.032718
    13  O    0.036085   0.032873
    14  C   -0.132516   0.104759
    15  C   -0.174802  -0.332017
    16  O   -0.251378   0.002222
    17  H    0.146941   0.027487
    18  H   -0.183441   0.316444
    19  H    0.008211   0.144276
    20  H    0.068642   0.129136
    21  H   -0.862224   1.058222
    22  H   -0.261553   0.435995
    23  H   -0.573342   0.773571
    24  H   -0.174258   0.332087
    25  H    0.184002  -0.026794
    26  H    0.104261   0.134306
    27  H   -0.265418   0.551899
    28  H    0.096996   0.056883
    29  H    0.040269   0.111802
    30  H    0.104442   0.040002
    31  H    0.143357   0.021585
    32  H    0.254247   0.010312
 Sum of Mulliken charges =  -1.00000   1.00000

 Dipole moment (field-independent basis, Debye):
    X=             -3.9441    Y=              3.2129    Z=              1.7203  Tot=              5.3701
 Quadrupole moment (field-independent basis, Debye-Ang):
   XX=           -165.8428   YY=           -132.2491   ZZ=           -142.4148
   XY=             -1.5386   XZ=             11.7485   YZ=             -2.5104

 Summary of Natural Population Analysis:

                                       Natural Population
                Natural  -----------------------------------------------
    Atom  No    Charge         Core      Valence    Rydberg      Total
 -----------------------------------------------------------------------
      C    1   -0.28736      0.99966     2.28213    0.00557     3.28736
      C    2   -0.20058      0.99963     2.19214    0.00881     3.20058
      C    3   -0.08298      0.99960     2.07092    0.01246     3.08298
      N    4   -0.20411      0.99962     2.69194    0.01255     3.70411
      C    5    0.11750      0.99962     1.86566    0.01723     2.88250
      N    6   -0.25859      0.99973     2.74907    0.00979     3.75859
      C    7   -0.01489      0.99950     2.00310    0.01229     3.01489
      C    8    0.03393      0.99949     1.95394    0.01264     2.96607
      C    9    0.00475      0.99943     1.97915    0.01666     2.99525
      C   10    0.42857      0.99972     1.54571    0.02601     2.57143
      O   11   -0.32180      0.99984     3.31499    0.00697     4.32180
      O   12   -0.33586      0.99987     3.32969    0.00630     4.33586
      O   13   -0.29925      0.99988     3.29070    0.00867     4.29925
      C   14   -0.02850      0.99955     2.01550    0.01345     3.02850
      C   15   -0.02126      0.99960     2.01007    0.01160     3.02126
      O   16   -0.38412      0.99989     3.37696    0.00727     4.38412
      H   17    0.09781      0.00000     0.40091    0.00128     0.40219
      H   18    0.10053      0.00000     0.39863    0.00084     0.39947
      H   19    0.09784      0.00000     0.40109    0.00106     0.40216
      H   20    0.10177      0.00000     0.39620    0.00202     0.39823
      H   21    0.10354      0.00000     0.39340    0.00306     0.39646
      H   22    0.10578      0.00000     0.39189    0.00233     0.39422
      H   23    0.10483      0.00000     0.39214    0.00303     0.39517
      H   24    0.09406      0.00000     0.40453    0.00142     0.40594
      H   25    0.10621      0.00000     0.39246    0.00133     0.39379
      H   26    0.11262      0.00000     0.38477    0.00261     0.38738
      H   27    0.24324      0.00000     0.24858    0.00818     0.25676
      H   28    0.09271      0.00000     0.40575    0.00154     0.40729
      H   29    0.08825      0.00000     0.41043    0.00131     0.41175
      H   30    0.08258      0.00000     0.41624    0.00118     0.41742
      H   31    0.07829      0.00000     0.42046    0.00125     0.42171
      H   32    0.24451      0.00000     0.25219    0.00330     0.25549
 =======================================================================
   * Total *    0.00000     15.99465    44.78132    0.22403    61.00000

 Normal termination of Gaussian 16 at Thu Dec 10 22:54:22 2020.
