 Gaussian 16, Revision A.03,

 -----------------------------------------------------------
 # opt freq B3LYP/6-31G(d) empiricaldispersion=gd3bj scf=xqc
 -----------------------------------------------------------

 -----------------------------
 CID_55281652_JID_931_neutraal
 -----------------------------
 Symbolic Z-matrix:
 Charge =  0 Multiplicity = 1

 SCF Done:  E(RB3LYP) =  -404.351485157     A.U. after   14 cycles
 SCF Done:  E(RB3LYP) =  -404.354358693     A.U. after   12 cycles
 SCF Done:  E(RB3LYP) =  -404.354851192     A.U. after   12 cycles
 SCF Done:  E(RB3LYP) =  -404.355157124     A.U. after   12 cycles
 SCF Done:  E(RB3LYP) =  -404.355189656     A.U. after    9 cycles
 SCF Done:  E(RB3LYP) =  -404.355199764     A.U. after    9 cycles
 SCF Done:  E(RB3LYP) =  -404.355200879     A.U. after    8 cycles
 SCF Done:  E(RB3LYP) =  -404.355202639     A.U. after    9 cycles
 SCF Done:  E(RB3LYP) =  -404.355203241     A.U. after    8 cycles
 SCF Done:  E(RB3LYP) =  -404.355204361     A.U. after    9 cycles
 SCF Done:  E(RB3LYP) =  -404.355244884     A.U. after    9 cycles
 SCF Done:  E(RB3LYP) =  -404.355245770     A.U. after    9 cycles
 SCF Done:  E(RB3LYP) =  -404.355245948     A.U. after    9 cycles
 SCF Done:  E(RB3LYP) =  -404.355245985     A.U. after    8 cycles
 SCF Done:  E(RB3LYP) =  -404.355245990     A.U. after    7 cycles
 Optimization completed.
    -- Stationary point found.

 1\1\GINC-NODE102\FOpt\RB3LYP\6-31G(d)\C9H11N1\VSC10255\08-Dec-2020\0\\
 # opt freq B3LYP/6-31G(d) empiricaldispersion=gd3bj scf=xqc\\CID_55281
 652_JID_931_neutraal\\0,1\C,-2.9522983397,0.033298249,0.0704006522\C,-
 1.4446947658,-0.0111417335,0.0060473729\C,-0.7553110916,-1.2222547931,
 -0.0365277538\C,0.6445724614,-1.2964339992,-0.0869930029\C,1.387190607
 4,-0.0934870038,-0.0864066236\C,0.7017884884,1.1289694669,-0.057567205
 3\C,-0.6868331653,1.1675856017,-0.0160344776\N,2.7884683581,-0.1269446
 156,-0.1558449051\C,1.3431944397,-2.5870064161,-0.1778281601\C,0.93648

 Normal termination of Gaussian 16 at Tue Dec  8 13:37:29 2020.

 --------------------------------------------------------------------
 #N Geom=AllCheck Guess=TCheck SCRF=Check GenChk RB3LYP/6-31G(d) Freq
 --------------------------------------------------------------------

 Structure from the checkpoint file:  "JID_931.chk"
 -----------------------------
 CID_55281652_JID_931_neutraal
 -----------------------------
 Charge =  0 Multiplicity = 1

 SCF Done:  E(RB3LYP) =  -404.355245990     A.U. after    1 cycles

  Exact polarizability: 136.947   8.347 125.352  -1.319   3.308  45.163
 Approx polarizability: 204.864  13.785 206.840  -3.264   7.827  68.280

                      1                      2                      3
                      A                      A                      A
 Frequencies --     26.8626                99.3512               140.2853
 Red. masses --      1.0280                 2.7607                 3.2905
 Frc consts  --      0.0004                 0.0161                 0.0382
 IR Inten    --      0.2103                 1.8548                 1.2761

                      4                      5                      6
                      A                      A                      A
 Frequencies --    161.8684               232.6186               298.6070
 Red. masses --      3.0588                 2.1950                 1.9626
 Frc consts  --      0.0472                 0.0700                 0.1031
 IR Inten    --      2.7664                 3.7113                10.0257

                      7                      8                      9
                      A                      A                      A
 Frequencies --    331.9661               336.3854               381.2826
 Red. masses --      3.3287                 1.4504                 2.6969
 Frc consts  --      0.2161                 0.0967                 0.2310
 IR Inten    --      4.4522                17.6332                 3.3556

                     10                     11                     12
                      A                      A                      A
 Frequencies --    439.2882               471.7286               514.4061
 Red. masses --      2.6314                 5.1738                 2.6990
 Frc consts  --      0.2992                 0.6783                 0.4208
 IR Inten    --      4.3582                 3.2536                 8.9881

                     13                     14                     15
                      A                      A                      A
 Frequencies --    554.0038               577.6830               670.0537
 Red. masses --      3.5429                 2.9819                 1.9950
 Frc consts  --      0.6407                 0.5863                 0.5277
 IR Inten    --     11.6623                 5.9142                59.3562

                     16                     17                     18
                      A                      A                      A
 Frequencies --    679.4111               733.4399               779.1740
 Red. masses --      1.7747                 3.8099                 2.5601
 Frc consts  --      0.4827                 1.2075                 0.9157
 IR Inten    --    204.6432                26.5713                11.1372

                     19                     20                     21
                      A                      A                      A
 Frequencies --    810.2533               827.2127               909.0362
 Red. masses --      2.5281                 1.7485                 1.3390
 Frc consts  --      0.9779                 0.7049                 0.6519
 IR Inten    --      0.6820                56.1723                 5.1239

                     22                     23                     24
                      A                      A                      A
 Frequencies --    923.8959               936.2525               943.9431
 Red. masses --      1.4031                 1.3241                 2.8855
 Frc consts  --      0.7056                 0.6838                 1.5148
 IR Inten    --     32.1968                 1.1921                 1.4583

                     25                     26                     27
                      A                      A                      A
 Frequencies --   1026.4316              1051.7742              1075.9347
 Red. masses --      1.4351                 1.1073                 1.4779
 Frc consts  --      0.8909                 0.7217                 1.0080
 IR Inten    --      5.8966                16.6922                 6.1867

                     28                     29                     30
                      A                      A                      A
 Frequencies --   1085.0113              1099.7209              1173.9529
 Red. masses --      1.5893                 1.6530                 1.8064
 Frc consts  --      1.1024                 1.1778                 1.4668
 IR Inten    --      0.5571                 0.5504                 3.6528

                     31                     32                     33
                      A                      A                      A
 Frequencies --   1197.6429              1264.1695              1313.5134
 Red. masses --      1.3429                 2.0290                 3.2035
 Frc consts  --      1.1349                 1.9105                 3.2564
 IR Inten    --      9.8975                 1.9183                24.3942

                     34                     35                     36
                      A                      A                      A
 Frequencies --   1336.5012              1347.9592              1372.5763
 Red. masses --      1.9596                 1.3182                 3.1592
 Frc consts  --      2.0623                 1.4112                 3.5067
 IR Inten    --     30.0108                 1.1563                13.5668

                     37                     38                     39
                      A                      A                      A
 Frequencies --   1443.8612              1468.6552              1475.7989
 Red. masses --      1.2473                 2.1781                 1.5303
 Frc consts  --      1.5321                 2.7680                 1.9638
 IR Inten    --      1.9494                 4.8157                12.1966

                     40                     41                     42
                      A                      A                      A
 Frequencies --   1516.6883              1530.5403              1553.7040
 Red. masses --      1.0462                 1.1593                 2.8390
 Frc consts  --      1.4179                 1.6001                 4.0378
 IR Inten    --      4.7547                13.0729                76.8046

                     43                     44                     45
                      A                      A                      A
 Frequencies --   1634.8982              1672.9607              1695.7224
 Red. masses --      5.5806                 3.3235                 1.4625
 Frc consts  --      8.7885                 5.4805                 2.4777
 IR Inten    --      2.8559                 4.9720                66.1914

                     46                     47                     48
                      A                      A                      A
 Frequencies --   1712.2491              3037.1777              3089.5397
 Red. masses --      3.3701                 1.0397                 1.0980
 Frc consts  --      5.8214                 5.6504                 6.1748
 IR Inten    --     32.8769                46.9015                25.9001

                     49                     50                     51
                      A                      A                      A
 Frequencies --   3121.0091              3145.6477              3165.6763
 Red. masses --      1.1011                 1.0841                 1.0726
 Frc consts  --      6.3191                 6.3203                 6.3334
 IR Inten    --     17.2034                13.4727                13.7017

                     52                     53                     54
                      A                      A                      A
 Frequencies --   3165.9961              3184.4596              3187.0616
 Red. masses --      1.0774                 1.0919                 1.0913
 Frc consts  --      6.3625                 6.5241                 6.5309
 IR Inten    --     10.4289                36.8972                 4.5912

                     55                     56                     57
                      A                      A                      A
 Frequencies --   3245.3574              3542.2708              3636.9801
 Red. masses --      1.1163                 1.0483                 1.0971
 Frc consts  --      6.9270                 7.7498                 8.5506
 IR Inten    --     18.3583                 9.3399                11.7706

 - Thermochemistry -
 -------------------
 Temperature   298.150 Kelvin.  Pressure   1.00000 Atm.
 Atom     1 has atomic number  6 and mass  12.00000

 Molecular mass:   133.08915 amu.
 Principal axes and moments of inertia in atomic units:
                           1         2         3
     Eigenvalues --   949.023251571.785622486.36913
           X            0.99987  -0.01584   0.00167
           Y            0.01584   0.99987  -0.00127
           Z           -0.00165   0.00130   1.00000
 This molecule is an asymmetric top.
 Rotational symmetry number  1.
 Warning -- assumption of classical behavior for rotation
           may cause significant error
 Rotational temperatures (Kelvin)      0.09127     0.05511     0.03484
 Rotational constants (GHZ):           1.90168     1.14821     0.72585
 Zero-point vibrational energy     468639.8 (Joules/Mol)
                                  112.00759 (Kcal/Mol)
 Warning -- explicit consideration of  14 degrees of freedom as
           vibrations may cause significant error
 Vibrational temperatures:     38.65   142.94   201.84   232.89   334.69
          (Kelvin)            429.63   477.63   483.98   548.58   632.04
                              678.71   740.12   797.09   831.16   964.06
                              977.52  1055.26  1121.06  1165.77  1190.17
                             1307.90  1329.28  1347.06  1358.12  1476.81
                             1513.27  1548.03  1561.09  1582.25  1689.06
                             1723.14  1818.86  1889.85  1922.93  1939.41
                             1974.83  2077.39  2113.07  2123.35  2182.18
                             2202.11  2235.43  2352.25  2407.02  2439.77
                             2463.54  4369.82  4445.16  4490.44  4525.89
                             4554.70  4555.16  4581.73  4585.47  4669.35
                             5096.54  5232.80

 Zero-point correction=                           0.178495 (Hartree/Particle)
 Thermal correction to Energy=                    0.188383
 Thermal correction to Enthalpy=                  0.189327
 Thermal correction to Gibbs Free Energy=         0.142843
 Sum of electronic and zero-point Energies=           -404.176751
 Sum of electronic and thermal Energies=              -404.166863
 Sum of electronic and thermal Enthalpies=            -404.165919
 Sum of electronic and thermal Free Energies=         -404.212403

                     E (Thermal)             CV                S
                      KCal/Mol        Cal/Mol-Kelvin    Cal/Mol-Kelvin
 Total                  118.212             37.591             97.834
 Electronic               0.000              0.000              0.000
 Translational            0.889              2.981             40.570
 Rotational               0.889              2.981             29.696
 Vibrational            116.435             31.629             27.568
 Vibration     1          0.593              1.984              6.049
 Vibration     2          0.604              1.950              3.467
 Vibration     3          0.615              1.913              2.800
 Vibration     4          0.622              1.889              2.528
 Vibration     5          0.653              1.791              1.859
 Vibration     6          0.692              1.676              1.425
 Vibration     7          0.714              1.612              1.250
 Vibration     8          0.717              1.603              1.229
 Vibration     9          0.751              1.510              1.034
 Vibration    10          0.799              1.385              0.829
 Vibration    11          0.829              1.313              0.733
 Vibration    12          0.869              1.218              0.623
 Vibration    13          0.909              1.131              0.536
 Vibration    14          0.934              1.080              0.490

 Optimization completed.
    -- Stationary point found.

 1\1\GINC-NODE102\Freq\RB3LYP\6-31G(d)\C9H11N1\VSC10255\08-Dec-2020\0\\
 #N Geom=AllCheck Guess=TCheck SCRF=Check GenChk RB3LYP/6-31G(d) Freq\\
 CID_55281652_JID_931_neutraal\\0,1\C,-2.9522983397,0.033298249,0.07040
 06522\C,-1.4446947658,-0.0111417335,0.0060473729\C,-0.7553110916,-1.22
 22547931,-0.0365277538\C,0.6445724614,-1.2964339992,-0.0869930029\C,1.
 3871906074,-0.0934870038,-0.0864066236\C,0.7017884884,1.1289694669,-0.
 0575672053\C,-0.6868331653,1.1675856017,-0.0160344776\N,2.7884683581,-
 0.1269446156,-0.1558449051\C,1.3431944397,-2.5870064161,-0.1778281601\

 Normal termination of Gaussian 16 at Tue Dec  8 13:43:10 2020.

 ----------------------------------------------------------------------
 # B3LYP/6-311++G(d,p) empiricaldispersion=gd3bj scf=xqc pop=npa geom=c
 heck
 ----------------------------------------------------------------------

 -------------------------------------
 CID_55281652_JID_931_Energie_neutraal
 -------------------------------------
 Structure from the checkpoint file:  "JID_931.chk"
 Charge =  0 Multiplicity = 1

 SCF Done:  E(RB3LYP) =  -404.470257940     A.U. after   15 cycles
 Normal termination of Gaussian 16 at Tue Dec  8 13:44:45 2020.

 ----------------------------------------------------------------------
 # B3LYP/6-311++G(d,p) empiricaldispersion=gd3bj scf=xqc pop=npa geom=c
 heck
 ----------------------------------------------------------------------

 -----------------------------------
 CID_55281652_JID_931_Energie_kation
 -----------------------------------
 Structure from the checkpoint file:  "JID_931.chk"
 Charge =  1 Multiplicity = 2

 SCF Done:  E(UB3LYP) =  -404.197348514     A.U. after   22 cycles
 Normal termination of Gaussian 16 at Tue Dec  8 13:49:58 2020.
 Gaussian 16:  ES64L-G16RevA.03 25-Dec-2016

 ----------------------------------
 CID_55281652_JID_931_Energie_anion
 ----------------------------------
 Structure from the checkpoint file:  "JID_931.chk"
 Charge = -1 Multiplicity = 2

                         Standard orientation:
 ---------------------------------------------------------------------
 Center     Atomic      Atomic             Coordinates (Angstroms)
 Number     Number       Type             X           Y           Z
 ---------------------------------------------------------------------
      1          6           0        3.010876   -1.148985    0.003257
      2          6           0        1.733383   -0.344708    0.014809
      3          6           0        0.486709   -0.963508    0.096950
      4          6           0       -0.717813   -0.244593    0.100168
      5          6           0       -0.665618    1.165145    0.008081
      6          6           0        0.584051    1.796452   -0.061105
      7          6           0        1.759424    1.054878   -0.053917
      8          7           0       -1.848654    1.919830    0.028002
      9          6           0       -2.016399   -0.921027    0.234383
     10          6           0       -2.320294   -2.139105   -0.231079
     11          1           0        3.755912   -0.732324    0.691253
     12          1           0        2.828449   -2.187627    0.297171
     13          1           0        3.468556   -1.165644   -0.994857
     14          1           0        0.436976   -2.044681    0.197324
     15          1           0        0.627615    2.881619   -0.127036
     16          1           0        2.714562    1.572698   -0.105003
     17          1           0       -2.614276    1.503352   -0.488178
     18          1           0       -1.716454    2.884225   -0.253042
     19          1           0       -2.781969   -0.363751    0.775145
     20          1           0       -3.294171   -2.585049   -0.052479
     21          1           0       -1.610531   -2.728919   -0.805606
 ---------------------------------------------------------------------

 SCF Done:  E(UB3LYP) =  -404.456026480     A.U. after   33 cycles
 SCF Done:  E(UB3LYP) =  -404.456026480     a.u. after    1 cycles

 The electronic state is 2-A.
 Alpha  occ. eigenvalues --  -14.18404 -10.07783 -10.05865 -10.04796 -10.04045
 Alpha  occ. eigenvalues --  -10.04004 -10.03832 -10.03746 -10.03690 -10.02784
 Alpha  occ. eigenvalues --   -0.78871  -0.71740  -0.66144  -0.63207  -0.59423
 Alpha  occ. eigenvalues --   -0.55615  -0.50059  -0.46101  -0.42396  -0.38889
 Alpha  occ. eigenvalues --   -0.38351  -0.33694  -0.32140  -0.31769  -0.30882
 Alpha  occ. eigenvalues --   -0.29881  -0.28872  -0.26611  -0.25222  -0.24893
 Alpha  occ. eigenvalues --   -0.21901  -0.20876  -0.17893  -0.16512  -0.11081
 Alpha  occ. eigenvalues --   -0.07686   0.05470
 Alpha virt. eigenvalues --    0.07683   0.07819   0.08856   0.09721   0.10297
 Alpha virt. eigenvalues --    0.10752   0.11924   0.12361   0.12953   0.13593
 Alpha virt. eigenvalues --    0.13989   0.14597   0.14989   0.17093   0.17247

  Beta  occ. eigenvalues --  -14.18321 -10.07740 -10.05857 -10.04833 -10.03997
  Beta  occ. eigenvalues --  -10.03940 -10.03715 -10.03670 -10.03652 -10.02595
  Beta  occ. eigenvalues --   -0.78745  -0.71610  -0.65914  -0.63108  -0.59176
  Beta  occ. eigenvalues --   -0.55471  -0.49749  -0.45963  -0.42188  -0.38751
  Beta  occ. eigenvalues --   -0.38244  -0.33565  -0.32016  -0.31682  -0.30857
  Beta  occ. eigenvalues --   -0.29791  -0.28744  -0.26543  -0.25068  -0.24674
  Beta  occ. eigenvalues --   -0.21813  -0.20767  -0.17616  -0.15808  -0.10463
  Beta  occ. eigenvalues --   -0.07251
  Beta virt. eigenvalues --    0.07553   0.08779   0.08954   0.09415   0.10270
  Beta virt. eigenvalues --    0.10532   0.10739   0.12421   0.12484   0.13145
  Beta virt. eigenvalues --    0.13788   0.14330   0.14692   0.15562   0.17089

 Mulliken charges and spin densities:
               1          2
     1  C    0.240895  -0.693154
     2  C    0.766190  -0.101013
     3  C   -1.755614   0.664881
     4  C    1.351067   0.252268
     5  C   -0.360301  -0.703584
     6  C   -0.368996  -0.185916
     7  C    0.456728  -0.475440
     8  N   -0.267828   0.018030
     9  C    0.443036  -0.424404
    10  C   -0.326543  -0.084181
    11  H    0.117969   0.002454
    12  H    0.065888   0.075835
    13  H    0.053503   0.083632
    14  H   -0.091186   0.154123
    15  H   -0.724328   0.849410
    16  H    0.029926   0.083718
    17  H   -0.222858   0.477531
    18  H   -0.369610   0.615634
    19  H   -0.044756   0.211740
    20  H   -0.116786   0.209707
    21  H    0.123604  -0.031274
 Sum of Mulliken charges =  -1.00000   1.00000

 Dipole moment (field-independent basis, Debye):
    X=              4.8243    Y=             -4.1213    Z=              0.2588  Tot=              6.3503
 Quadrupole moment (field-independent basis, Debye-Ang):
   XX=            -99.5064   YY=           -106.1821   ZZ=            -79.6069
   XY=              4.2119   XZ=              0.4062   YZ=              4.3767

 Summary of Natural Population Analysis:

                                       Natural Population
                Natural  -----------------------------------------------
    Atom  No    Charge         Core      Valence    Rydberg      Total
 -----------------------------------------------------------------------
      C    1   -0.28655      0.99964     2.28217    0.00474     3.28655
      C    2   -0.04966      0.99951     2.04231    0.00784     3.04966
      C    3   -0.07330      0.99949     2.06635    0.00746     3.07330
      C    4   -0.04877      0.99946     2.03831    0.01099     3.04877
      C    5    0.09918      0.99945     1.88981    0.01156     2.90082
      C    6   -0.12107      0.99953     2.11121    0.01033     3.12107
      C    7   -0.07630      0.99952     2.06707    0.00970     3.07630
      N    8   -0.39936      0.99972     2.88839    0.01124     3.89936
      C    9   -0.09824      0.99955     2.08630    0.01239     3.09824
      C   10   -0.15913      0.99958     2.15287    0.00668     3.15913
      H   11    0.09571      0.00000     0.40312    0.00117     0.40429
      H   12    0.09781      0.00000     0.40128    0.00091     0.40219
      H   13    0.09635      0.00000     0.40220    0.00145     0.40365
      H   14    0.09382      0.00000     0.40444    0.00174     0.40618
      H   15    0.09588      0.00000     0.40248    0.00164     0.40412
      H   16    0.09118      0.00000     0.40795    0.00087     0.40882
      H   17    0.18967      0.00000     0.30644    0.00389     0.31033
      H   18    0.18526      0.00000     0.30681    0.00792     0.31474
      H   19    0.09651      0.00000     0.40190    0.00159     0.40349
      H   20    0.08665      0.00000     0.41226    0.00109     0.41335
      H   21    0.08435      0.00000     0.41453    0.00111     0.41565
 =======================================================================
   * Total *    0.00000      9.99547    25.88821    0.11632    36.00000

 Normal termination of Gaussian 16 at Tue Dec  8 13:56:26 2020.
