 Gaussian 16, Revision A.03,

 -----------------------------------------------------------
 # opt freq B3LYP/6-31G(d) empiricaldispersion=gd3bj scf=xqc
 -----------------------------------------------------------

 -----------------------------
 CID_82707377_JID_474_neutraal
 -----------------------------
 Symbolic Z-matrix:
 Charge =  0 Multiplicity = 1

 SCF Done:  E(RB3LYP) =  -479.707805970     A.U. after   14 cycles
 SCF Done:  E(RB3LYP) =  -479.709917612     A.U. after   12 cycles
 SCF Done:  E(RB3LYP) =  -479.709973484     A.U. after   12 cycles
 SCF Done:  E(RB3LYP) =  -479.710281452     A.U. after   11 cycles
 SCF Done:  E(RB3LYP) =  -479.710329693     A.U. after   11 cycles
 SCF Done:  E(RB3LYP) =  -479.710335870     A.U. after    9 cycles
 SCF Done:  E(RB3LYP) =  -479.710336733     A.U. after    7 cycles
 SCF Done:  E(RB3LYP) =  -479.710336836     A.U. after    7 cycles
 SCF Done:  E(RB3LYP) =  -479.710336862     A.U. after    6 cycles
 Optimization completed.
    -- Stationary point found.
 Normal termination of Gaussian 16 at Tue Dec  8 10:42:16 2020.

 --------------------------------------------------------------------
 #N Geom=AllCheck Guess=TCheck SCRF=Check GenChk RB3LYP/6-31G(d) Freq
 --------------------------------------------------------------------

 Structure from the checkpoint file:  "JID_474.chk"
 -----------------------------
 CID_82707377_JID_474_neutraal
 -----------------------------
 Charge =  0 Multiplicity = 1

 SCF Done:  E(RB3LYP) =  -479.710336862     A.U. after    1 cycles

  Exact polarizability:  91.710  -3.514  89.877  -6.438  -2.085  69.373
 Approx polarizability: 114.185 -10.746 141.976  -9.024  -3.860 100.304

                      1                      2                      3
                      A                      A                      A
 Frequencies --     43.9921                63.6937               100.4784
 Red. masses --      3.1356                 2.9594                 3.9207
 Frc consts  --      0.0036                 0.0071                 0.0233
 IR Inten    --      0.6755                 2.0945                 2.5576

                      4                      5                      6
                      A                      A                      A
 Frequencies --    138.3684               195.4991               228.4205
 Red. masses --      2.8150                 1.6397                 1.7588
 Frc consts  --      0.0318                 0.0369                 0.0541
 IR Inten    --      0.4516                 0.1256                 5.0626

                      7                      8                      9
                      A                      A                      A
 Frequencies --    262.3576               324.5687               376.8206
 Red. masses --      2.6339                 3.3557                 2.5874
 Frc consts  --      0.1068                 0.2083                 0.2165
 IR Inten    --      1.6589                 2.8368                 1.4732

                     10                     11                     12
                      A                      A                      A
 Frequencies --    432.7980               462.8755               502.7398
 Red. masses --      2.4082                 3.0067                 3.3746
 Frc consts  --      0.2658                 0.3795                 0.5025
 IR Inten    --     10.3320                18.3680                 8.2779

                     13                     14                     15
                      A                      A                      A
 Frequencies --    567.0026               602.4681               743.4306
 Red. masses --      2.5604                 4.2920                 1.4061
 Frc consts  --      0.4850                 0.9179                 0.4579
 IR Inten    --      5.6333                 6.7762                17.7618

                     16                     17                     18
                      A                      A                      A
 Frequencies --    779.5121               805.9195               841.5010
 Red. masses --      1.9264                 2.7223                 3.8533
 Frc consts  --      0.6897                 1.0418                 1.6077
 IR Inten    --      5.9495                10.7670                15.2707

                     19                     20                     21
                      A                      A                      A
 Frequencies --    899.7890               915.9457               926.9348
 Red. masses --      2.8190                 2.7559                 1.9117
 Frc consts  --      1.3447                 1.3622                 0.9678
 IR Inten    --     29.9644                 2.1241                57.9326

                     22                     23                     24
                      A                      A                      A
 Frequencies --    941.9380               988.5521              1009.4963
 Red. masses --      1.2756                 2.0373                 2.2187
 Frc consts  --      0.6668                 1.1730                 1.3322
 IR Inten    --      0.2425                48.4367                10.6543

                     25                     26                     27
                      A                      A                      A
 Frequencies --   1052.5351              1090.1068              1094.2666
 Red. masses --      3.3704                 2.1785                 2.9922
 Frc consts  --      2.1999                 1.5252                 2.1110
 IR Inten    --     23.1301                19.0201                51.0771

                     28                     29                     30
                      A                      A                      A
 Frequencies --   1101.0807              1120.9139              1154.4851
 Red. masses --      2.0347                 2.1565                 1.8059
 Frc consts  --      1.4534                 1.5964                 1.4182
 IR Inten    --     61.9355                 7.9450                18.9005

                     31                     32                     33
                      A                      A                      A
 Frequencies --   1189.4320              1218.8573              1228.2160
 Red. masses --      1.2611                 1.4258                 1.4841
 Frc consts  --      1.0512                 1.2480                 1.3190
 IR Inten    --      1.3388                10.4116                10.2662

                     34                     35                     36
                      A                      A                      A
 Frequencies --   1279.1935              1282.0078              1293.8563
 Red. masses --      1.3882                 1.5015                 1.2423
 Frc consts  --      1.3384                 1.4540                 1.2253
 IR Inten    --      8.9162                82.4248                 4.3602

                     37                     38                     39
                      A                      A                      A
 Frequencies --   1350.4885              1360.0116              1387.2317
 Red. masses --      1.2300                 1.3126                 1.4532
 Frc consts  --      1.3217                 1.4305                 1.6477
 IR Inten    --      6.1207                 3.1434                 0.8822

                     40                     41                     42
                      A                      A                      A
 Frequencies --   1401.7175              1421.6710              1446.2849
 Red. masses --      1.4712                 1.3825                 1.5063
 Frc consts  --      1.7031                 1.6464                 1.8564
 IR Inten    --      3.0851                 6.5681                 3.4225

                     43                     44                     45
                      A                      A                      A
 Frequencies --   1478.5622              1489.2302              1502.1017
 Red. masses --      1.1223                 1.1126                 1.0954
 Frc consts  --      1.4455                 1.4538                 1.4563
 IR Inten    --      0.9740                 7.9278                 5.6256

                     46                     47                     48
                      A                      A                      A
 Frequencies --   1505.3233              1509.0284              1527.5295
 Red. masses --      1.0700                 1.1099                 1.0992
 Frc consts  --      1.4285                 1.4891                 1.5112
 IR Inten    --      3.9665                 6.2843                 1.8374

                     49                     50                     51
                      A                      A                      A
 Frequencies --   1538.4726              1730.1795              3026.9587
 Red. masses --      1.0560                 5.9489                 1.0312
 Frc consts  --      1.4726                10.4922                 5.5670
 IR Inten    --      9.9752                65.4322                56.3050

                     52                     53                     54
                      A                      A                      A
 Frequencies --   3032.0791              3048.7702              3056.5019
 Red. masses --      1.0628                 1.0810                 1.0907
 Frc consts  --      5.7570                 5.9198                 6.0036
 IR Inten    --     35.5086                 9.7741                37.3691

                     55                     56                     57
                      A                      A                      A
 Frequencies --   3067.3661              3071.4110              3088.3907
 Red. masses --      1.0678                 1.0805                 1.1066
 Frc consts  --      5.9192                 6.0053                 6.2188
 IR Inten    --     38.4886                43.3250                53.9997

                     58                     59                     60
                      A                      A                      A
 Frequencies --   3131.0345              3134.1298              3140.0460
 Red. masses --      1.0992                 1.1026                 1.0959
 Frc consts  --      6.3488                 6.3814                 6.3661
 IR Inten    --     15.6049                27.3104                13.1773

                     61                     62                     63
                      A                      A                      A
 Frequencies --   3194.5754              3218.1917              3441.8678
 Red. masses --      1.0857                 1.0989                 1.0752
 Frc consts  --      6.5278                 6.7055                 7.5044
 IR Inten    --      4.1646                34.2879                 2.3639

 - Thermochemistry -
 -------------------
 Temperature   298.150 Kelvin.  Pressure   1.00000 Atm.
 Atom     1 has atomic number  6 and mass  12.00000

 Molecular mass:   143.09463 amu.
 Principal axes and moments of inertia in atomic units:
                           1         2         3
     Eigenvalues --   744.661282071.634552375.55130
           X            0.99998   0.00258   0.00618
           Y           -0.00251   0.99992  -0.01261
           Z           -0.00621   0.01259   0.99990
 This molecule is an asymmetric top.
 Rotational symmetry number  1.
 Warning -- assumption of classical behavior for rotation
           may cause significant error
 Rotational temperatures (Kelvin)      0.11631     0.04181     0.03646
 Rotational constants (GHZ):           2.42357     0.87117     0.75971
 Zero-point vibrational energy     529701.7 (Joules/Mol)
                                  126.60174 (Kcal/Mol)
 Warning -- explicit consideration of  14 degrees of freedom as
           vibrations may cause significant error
 Vibrational temperatures:     63.29    91.64   144.57   199.08   281.28
          (Kelvin)            328.65   377.47   466.98   542.16   622.70
                              665.97   723.33   815.79   866.82  1069.63
                             1121.54  1159.54  1210.73  1294.60  1317.84
                             1333.65  1355.24  1422.31  1452.44  1514.36
                             1568.42  1574.41  1584.21  1612.75  1661.05
                             1711.33  1753.66  1767.13  1840.47  1844.52
                             1861.57  1943.05  1956.75  1995.92  2016.76
                             2045.47  2080.88  2127.32  2142.67  2161.19
                             2165.82  2171.16  2197.77  2213.52  2489.34
                             4355.12  4362.49  4386.50  4397.62  4413.26
                             4419.08  4443.51  4504.86  4509.31  4517.83
                             4596.28  4630.26  4952.08

 Zero-point correction=                           0.201753 (Hartree/Particle)
 Thermal correction to Energy=                    0.211919
 Thermal correction to Enthalpy=                  0.212863
 Thermal correction to Gibbs Free Energy=         0.165466
 Sum of electronic and zero-point Energies=           -479.508584
 Sum of electronic and thermal Energies=              -479.498418
 Sum of electronic and thermal Enthalpies=            -479.497474
 Sum of electronic and thermal Free Energies=         -479.544871

                     E (Thermal)             CV                S
                      KCal/Mol        Cal/Mol-Kelvin    Cal/Mol-Kelvin
 Total                  132.981             37.648             99.756
 Electronic               0.000              0.000              0.000
 Translational            0.889              2.981             40.786
 Rotational               0.889              2.981             29.684
 Vibrational            131.204             31.686             29.286
 Vibration     1          0.595              1.980              5.071
 Vibration     2          0.597              1.972              4.339
 Vibration     3          0.604              1.949              3.445
 Vibration     4          0.614              1.915              2.826
 Vibration     5          0.636              1.846              2.175
 Vibration     6          0.651              1.798              1.891
 Vibration     7          0.670              1.742              1.646
 Vibration     8          0.709              1.626              1.287
 Vibration     9          0.747              1.520              1.052
 Vibration    10          0.794              1.399              0.850
 Vibration    11          0.821              1.332              0.758
 Vibration    12          0.858              1.244              0.651
 Vibration    13          0.923              1.103              0.510
 Vibration    14          0.961              1.027              0.445

 Optimization completed.
    -- Stationary point found.
 Normal termination of Gaussian 16 at Tue Dec  8 10:47:18 2020.

 ----------------------------------------------------------------------
 # B3LYP/6-311++G(d,p) empiricaldispersion=gd3bj scf=xqc pop=npa geom=c
 heck
 ----------------------------------------------------------------------

 -------------------------------------
 CID_82707377_JID_474_Energie_neutraal
 -------------------------------------
 Structure from the checkpoint file:  "JID_474.chk"
 Charge =  0 Multiplicity = 1

 SCF Done:  E(RB3LYP) =  -479.853206002     A.U. after   13 cycles
 Normal termination of Gaussian 16 at Tue Dec  8 10:50:24 2020.

 ----------------------------------------------------------------------
 # B3LYP/6-311++G(d,p) empiricaldispersion=gd3bj scf=xqc pop=npa geom=c
 heck
 ----------------------------------------------------------------------

 -----------------------------------
 CID_82707377_JID_474_Energie_kation
 -----------------------------------
 Structure from the checkpoint file:  "JID_474.chk"
 Charge =  1 Multiplicity = 2

 SCF Done:  E(UB3LYP) =  -479.558270556     A.U. after   19 cycles
 Normal termination of Gaussian 16 at Tue Dec  8 10:55:03 2020.
 Gaussian 16:  ES64L-G16RevA.03 25-Dec-2016

 ----------------------------------------------------------------------
 # B3LYP/6-311++G(d,p) empiricaldispersion=gd3bj scf=xqc pop=npa geom=c
 heck
 ----------------------------------------------------------------------

 ----------------------------------
 CID_82707377_JID_474_Energie_anion
 ----------------------------------
 Structure from the checkpoint file:  "JID_474.chk"
 Charge = -1 Multiplicity = 2

                         Standard orientation:
 ---------------------------------------------------------------------
 Center     Atomic      Atomic             Coordinates (Angstroms)
 Number     Number       Type             X           Y           Z
 ---------------------------------------------------------------------
      1          6           0       -3.196378    0.753001   -0.548536
      2          8           0       -2.182452    0.285432    0.327014
      3          7           0       -1.843729   -1.065449   -0.059825
      4          6           0       -0.446086   -1.102229   -0.488828
      5          6           0        0.627768   -0.890262    0.594977
      6          6           0        0.643661    0.486630    1.262985
      7          6           0        0.966818    1.583886    0.240972
      8          6           0        2.101847    1.130764   -0.637686
      9          6           0        2.491236   -0.147942   -0.677677
     10          8           0        1.907009   -1.186218   -0.005138
     11          1           0       -3.414964    1.775219   -0.224938
     12          1           0       -4.102373    0.138180   -0.477787
     13          1           0       -2.854626    0.763934   -1.591931
     14          1           0       -1.940813   -1.581398    0.817224
     15          1           0       -0.282309   -2.095133   -0.924933
     16          1           0       -0.327859   -0.373771   -1.295448
     17          1           0        0.503458   -1.667865    1.358721
     18          1           0       -0.317697    0.670572    1.747004
     19          1           0        1.419626    0.468178    2.037851
     20          1           0        0.070366    1.819475   -0.349257
     21          1           0        1.237152    2.510508    0.763727
     22          1           0        2.648252    1.853964   -1.235306
     23          1           0        3.338235   -0.500519   -1.258399
 ---------------------------------------------------------------------

 SCF Done:  E(UB3LYP) =  -479.835289220     A.U. after   30 cycles

 The electronic state is 2-A.
 Alpha  occ. eigenvalues --  -19.04486 -19.04252 -14.24805 -10.12164 -10.11383
 Alpha  occ. eigenvalues --  -10.10337 -10.09170 -10.06374 -10.06007 -10.05399
 Alpha  occ. eigenvalues --   -0.96298  -0.95657  -0.75523  -0.69618  -0.66686
 Alpha  occ. eigenvalues --   -0.59266  -0.55193  -0.53387  -0.51835  -0.42954
 Alpha  occ. eigenvalues --   -0.40907  -0.40420  -0.37805  -0.36449  -0.35534
 Alpha  occ. eigenvalues --   -0.33515  -0.32538  -0.31656  -0.30290  -0.29150
 Alpha  occ. eigenvalues --   -0.27635  -0.27337  -0.25497  -0.23655  -0.22069
 Alpha  occ. eigenvalues --   -0.20558  -0.16906  -0.14729  -0.11565   0.04830
 Alpha virt. eigenvalues --    0.07009   0.07281   0.08270   0.09628   0.09865
 Alpha virt. eigenvalues --    0.10340   0.10643   0.11380   0.12085   0.12841
 Alpha virt. eigenvalues --    0.13061   0.13501   0.14965   0.15795   0.16580

  Beta  occ. eigenvalues --  -19.04475 -19.04252 -14.24773 -10.12145 -10.11373
  Beta  occ. eigenvalues --  -10.10297 -10.09155 -10.06357 -10.05995 -10.05386
  Beta  occ. eigenvalues --   -0.96275  -0.95646  -0.75484  -0.69587  -0.66646
  Beta  occ. eigenvalues --   -0.59213  -0.55124  -0.53338  -0.51775  -0.42908
  Beta  occ. eigenvalues --   -0.40869  -0.40366  -0.37762  -0.36403  -0.35502
  Beta  occ. eigenvalues --   -0.33470  -0.32506  -0.31622  -0.30242  -0.29116
  Beta  occ. eigenvalues --   -0.27607  -0.27308  -0.25453  -0.23630  -0.22032
  Beta  occ. eigenvalues --   -0.20529  -0.16878  -0.14689  -0.11548
  Beta virt. eigenvalues --    0.07150   0.08001   0.08433   0.08875   0.10249
  Beta virt. eigenvalues --    0.10487   0.10978   0.11210   0.11787   0.12469
  Beta virt. eigenvalues --    0.13106   0.13507   0.13863   0.15277   0.15862

 Mulliken charges and spin densities:
               1          2
     1  C    1.037741  -1.288858
     2  O   -0.113069   0.049126
     3  N   -0.406251   0.152890
     4  C    0.560435  -1.220901
     5  C   -0.236938   0.291062
     6  C    0.230200  -0.560715
     7  C    0.509774  -0.916819
     8  C    0.275084  -0.160254
     9  C    0.007492  -0.406413
    10  O   -0.085689   0.004728
    11  H   -0.392674   0.525417
    12  H   -0.345691   0.485945
    13  H   -0.304576   0.438852
    14  H   -0.123524   0.400824
    15  H   -0.044364   0.232345
    16  H    0.033327   0.151743
    17  H   -0.629917   0.868672
    18  H    0.173748   0.002794
    19  H   -0.119523   0.280171
    20  H    0.065068   0.090836
    21  H   -0.265838   0.425498
    22  H   -0.529709   0.705678
    23  H   -0.295108   0.447381
 Sum of Mulliken charges =  -1.00000   1.00000

 Dipole moment (field-independent basis, Debye):
    X=              1.5756    Y=             -0.8736    Z=             -0.1061  Tot=              1.8048
 Quadrupole moment (field-independent basis, Debye-Ang):
   XX=           -122.3647   YY=           -104.2378   ZZ=            -93.2717
   XY=             -2.4501   XZ=              1.0090   YZ=              4.6038

 Summary of Natural Population Analysis:

                                       Natural Population
                Natural  -----------------------------------------------
    Atom  No    Charge         Core      Valence    Rydberg      Total
 -----------------------------------------------------------------------
      C    1   -0.09093      0.99962     2.08196    0.00935     3.09093
      O    2   -0.23866      0.99991     3.22697    0.01178     4.23866
      N    3   -0.17645      0.99974     2.66259    0.01412     3.67645
      C    4   -0.10914      0.99959     2.09578    0.01377     3.10914
      C    5    0.06282      0.99953     1.92251    0.01514     2.93718
      C    6   -0.20525      0.99961     2.19713    0.00851     3.20525
      C    7   -0.20909      0.99962     2.19959    0.00989     3.20909
      C    8   -0.15326      0.99955     2.14294    0.01077     3.15326
      C    9    0.07586      0.99941     1.91043    0.01430     2.92414
      O   10   -0.28717      0.99988     3.27627    0.01102     4.28717
      H   11    0.08882      0.00000     0.40908    0.00210     0.41118
      H   12    0.08121      0.00000     0.41629    0.00250     0.41879
      H   13    0.07969      0.00000     0.41809    0.00221     0.42031
      H   14    0.17098      0.00000     0.32450    0.00452     0.32902
      H   15    0.10240      0.00000     0.39626    0.00135     0.39760
      H   16    0.10103      0.00000     0.39725    0.00172     0.39897
      H   17    0.09330      0.00000     0.40427    0.00243     0.40670
      H   18    0.11469      0.00000     0.38334    0.00197     0.38531
      H   19    0.09814      0.00000     0.40057    0.00129     0.40186
      H   20    0.10453      0.00000     0.39355    0.00192     0.39547
      H   21    0.10385      0.00000     0.39468    0.00147     0.39615
      H   22    0.10350      0.00000     0.39507    0.00143     0.39650
      H   23    0.08915      0.00000     0.40964    0.00122     0.41085
 =======================================================================
   * Total *    0.00000      9.99646    28.85877    0.14478    39.00000

 Normal termination of Gaussian 16 at Tue Dec  8 11:02:09 2020.
