 Gaussian 16, Revision A.03,

 -----------------------------------------------------------
 # opt freq B3LYP/6-31G(d) empiricaldispersion=gd3bj scf=xqc
 -----------------------------------------------------------

 -------------------------------
 CID_113438548_JID_7345_neutraal
 -------------------------------
 Symbolic Z-matrix:
 Charge =  0 Multiplicity = 1

 SCF Done:  E(RB3LYP) =  -769.999993252     A.U. after   14 cycles
 SCF Done:  E(RB3LYP) =  -770.003703519     A.U. after   13 cycles
 SCF Done:  E(RB3LYP) =  -769.999159429     A.U. after   13 cycles
 SCF Done:  E(RB3LYP) =  -770.005505455     A.U. after   12 cycles
 SCF Done:  E(RB3LYP) =  -770.005711635     A.U. after   12 cycles
 SCF Done:  E(RB3LYP) =  -770.007061040     A.U. after   12 cycles
 SCF Done:  E(RB3LYP) =  -770.007207225     A.U. after   11 cycles
 SCF Done:  E(RB3LYP) =  -770.007265389     A.U. after   11 cycles
 SCF Done:  E(RB3LYP) =  -770.007300266     A.U. after   10 cycles
 SCF Done:  E(RB3LYP) =  -770.007339352     A.U. after   11 cycles
 SCF Done:  E(RB3LYP) =  -770.008214789     A.U. after   10 cycles
 SCF Done:  E(RB3LYP) =  -770.008218056     A.U. after    9 cycles
 SCF Done:  E(RB3LYP) =  -770.008218167     A.U. after    9 cycles
 SCF Done:  E(RB3LYP) =  -770.008218743     A.U. after    9 cycles
 SCF Done:  E(RB3LYP) =  -770.008218685     A.U. after    7 cycles
 Optimization completed.
    -- Stationary point found.
 Normal termination of Gaussian 16 at Fri Dec 11 12:52:57 2020.

 --------------------------------------------------------------------
 #N Geom=AllCheck Guess=TCheck SCRF=Check GenChk RB3LYP/6-31G(d) Freq
 --------------------------------------------------------------------

 Structure from the checkpoint file:  "JID_7345.chk"
 -------------------------------
 CID_113438548_JID_7345_neutraal
 -------------------------------
 Charge =  0 Multiplicity = 1

 SCF Done:  E(RB3LYP) =  -770.008218685     A.U. after    1 cycles

  Exact polarizability: 190.751  14.185 178.556  15.815  -8.454 103.059
 Approx polarizability: 282.053  19.440 255.358  30.308 -16.289 157.502

                      1                      2                      3
                      A                      A                      A
 Frequencies --     18.8061                37.6954                52.2467
 Red. masses --      3.8632                 4.0164                 3.4408
 Frc consts  --      0.0008                 0.0034                 0.0055
 IR Inten    --      0.4763                 0.2288                 0.7649

                      4                      5                      6
                      A                      A                      A
 Frequencies --     75.8477                83.8697                93.2919
 Red. masses --      3.7139                 3.7073                 4.1883
 Frc consts  --      0.0126                 0.0154                 0.0215
 IR Inten    --      3.3206                 1.9224                 0.9815

                      7                      8                      9
                      A                      A                      A
 Frequencies --    118.4436               154.5067               172.4298
 Red. masses --      3.8703                 2.2591                 1.8804
 Frc consts  --      0.0320                 0.0318                 0.0329
 IR Inten    --      1.6495                 2.7545                 0.9751

                     10                     11                     12
                      A                      A                      A
 Frequencies --    214.6156               232.4025               248.1546
 Red. masses --      4.1071                 2.3405                 3.4061
 Frc consts  --      0.1115                 0.0745                 0.1236
 IR Inten    --      3.2557                 3.0321                 2.4048

                     13                     14                     15
                      A                      A                      A
 Frequencies --    258.9089               282.6171               320.0093
 Red. masses --      1.1833                 1.7499                 4.3469
 Frc consts  --      0.0467                 0.0824                 0.2623
 IR Inten    --    126.8596                 4.4612                 4.1537

                     16                     17                     18
                      A                      A                      A
 Frequencies --    328.9673               391.4606               401.9467
 Red. masses --      4.8174                 2.8921                 2.6086
 Frc consts  --      0.3072                 0.2611                 0.2483
 IR Inten    --      1.5529                 9.8457                 1.1682

                     19                     20                     21
                      A                      A                      A
 Frequencies --    426.8441               501.0404               530.8429
 Red. masses --      3.5086                 3.5560                 3.5894
 Frc consts  --      0.3766                 0.5260                 0.5959
 IR Inten    --      1.9660                 7.5634                 9.6647

                     22                     23                     24
                      A                      A                      A
 Frequencies --    538.1397               561.4624               572.6435
 Red. masses --      2.8246                 4.4182                 2.8311
 Frc consts  --      0.4819                 0.8206                 0.5470
 IR Inten    --      4.1226                 7.9084                 0.2843

                     25                     26                     27
                      A                      A                      A
 Frequencies --    622.8042               637.8232               673.5298
 Red. masses --      3.1143                 4.5128                 4.7011
 Frc consts  --      0.7117                 1.0817                 1.2565
 IR Inten    --      3.2642                 3.9057                 5.1781

                     28                     29                     30
                      A                      A                      A
 Frequencies --    745.3359               764.9763               811.5753
 Red. masses --      3.5640                 1.3171                 3.2082
 Frc consts  --      1.1665                 0.4541                 1.2450
 IR Inten    --      2.7300                49.8856                 5.2574

                     31                     32                     33
                      A                      A                      A
 Frequencies --    840.4062               855.1205               868.7149
 Red. masses --      2.4705                 1.4526                 1.7518
 Frc consts  --      1.0280                 0.6258                 0.7789
 IR Inten    --      0.8037                 5.5499                13.1584

                     34                     35                     36
                      A                      A                      A
 Frequencies --    877.3382               892.1803               908.8122
 Red. masses --      2.6327                 2.0280                 2.6712
 Frc consts  --      1.1940                 0.9511                 1.2999
 IR Inten    --     13.7191                 6.1893                 6.8922

                     37                     38                     39
                      A                      A                      A
 Frequencies --    935.0134               939.5463               971.4816
 Red. masses --      2.6789                 1.3791                 1.2638
 Frc consts  --      1.3799                 0.7173                 0.7028
 IR Inten    --     30.1698                 1.1837                 0.3248

                     40                     41                     42
                      A                      A                      A
 Frequencies --    986.0331              1002.7833              1016.4812
 Red. masses --      2.3520                 2.7106                 2.5429
 Frc consts  --      1.3473                 1.6060                 1.5480
 IR Inten    --      2.4116                20.3684                28.0421

                     43                     44                     45
                      A                      A                      A
 Frequencies --   1042.9837              1075.6630              1086.4973
 Red. masses --      2.1304                 2.4406                 2.2175
 Frc consts  --      1.3654                 1.6638                 1.5423
 IR Inten    --     13.8424                50.5259                12.9529

                     46                     47                     48
                      A                      A                      A
 Frequencies --   1094.9534              1100.4440              1128.8658
 Red. masses --      2.6781                 3.0210                 1.9763
 Frc consts  --      1.8918                 2.1554                 1.4839
 IR Inten    --     48.2924                 5.4313                25.8836

                     49                     50                     51
                      A                      A                      A
 Frequencies --   1152.7166              1173.2750              1185.2214
 Red. masses --      1.8693                 1.1924                 1.6672
 Frc consts  --      1.4635                 0.9671                 1.3799
 IR Inten    --     49.2902                 4.4067                20.2244

                     52                     53                     54
                      A                      A                      A
 Frequencies --   1196.2412              1197.9448              1230.0920
 Red. masses --      1.7197                 1.1006                 1.5224
 Frc consts  --      1.4499                 0.9306                 1.3572
 IR Inten    --     24.6498                 7.4108                12.5605

                     55                     56                     57
                      A                      A                      A
 Frequencies --   1242.4228              1268.0386              1278.1884
 Red. masses --      1.8334                 1.3117                 1.7933
 Frc consts  --      1.6674                 1.2426                 1.7262
 IR Inten    --     47.0209                77.0405                19.2277

                     58                     59                     60
                      A                      A                      A
 Frequencies --   1283.7209              1287.2414              1302.8106
 Red. masses --      1.1735                 1.5373                 2.7314
 Frc consts  --      1.1394                 1.5008                 2.7314
 IR Inten    --     12.0867                25.3377               188.5453

                     61                     62                     63
                      A                      A                      A
 Frequencies --   1326.6356              1328.2426              1332.9396
 Red. masses --      1.3381                 1.4880                 1.2818
 Frc consts  --      1.3876                 1.5467                 1.3418
 IR Inten    --     48.0022                21.4204                 5.3786

                     64                     65                     66
                      A                      A                      A
 Frequencies --   1353.6256              1357.1450              1374.9410
 Red. masses --      3.8063                 1.6962                 2.1074
 Frc consts  --      4.1092                 1.8407                 2.3472
 IR Inten    --      5.1953                70.5598                35.4941

                     67                     68                     69
                      A                      A                      A
 Frequencies --   1422.8372              1431.2215              1442.6530
 Red. masses --      1.2782                 1.4856                 1.3929
 Frc consts  --      1.5246                 1.7929                 1.7080
 IR Inten    --     28.3549                 6.7421                12.2237

                     70                     71                     72
                      A                      A                      A
 Frequencies --   1498.3649              1500.4708              1513.1199
 Red. masses --      1.2956                 1.8428                 1.1036
 Frc consts  --      1.7137                 2.4444                 1.4887
 IR Inten    --     19.6999                32.1443                 4.9382

                     73                     74                     75
                      A                      A                      A
 Frequencies --   1514.7475              1519.7075              1532.1363
 Red. masses --      1.0993                 1.0996                 1.3459
 Frc consts  --      1.4861                 1.4962                 1.8615
 IR Inten    --      4.2917                 1.4530                37.2703

                     76                     77                     78
                      A                      A                      A
 Frequencies --   1533.2694              1541.3996              1554.2304
 Red. masses --      1.1015                 1.3912                 1.2582
 Frc consts  --      1.5257                 1.9475                 1.7907
 IR Inten    --      9.1470                48.8587                 2.7223

                     79                     80                     81
                      A                      A                      A
 Frequencies --   1635.6463              1657.5530              1692.7975
 Red. masses --      5.9591                 5.8713                 7.2405
 Frc consts  --      9.3932                 9.5043                12.2245
 IR Inten    --      8.3357                26.8353                14.1310

                     82                     83                     84
                      A                      A                      A
 Frequencies --   2956.8765              2980.9946              2997.2327
 Red. masses --      1.0826                 1.0697                 1.0438
 Frc consts  --      5.5768                 5.6007                 5.5245
 IR Inten    --     81.6670                53.7708                51.1104

                     85                     86                     87
                      A                      A                      A
 Frequencies --   3016.8901              3052.5991              3061.3514
 Red. masses --      1.0586                 1.1049                 1.0979
 Frc consts  --      5.6769                 6.0664                 6.0621
 IR Inten    --     85.0372                37.0228                47.2683

                     88                     89                     90
                      A                      A                      A
 Frequencies --   3066.7964              3074.7729              3100.7735
 Red. masses --      1.0607                 1.0628                 1.1025
 Frc consts  --      5.8776                 5.9202                 6.2454
 IR Inten    --     17.9021                27.0710                15.2522

                     91                     92                     93
                      A                      A                      A
 Frequencies --   3119.0478              3125.6555              3141.3606
 Red. masses --      1.0924                 1.1049                 1.0977
 Frc consts  --      6.2614                 6.3599                 6.3820
 IR Inten    --     31.0088                34.8619                26.7760

                     94                     95                     96
                      A                      A                      A
 Frequencies --   3187.9545              3191.3563              3200.3791
 Red. masses --      1.0858                 1.0923                 1.0899
 Frc consts  --      6.5016                 6.5545                 6.5772
 IR Inten    --      0.9028                15.1334                13.1582

                     97                     98                     99
                      A                      A                      A
 Frequencies --   3213.0212              3225.1465              3742.7737
 Red. masses --      1.0948                 1.0929                 1.0662
 Frc consts  --      6.6589                 6.6975                 8.8000
 IR Inten    --     29.8600                13.8399                13.5901

 - Thermochemistry -
 -------------------
 Temperature   298.150 Kelvin.  Pressure   1.00000 Atm.
 Atom     1 has atomic number  6 and mass  12.00000

 Molecular mass:   234.12559 amu.
 Principal axes and moments of inertia in atomic units:
                           1         2         3
     Eigenvalues --  3641.064634848.259767749.26448
           X            0.99984  -0.01767  -0.00134
           Y            0.01767   0.99984   0.00152
           Z            0.00132  -0.00154   1.00000
 This molecule is an asymmetric top.
 Rotational symmetry number  1.
 Warning -- assumption of classical behavior for rotation
           may cause significant error
 Rotational temperatures (Kelvin)      0.02379     0.01786     0.01118
 Rotational constants (GHZ):           0.49566     0.37225     0.23289
 Zero-point vibrational energy     782436.3 (Joules/Mol)
                                  187.00677 (Kcal/Mol)
 Warning -- explicit consideration of  24 degrees of freedom as
           vibrations may cause significant error
 Vibrational temperatures:     27.06    54.24    75.17   109.13   120.67
          (Kelvin)            134.23   170.41   222.30   248.09   308.78
                              334.38   357.04   372.51   406.62   460.42
                              473.31   563.22   578.31   614.13   720.89
                              763.76   774.26   807.82   823.91   896.08
                              917.69   969.06  1072.37  1100.63  1167.68
                             1209.16  1230.33  1249.89  1262.29  1283.65
                             1307.58  1345.28  1351.80  1397.75  1418.68
                             1442.78  1462.49  1500.62  1547.64  1563.23
                             1575.39  1583.29  1624.19  1658.50  1688.08
                             1705.27  1721.12  1723.58  1769.83  1787.57
                             1824.42  1839.03  1846.99  1852.05  1874.45
                             1908.73  1911.04  1917.80  1947.57  1952.63
                             1978.23  2047.15  2059.21  2075.66  2155.81
                             2158.84  2177.04  2179.38  2186.52  2204.40
                             2206.03  2217.73  2236.19  2353.33  2384.85
                             2435.56  4254.29  4288.99  4312.35  4340.63
                             4392.01  4404.60  4412.44  4423.91  4461.32
                             4487.61  4497.12  4519.72  4586.76  4591.65
                             4604.63  4622.82  4640.27  5385.02

 Zero-point correction=                           0.298014 (Hartree/Particle)
 Thermal correction to Energy=                    0.314538
 Thermal correction to Enthalpy=                  0.315482
 Thermal correction to Gibbs Free Energy=         0.252064
 Sum of electronic and zero-point Energies=           -769.710204
 Sum of electronic and thermal Energies=              -769.693680
 Sum of electronic and thermal Enthalpies=            -769.692736
 Sum of electronic and thermal Free Energies=         -769.756155

                     E (Thermal)             CV                S
                      KCal/Mol        Cal/Mol-Kelvin    Cal/Mol-Kelvin
 Total                  197.376             62.091            133.475
 Electronic               0.000              0.000              0.000
 Translational            0.889              2.981             42.254
 Rotational               0.889              2.981             33.281
 Vibrational            195.598             56.130             57.941
 Vibration     1          0.593              1.986              6.756
 Vibration     2          0.594              1.982              5.377
 Vibration     3          0.596              1.977              4.730
 Vibration     4          0.599              1.965              3.996
 Vibration     5          0.601              1.960              3.798
 Vibration     6          0.602              1.954              3.590
 Vibration     7          0.609              1.934              3.126
 Vibration     8          0.620              1.898              2.616
 Vibration     9          0.626              1.876              2.409
 Vibration    10          0.645              1.819              2.004
 Vibration    11          0.653              1.791              1.860
 Vibration    12          0.662              1.766              1.744
 Vibration    13          0.668              1.748              1.669
 Vibration    14          0.682              1.706              1.518
 Vibration    15          0.706              1.635              1.310
 Vibration    16          0.712              1.618              1.265
 Vibration    17          0.759              1.488              0.995
 Vibration    18          0.768              1.466              0.956
 Vibration    19          0.789              1.412              0.869
 Vibration    20          0.856              1.248              0.656
 Vibration    21          0.886              1.182              0.585
 Vibration    22          0.893              1.166              0.569
 Vibration    23          0.917              1.115              0.521
 Vibration    24          0.929              1.090              0.499

 Optimization completed.
    -- Stationary point found.
 Normal termination of Gaussian 16 at Fri Dec 11 13:07:31 2020.

 ----------------------------------------------------------------------
 # B3LYP/6-311++G(d,p) empiricaldispersion=gd3bj scf=xqc pop=npa geom=c
 heck
 ----------------------------------------------------------------------

 ---------------------------------------
 CID_113438548_JID_7345_Energie_neutraal
 ---------------------------------------
 Structure from the checkpoint file:  "JID_7345.chk"
 Charge =  0 Multiplicity = 1

 SCF Done:  E(RB3LYP) =  -770.230357284     A.U. after   16 cycles
 Normal termination of Gaussian 16 at Fri Dec 11 13:15:20 2020.

 ----------------------------------------------------------------------
 # B3LYP/6-311++G(d,p) empiricaldispersion=gd3bj scf=xqc pop=npa geom=c
 heck
 ----------------------------------------------------------------------

 -------------------------------------
 CID_113438548_JID_7345_Energie_kation
 -------------------------------------
 Structure from the checkpoint file:  "JID_7345.chk"
 Charge =  1 Multiplicity = 2

 SCF Done:  E(UB3LYP) =  -769.952602199     A.U. after   25 cycles
 Normal termination of Gaussian 16 at Fri Dec 11 13:32:16 2020.
 Gaussian 16:  ES64L-G16RevA.03 25-Dec-2016

 ----------------------------------------------------------------------
 # B3LYP/6-311++G(d,p) empiricaldispersion=gd3bj scf=xqc pop=npa geom=c
 heck
 ----------------------------------------------------------------------

 ------------------------------------
 CID_113438548_JID_7345_Energie_anion
 ------------------------------------
 Structure from the checkpoint file:  "JID_7345.chk"
 Charge = -1 Multiplicity = 2

                         Standard orientation:
 ---------------------------------------------------------------------
 Center     Atomic      Atomic             Coordinates (Angstroms)
 Number     Number       Type             X           Y           Z
 ---------------------------------------------------------------------
      1          6           0       -2.301126    2.599472    1.588353
      2          8           0       -2.056051    2.762941    0.205553
      3          6           0       -2.898538    1.999247   -0.629963
      4          6           0       -2.805229    0.491252   -0.420840
      5          8           0       -1.435363    0.145759   -0.495354
      6          6           0       -1.044615   -1.135454   -0.232024
      7          6           0       -1.940410   -2.203826   -0.139281
      8          6           0       -1.468584   -3.489235    0.132113
      9          6           0       -0.104946   -3.711384    0.306981
     10          6           0        0.780759   -2.639295    0.214675
     11          6           0        0.342737   -1.332378   -0.041742
     12          6           0        1.311317   -0.221596   -0.084709
     13          6           0        2.428681   -0.151645    0.659195
     14          6           0        3.239926    1.089016    0.372716
     15          6           0        2.616960    1.605289   -0.935078
     16          6           0        1.193281    1.009830   -0.972988
     17          8           0        4.635495    0.849681    0.159553
     18          1           0       -1.706365    3.357760    2.103149
     19          1           0       -1.992979    1.608163    1.948532
     20          1           0       -3.364516    2.753287    1.833715
     21          1           0       -3.954938    2.296010   -0.505141
     22          1           0       -2.590276    2.242376   -1.650720
     23          1           0       -3.216074    0.187601    0.551861
     24          1           0       -3.391947   -0.011609   -1.203971
     25          1           0       -3.002504   -2.040793   -0.280909
     26          1           0       -2.173618   -4.313180    0.196480
     27          1           0        0.269841   -4.711175    0.504050
     28          1           0        1.847422   -2.807685    0.326782
     29          1           0        2.713903   -0.866622    1.426720
     30          1           0        3.120021    1.824068    1.188423
     31          1           0        2.635037    2.695825   -1.015514
     32          1           0        3.221740    1.194802   -1.751112
     33          1           0        0.451482    1.702823   -0.561755
     34          1           0        0.856819    0.763550   -1.986110
     35          1           0        5.023017    0.602002    1.013054
 ---------------------------------------------------------------------

 SCF Done:  E(UB3LYP) =  -770.221289941     A.U. after   33 cycles
 SCF Done:  E(UB3LYP) =  -770.221289941     a.u. after    1 cycles

 The electronic state is 2-A.
 Alpha  occ. eigenvalues --  -19.04899 -19.03330 -19.01908 -10.12944 -10.12901
 Alpha  occ. eigenvalues --  -10.12561 -10.11817 -10.11582 -10.06925 -10.06710
 Alpha  occ. eigenvalues --  -10.06600 -10.06511 -10.06441 -10.06360 -10.05952
 Alpha  occ. eigenvalues --  -10.05722 -10.04770  -0.97235  -0.94363  -0.91862
 Alpha  occ. eigenvalues --   -0.75573  -0.72986  -0.68035  -0.65567  -0.63121
 Alpha  occ. eigenvalues --   -0.60416  -0.59287  -0.58417  -0.52880  -0.50677
 Alpha  occ. eigenvalues --   -0.48359  -0.46780  -0.44656  -0.42774  -0.41118
 Alpha  occ. eigenvalues --   -0.40529  -0.39765  -0.38484  -0.37706  -0.36189
 Alpha  occ. eigenvalues --   -0.35709  -0.35063  -0.33829  -0.32862  -0.30442
 Alpha  occ. eigenvalues --   -0.29964  -0.29495  -0.28344  -0.27957  -0.27234
 Alpha  occ. eigenvalues --   -0.26476  -0.25709  -0.24631  -0.23700  -0.23403
 Alpha  occ. eigenvalues --   -0.22720  -0.22169  -0.21266  -0.17663  -0.17192
 Alpha  occ. eigenvalues --   -0.16837  -0.13564  -0.11029   0.04192
 Alpha virt. eigenvalues --    0.05701   0.06590   0.07201   0.07695   0.08403
 Alpha virt. eigenvalues --    0.08635   0.09604   0.09833   0.10179   0.10396
 Alpha virt. eigenvalues --    0.11103   0.11217   0.11740   0.12285   0.12501

  Beta  occ. eigenvalues --  -19.04895 -19.03327 -19.01869 -10.12920 -10.12893
  Beta  occ. eigenvalues --  -10.12539 -10.11791 -10.11580 -10.06849 -10.06667
  Beta  occ. eigenvalues --  -10.06512 -10.06481 -10.06430 -10.06285 -10.05948
  Beta  occ. eigenvalues --  -10.05722 -10.04683  -0.97221  -0.94354  -0.91767
  Beta  occ. eigenvalues --   -0.75435  -0.72890  -0.67974  -0.65397  -0.63037
  Beta  occ. eigenvalues --   -0.60338  -0.59193  -0.58325  -0.52803  -0.50484
  Beta  occ. eigenvalues --   -0.48293  -0.46748  -0.44572  -0.42681  -0.41088
  Beta  occ. eigenvalues --   -0.40446  -0.39704  -0.38430  -0.37653  -0.36134
  Beta  occ. eigenvalues --   -0.35636  -0.35013  -0.33767  -0.32796  -0.30386
  Beta  occ. eigenvalues --   -0.29889  -0.29415  -0.28284  -0.27885  -0.27072
  Beta  occ. eigenvalues --   -0.26422  -0.25663  -0.24578  -0.23613  -0.23344
  Beta  occ. eigenvalues --   -0.22671  -0.22018  -0.21203  -0.17463  -0.17139
  Beta  occ. eigenvalues --   -0.16491  -0.13241  -0.10610
  Beta virt. eigenvalues --    0.06459   0.06832   0.07301   0.07557   0.08233
  Beta virt. eigenvalues --    0.08579   0.08903   0.09732   0.09997   0.10295
  Beta virt. eigenvalues --    0.10641   0.11250   0.11305   0.11787   0.12516

 Mulliken charges and spin densities:
               1          2
     1  C    0.175601  -0.491709
     2  O   -0.118890   0.048654
     3  C    0.513776  -1.382464
     4  C    0.039413   0.143250
     5  O   -0.029000   0.027761
     6  C    0.374010  -0.368346
     7  C   -0.343231  -0.045864
     8  C   -0.364966   0.004017
     9  C   -0.249635  -0.138820
    10  C   -0.985256   0.301423
    11  C    0.730132  -0.030372
    12  C    1.561189  -0.259541
    13  C   -1.125482   0.717939
    14  C    0.405649  -0.805247
    15  C   -0.523302  -0.056394
    16  C   -0.541174   0.179044
    17  O   -0.211635   0.010955
    18  H    0.032085   0.119105
    19  H    0.081432   0.064317
    20  H   -0.286724   0.415293
    21  H   -0.552817   0.714275
    22  H    0.177345   0.021084
    23  H    0.185188   0.006154
    24  H   -0.445040   0.588860
    25  H   -0.294121   0.451291
    26  H    0.025323   0.105242
    27  H    0.067205   0.064284
    28  H    0.068047   0.046908
    29  H    0.032143   0.128784
    30  H    0.017140   0.136800
    31  H    0.006177   0.131807
    32  H    0.217146  -0.024806
    33  H    0.333013  -0.202473
    34  H    0.078214   0.083499
    35  H   -0.048957   0.295292
 Sum of Mulliken charges =  -1.00000   1.00000

 Dipole moment (field-independent basis, Debye):
    X=              1.4754    Y=             -1.3544    Z=              0.6023  Tot=              2.0914
 Quadrupole moment (field-independent basis, Debye-Ang):
   XX=           -189.4022   YY=           -145.1975   ZZ=           -123.6595
   XY=              2.7888   XZ=             -0.2324   YZ=             -2.7252

 Summary of Natural Population Analysis:

                                       Natural Population
                Natural  -----------------------------------------------
    Atom  No    Charge         Core      Valence    Rydberg      Total
 -----------------------------------------------------------------------
      C    1   -0.10183      0.99961     2.09245    0.00977     3.10183
      O    2   -0.29434      0.99989     3.28428    0.01018     4.29434
      C    3   -0.01434      0.99958     2.00017    0.01459     3.01434
      C    4   -0.02687      0.99957     2.01481    0.01248     3.02687
      O    5   -0.28027      0.99985     3.26914    0.01129     4.28027
      C    6    0.17495      0.99936     1.81314    0.01256     2.82505
      C    7   -0.14313      0.99953     2.13440    0.00920     3.14313
      C    8   -0.07483      0.99958     2.06592    0.00933     3.07483
      C    9   -0.12766      0.99957     2.11803    0.01006     3.12766
      C   10   -0.07000      0.99954     2.06271    0.00775     3.07000
      C   11   -0.04219      0.99945     2.03357    0.00918     3.04219
      C   12    0.00706      0.99947     1.98360    0.00987     2.99294
      C   13   -0.09482      0.99945     2.08567    0.00970     3.09482
      C   14    0.04769      0.99954     1.93718    0.01559     2.95231
      C   15   -0.19115      0.99963     2.18371    0.00781     3.19115
      C   16   -0.20159      0.99960     2.19500    0.00699     3.20159
      O   17   -0.37263      0.99989     3.36610    0.00664     4.37263
      H   18    0.08972      0.00000     0.40930    0.00099     0.41028
      H   19    0.08240      0.00000     0.41642    0.00118     0.41760
      H   20    0.07853      0.00000     0.41998    0.00149     0.42147
      H   21    0.08232      0.00000     0.41554    0.00214     0.41768
      H   22    0.09234      0.00000     0.40623    0.00143     0.40766
      H   23    0.08532      0.00000     0.41290    0.00178     0.41468
      H   24    0.09109      0.00000     0.40668    0.00223     0.40891
      H   25    0.10369      0.00000     0.39506    0.00125     0.39631
      H   26    0.09519      0.00000     0.40402    0.00079     0.40481
      H   27    0.09658      0.00000     0.40264    0.00078     0.40342
      H   28    0.09916      0.00000     0.39944    0.00140     0.40084
      H   29    0.09513      0.00000     0.40375    0.00112     0.40487
      H   30    0.07658      0.00000     0.42179    0.00163     0.42342
      H   31    0.09670      0.00000     0.40223    0.00107     0.40330
      H   32    0.10139      0.00000     0.39730    0.00131     0.39861
      H   33    0.11404      0.00000     0.38402    0.00194     0.38596
      H   34    0.09910      0.00000     0.39974    0.00116     0.40090
      H   35    0.22668      0.00000     0.26913    0.00419     0.27332
 =======================================================================
   * Total *   -0.00000     16.99309    45.80602    0.20088    63.00000

 Normal termination of Gaussian 16 at Fri Dec 11 13:54:29 2020.
