 Gaussian 16, Revision A.03,

 -----------------------------------------------------------
 # opt freq B3LYP/6-31G(d) empiricaldispersion=gd3bj scf=xqc
 -----------------------------------------------------------

 -------------------------------
 CID_102318590_JID_7545_neutraal
 -------------------------------
 Symbolic Z-matrix:
 Charge =  0 Multiplicity = 1

 SCF Done:  E(RB3LYP) =  -750.220914495     A.U. after   15 cycles
 SCF Done:  E(RB3LYP) =  -750.228557170     A.U. after   12 cycles
 SCF Done:  E(RB3LYP) =  -750.229655941     A.U. after   12 cycles
 SCF Done:  E(RB3LYP) =  -750.229756711     A.U. after   12 cycles
 SCF Done:  E(RB3LYP) =  -750.229868794     A.U. after   11 cycles
 SCF Done:  E(RB3LYP) =  -750.229917816     A.U. after   10 cycles
 SCF Done:  E(RB3LYP) =  -750.229945082     A.U. after   10 cycles
 SCF Done:  E(RB3LYP) =  -750.229963487     A.U. after   10 cycles
 SCF Done:  E(RB3LYP) =  -750.229977385     A.U. after    9 cycles
 SCF Done:  E(RB3LYP) =  -750.229982615     A.U. after    9 cycles
 SCF Done:  E(RB3LYP) =  -750.229983648     A.U. after    8 cycles
 Optimization completed.
    -- Stationary point found.
 Normal termination of Gaussian 16 at Mon Dec 14 16:42:28 2020.

 --------------------------------------------------------------------
 #N Geom=AllCheck Guess=TCheck SCRF=Check GenChk RB3LYP/6-31G(d) Freq
 --------------------------------------------------------------------

 Structure from the checkpoint file:  "JID_7545.chk"
 -------------------------------
 CID_102318590_JID_7545_neutraal
 -------------------------------
 Charge =  0 Multiplicity = 1

 SCF Done:  E(RB3LYP) =  -750.229983648     A.U. after    1 cycles

  Exact polarizability: 196.180  -2.875 142.800   4.226   9.414 109.611
 Approx polarizability: 269.187 -12.572 240.240  10.773  23.033 167.234

                      1                      2                      3
                      A                      A                      A
 Frequencies --     64.1762                71.4968                76.3224
 Red. masses --      4.7418                 4.9244                 3.6994
 Frc consts  --      0.0115                 0.0148                 0.0127
 IR Inten    --      0.6017                 0.4402                 0.2666

                      4                      5                      6
                      A                      A                      A
 Frequencies --     95.1810               211.0418               223.2840
 Red. masses --      4.0785                 3.1053                 1.7166
 Frc consts  --      0.0218                 0.0815                 0.0504
 IR Inten    --      0.6625                 1.3617                 0.3632

                      7                      8                      9
                      A                      A                      A
 Frequencies --    232.4602               242.7190               248.2102
 Red. masses --      2.4926                 1.4547                 2.1632
 Frc consts  --      0.0794                 0.0505                 0.0785
 IR Inten    --      0.7417                 0.4223                 4.9055

                     10                     11                     12
                      A                      A                      A
 Frequencies --    263.5117               274.0006               297.0632
 Red. masses --      2.7506                 1.7259                 1.5898
 Frc consts  --      0.1125                 0.0763                 0.0827
 IR Inten    --      1.3071                 9.2243                30.0346

                     13                     14                     15
                      A                      A                      A
 Frequencies --    303.0854               309.2010               331.0896
 Red. masses --      1.2383                 2.0866                 3.3291
 Frc consts  --      0.0670                 0.1175                 0.2150
 IR Inten    --      3.0054                12.9270                 3.4851

                     16                     17                     18
                      A                      A                      A
 Frequencies --    351.4162               363.2263               374.3712
 Red. masses --      1.4205                 2.4017                 2.8837
 Frc consts  --      0.1034                 0.1867                 0.2381
 IR Inten    --      1.6869                38.3140                 2.5054

                     19                     20                     21
                      A                      A                      A
 Frequencies --    389.5719               417.6666               418.6602
 Red. masses --      1.6637                 2.8004                 3.9701
 Frc consts  --      0.1488                 0.2878                 0.4100
 IR Inten    --      0.5436                 2.2471                 1.4660

                     22                     23                     24
                      A                      A                      A
 Frequencies --    426.2922               482.1984               512.4413
 Red. masses --      3.1183                 3.6220                 3.4041
 Frc consts  --      0.3339                 0.4962                 0.5267
 IR Inten    --      2.9740                 0.5644                 9.7241

                     25                     26                     27
                      A                      A                      A
 Frequencies --    546.8054               565.4219               605.3276
 Red. masses --      3.0402                 1.6875                 3.4816
 Frc consts  --      0.5356                 0.3179                 0.7516
 IR Inten    --     52.1487                79.3328                47.2645

                     28                     29                     30
                      A                      A                      A
 Frequencies --    636.2316               638.9710               664.3913
 Red. masses --      5.9334                 2.8532                 4.2043
 Frc consts  --      1.4151                 0.6864                 1.0934
 IR Inten    --      0.4434                 5.2403                 3.7166

                     31                     32                     33
                      A                      A                      A
 Frequencies --    687.4883               723.3693               756.5136
 Red. masses --      6.2369                 1.8258                 4.1947
 Frc consts  --      1.7368                 0.5629                 1.4145
 IR Inten    --     13.1775                24.9963                 3.5636

                     34                     35                     36
                      A                      A                      A
 Frequencies --    769.4081               790.9150               825.2623
 Red. masses --      2.8380                 2.5491                 2.4002
 Frc consts  --      0.9899                 0.9395                 0.9631
 IR Inten    --     22.3238                11.8717                 9.0313

                     37                     38                     39
                      A                      A                      A
 Frequencies --    872.7671               938.6290               956.5958
 Red. masses --      1.2408                 1.6461                 2.3990
 Frc consts  --      0.5569                 0.8545                 1.2934
 IR Inten    --      0.0059                12.2974                 4.8138

                     40                     41                     42
                      A                      A                      A
 Frequencies --    962.3968               966.1338               973.2927
 Red. masses --      2.1461                 1.5267                 1.6036
 Frc consts  --      1.1711                 0.8396                 0.8950
 IR Inten    --      5.5214                 2.3432                 6.9712

                     43                     44                     45
                      A                      A                      A
 Frequencies --    983.9422               985.7743              1003.3225
 Red. masses --      1.3521                 1.6787                 1.2581
 Frc consts  --      0.7713                 0.9611                 0.7462
 IR Inten    --      0.2586                 4.1142                 0.7794

                     46                     47                     48
                      A                      A                      A
 Frequencies --   1019.7573              1024.1243              1046.0661
 Red. masses --      2.6623                 3.6365                 1.3708
 Frc consts  --      1.6311                 2.2472                 0.8838
 IR Inten    --     41.1939                12.8199                 6.5768

                     49                     50                     51
                      A                      A                      A
 Frequencies --   1058.4077              1066.2336              1092.7926
 Red. masses --      2.1546                 2.0339                 2.3437
 Frc consts  --      1.4221                 1.3623                 1.6490
 IR Inten    --     28.3793                30.5465                45.7247

                     52                     53                     54
                      A                      A                      A
 Frequencies --   1127.6546              1162.7955              1190.7151
 Red. masses --      1.8356                 3.0275                 1.9371
 Frc consts  --      1.3752                 2.4118                 1.6182
 IR Inten    --     18.6454                 0.6076                22.1043

                     55                     56                     57
                      A                      A                      A
 Frequencies --   1194.8069              1198.7738              1214.4727
 Red. masses --      1.0981                 2.1984                 1.1561
 Frc consts  --      0.9236                 1.8614                 1.0047
 IR Inten    --      0.2838                14.9588                 6.8128

                     58                     59                     60
                      A                      A                      A
 Frequencies --   1232.2835              1243.3129              1272.0072
 Red. masses --      2.4248                 3.3653                 4.0426
 Frc consts  --      2.1695                 3.0650                 3.8538
 IR Inten    --     46.4749                16.3910                 9.5754

                     61                     62                     63
                      A                      A                      A
 Frequencies --   1288.3306              1329.2158              1340.4846
 Red. masses --      3.1303                 2.0001                 2.4704
 Frc consts  --      3.0612                 2.0821                 2.6154
 IR Inten    --     12.7437                74.3878                61.6659

                     64                     65                     66
                      A                      A                      A
 Frequencies --   1353.7427              1366.9987              1421.2349
 Red. masses --      2.3307                 2.5845                 1.2339
 Frc consts  --      2.5166                 2.8455                 1.4685
 IR Inten    --     28.0366                 1.4740                 1.9112

                     67                     68                     69
                      A                      A                      A
 Frequencies --   1430.9666              1436.8887              1442.0818
 Red. masses --      1.3081                 1.5986                 1.2504
 Frc consts  --      1.5781                 1.9446                 1.5321
 IR Inten    --     22.4596                79.9179                 1.8343

                     70                     71                     72
                      A                      A                      A
 Frequencies --   1461.3187              1496.8735              1511.5014
 Red. masses --      1.3201                 2.2394                 1.0479
 Frc consts  --      1.6610                 2.9563                 1.4105
 IR Inten    --     50.6422                10.1825                 0.3414

                     73                     74                     75
                      A                      A                      A
 Frequencies --   1517.3300              1522.7873              1524.0339
 Red. masses --      1.0496                 1.0478                 1.0514
 Frc consts  --      1.4237                 1.4316                 1.4388
 IR Inten    --      2.9412                 5.0821                 1.0564

                     76                     77                     78
                      A                      A                      A
 Frequencies --   1539.0406              1543.4368              1545.0649
 Red. masses --      1.0518                 1.2820                 1.5454
 Frc consts  --      1.4678                 1.7994                 2.1737
 IR Inten    --      7.1871                 9.6066                 2.0332

                     79                     80                     81
                      A                      A                      A
 Frequencies --   1548.3570              1558.4940              1644.5501
 Red. masses --      1.0800                 1.0548                 5.6826
 Frc consts  --      1.5256                 1.5095                 9.0550
 IR Inten    --     10.2601                 5.4386                 0.3929

                     82                     83                     84
                      A                      A                      A
 Frequencies --   1666.5117              1831.4207              3057.3902
 Red. masses --      5.6088                10.4862                 1.0401
 Frc consts  --      9.1777                20.7227                 5.7283
 IR Inten    --      1.5448               411.6173                14.1710

                     85                     86                     87
                      A                      A                      A
 Frequencies --   3058.9850              3064.5001              3069.6476
 Red. masses --      1.0381                 1.0371                 1.0371
 Frc consts  --      5.7231                 5.7384                 5.7576
 IR Inten    --      9.7668                36.4540                20.3189

                     88                     89                     90
                      A                      A                      A
 Frequencies --   3111.9701              3126.1958              3132.2653
 Red. masses --      1.1014                 1.1018                 1.0993
 Frc consts  --      6.2844                 6.3445                 6.3544
 IR Inten    --     24.6267                 5.4789                20.6295

                     91                     92                     93
                      A                      A                      A
 Frequencies --   3137.7836              3142.7538              3149.0644
 Red. masses --      1.1017                 1.1025                 1.1014
 Frc consts  --      6.3908                 6.4160                 6.4353
 IR Inten    --     31.7127                42.5722                13.0785

                     94                     95                     96
                      A                      A                      A
 Frequencies --   3166.4413              3176.9494              3186.2189
 Red. masses --      1.1007                 1.0967                 1.0853
 Frc consts  --      6.5024                 6.5219                 6.4917
 IR Inten    --      6.9871                11.9108                 0.3433

                     97                     98                     99
                      A                      A                      A
 Frequencies --   3195.6157              3207.9786              3217.2412
 Red. masses --      1.0892                 1.0932                 1.0940
 Frc consts  --      6.5533                 6.6285                 6.6717
 IR Inten    --     12.5134                29.9688                11.8989

                    100                    101                    102
                      A                      A                      A
 Frequencies --   3224.4538              3599.0062              3726.9053
 Red. masses --      1.0933                 1.0773                 1.0661
 Frc consts  --      6.6971                 8.2217                 8.7249
 IR Inten    --      4.3352                13.6459                14.6825

 - Thermochemistry -
 -------------------
 Temperature   298.150 Kelvin.  Pressure   1.00000 Atm.
 Atom     1 has atomic number  6 and mass  12.00000

 Molecular mass:   233.14158 amu.
 Principal axes and moments of inertia in atomic units:
                           1         2         3
     Eigenvalues --  1878.667395366.667445748.14962
           X            0.99984   0.01689  -0.00648
           Y           -0.01672   0.99952   0.02594
           Z            0.00691  -0.02582   0.99964
 This molecule is an asymmetric top.
 Rotational symmetry number  1.
 Warning -- assumption of classical behavior for rotation
           may cause significant error
 Rotational temperatures (Kelvin)      0.04610     0.01614     0.01507
 Rotational constants (GHZ):           0.96065     0.33629     0.31397
 Zero-point vibrational energy     813747.0 (Joules/Mol)
                                  194.49021 (Kcal/Mol)
 Warning -- explicit consideration of  27 degrees of freedom as
           vibrations may cause significant error
 Vibrational temperatures:     92.34   102.87   109.81   136.94   303.64
          (Kelvin)            321.26   334.46   349.22   357.12   379.13
                              394.23   427.41   436.07   444.87   476.36
                              505.61   522.60   538.64   560.51   600.93
                              602.36   613.34   693.78   737.29   786.73
                              813.52   870.93   915.40   919.34   955.91
                              989.14  1040.77  1088.45  1107.01  1137.95
                             1187.37  1255.72  1350.48  1376.33  1384.67
                             1390.05  1400.35  1415.67  1418.31  1443.56
                             1467.20  1473.49  1505.06  1522.81  1534.07
                             1572.28  1622.44  1673.00  1713.17  1719.06
                             1724.77  1747.36  1772.98  1788.85  1830.13
                             1853.62  1912.45  1928.66  1947.73  1966.81
                             2044.84  2058.84  2067.36  2074.83  2102.51
                             2153.67  2174.71  2183.10  2190.95  2192.74
                             2214.34  2220.66  2223.00  2227.74  2242.33
                             2366.14  2397.74  2635.01  4398.90  4401.20
                             4409.13  4416.54  4477.43  4497.90  4506.63
                             4514.57  4521.72  4530.80  4555.80  4570.92
                             4584.26  4597.78  4615.57  4628.89  4639.27
                             5178.17  5362.19

 Zero-point correction=                           0.309940 (Hartree/Particle)
 Thermal correction to Energy=                    0.326039
 Thermal correction to Enthalpy=                  0.326983
 Thermal correction to Gibbs Free Energy=         0.268426
 Sum of electronic and zero-point Energies=           -749.920044
 Sum of electronic and thermal Energies=              -749.903945
 Sum of electronic and thermal Enthalpies=            -749.903001
 Sum of electronic and thermal Free Energies=         -749.961558

                     E (Thermal)             CV                S
                      KCal/Mol        Cal/Mol-Kelvin    Cal/Mol-Kelvin
 Total                  204.592             65.715            123.244
 Electronic               0.000              0.000              0.000
 Translational            0.889              2.981             42.241
 Rotational               0.889              2.981             32.427
 Vibrational            202.815             59.753             48.576
 Vibration     1          0.597              1.971              4.324
 Vibration     2          0.598              1.968              4.112
 Vibration     3          0.599              1.965              3.983
 Vibration     4          0.603              1.953              3.551
 Vibration     5          0.643              1.824              2.035
 Vibration     6          0.649              1.806              1.932
 Vibration     7          0.653              1.791              1.860
 Vibration     8          0.659              1.775              1.783
 Vibration     9          0.662              1.766              1.743
 Vibration    10          0.670              1.740              1.638
 Vibration    11          0.676              1.721              1.571
 Vibration    12          0.691              1.679              1.433
 Vibration    13          0.695              1.668              1.400
 Vibration    14          0.699              1.656              1.367
 Vibration    15          0.713              1.613              1.255
 Vibration    16          0.728              1.572              1.160
 Vibration    17          0.737              1.548              1.108
 Vibration    18          0.745              1.525              1.062
 Vibration    19          0.757              1.492              1.002
 Vibration    20          0.781              1.432              0.900
 Vibration    21          0.782              1.430              0.897
 Vibration    22          0.788              1.413              0.871
 Vibration    23          0.838              1.290              0.704
 Vibration    24          0.868              1.222              0.628
 Vibration    25          0.902              1.147              0.551
 Vibration    26          0.921              1.106              0.513
 Vibration    27          0.964              1.021              0.441

                           ! Non-Optimized Parameters !
 Normal termination of Gaussian 16 at Mon Dec 14 16:59:33 2020.

 ----------------------------------------------------------------------
 # B3LYP/6-311++G(d,p) empiricaldispersion=gd3bj scf=xqc pop=npa geom=c
 heck
 ----------------------------------------------------------------------

 ---------------------------------------
 CID_102318590_JID_7545_Energie_neutraal
 ---------------------------------------
 Structure from the checkpoint file:  "JID_7545.chk"
 Charge =  0 Multiplicity = 1

 SCF Done:  E(RB3LYP) =  -750.445709618     A.U. after   15 cycles
 Normal termination of Gaussian 16 at Mon Dec 14 17:07:51 2020.

 ----------------------------------------------------------------------
 # B3LYP/6-311++G(d,p) empiricaldispersion=gd3bj scf=xqc pop=npa geom=c
 heck
 ----------------------------------------------------------------------

 -------------------------------------
 CID_102318590_JID_7545_Energie_kation
 -------------------------------------
 Structure from the checkpoint file:  "JID_7545.chk"
 Charge =  1 Multiplicity = 2

 SCF Done:  E(UB3LYP) =  -750.130212671     A.U. after   32 cycles
 Normal termination of Gaussian 16 at Mon Dec 14 17:32:52 2020.
 Gaussian 16:  ES64L-G16RevA.03 25-Dec-2016

 ----------------------------------------------------------------------
 # B3LYP/6-311++G(d,p) empiricaldispersion=gd3bj scf=xqc pop=npa geom=c
 heck
 ----------------------------------------------------------------------

 ------------------------------------
 CID_102318590_JID_7545_Energie_anion
 ------------------------------------
 Structure from the checkpoint file:  "JID_7545.chk"
 Charge = -1 Multiplicity = 2

                         Standard orientation:
 ---------------------------------------------------------------------
 Center     Atomic      Atomic             Coordinates (Angstroms)
 Number     Number       Type             X           Y           Z
 ---------------------------------------------------------------------
      1          6           0       -3.154612    0.123431    1.438878
      2          6           0       -2.248090   -0.104835    0.223387
      3          6           0       -1.913884    1.236832   -0.441622
      4          8           0       -2.678031    2.162186   -0.649796
      5          7           0       -0.583609    1.212101   -0.789130
      6          6           0        0.063882   -0.068150   -0.604763
      7          6           0       -0.824893   -0.700792    0.541181
      8          6           0       -0.320977   -0.208138    1.909494
      9          6           0       -0.767526   -2.229943    0.535600
     10          6           0        1.543086    0.087364   -0.284127
     11          6           0        2.056074    1.267423    0.267102
     12          6           0        3.412703    1.377951    0.569791
     13          6           0        4.275174    0.307352    0.330919
     14          6           0        3.771767   -0.873751   -0.215315
     15          6           0        2.416153   -0.981987   -0.523933
     16          8           0       -0.080036   -0.902968   -1.761707
     17          6           0       -3.038260   -0.927382   -0.819750
     18          1           0       -3.388878   -0.826779    1.932214
     19          1           0       -4.090674    0.578167    1.103197
     20          1           0       -2.710605    0.796577    2.175862
     21          1           0       -0.208044    1.929998   -1.396454
     22          1           0       -0.952392   -0.608667    2.706997
     23          1           0        0.700878   -0.551307    2.089118
     24          1           0       -0.327329    0.883340    1.988184
     25          1           0       -1.041832   -2.653984   -0.429737
     26          1           0        0.243807   -2.571880    0.781876
     27          1           0       -1.444961   -2.628066    1.299677
     28          1           0        1.386831    2.097407    0.467710
     29          1           0        3.795004    2.302215    0.993725
     30          1           0        5.331726    0.393400    0.567981
     31          1           0        4.435109   -1.712840   -0.405441
     32          1           0        2.024704   -1.895391   -0.958011
     33          1           0        0.506021   -0.545483   -2.448335
     34          1           0       -3.366356   -1.878075   -0.386642
     35          1           0       -3.927343   -0.363743   -1.119092
     36          1           0       -2.439451   -1.135600   -1.707957
 ---------------------------------------------------------------------

 SCF Done:  E(UB3LYP) =  -750.435803857     A.U. after   33 cycles
 SCF Done:  E(UB3LYP) =  -750.435803857     a.u. after    1 cycles

 The electronic state is 2-A.
 Alpha  occ. eigenvalues --  -19.02937 -18.99964 -14.24047 -10.17645 -10.17559
 Alpha  occ. eigenvalues --  -10.10273 -10.10036 -10.08397 -10.07613 -10.07553
 Alpha  occ. eigenvalues --  -10.07472 -10.07363 -10.07288 -10.07262 -10.06774
 Alpha  occ. eigenvalues --  -10.06533 -10.06308  -0.95607  -0.93840  -0.83789
 Alpha  occ. eigenvalues --   -0.75913  -0.73908  -0.68397  -0.65496  -0.64863
 Alpha  occ. eigenvalues --   -0.60890  -0.58723  -0.58074  -0.56661  -0.51067
 Alpha  occ. eigenvalues --   -0.49845  -0.46880  -0.45617  -0.43254  -0.43155
 Alpha  occ. eigenvalues --   -0.39401  -0.37966  -0.36478  -0.35928  -0.35353
 Alpha  occ. eigenvalues --   -0.34915  -0.33770  -0.32759  -0.32375  -0.31116
 Alpha  occ. eigenvalues --   -0.30802  -0.30003  -0.29660  -0.28221  -0.27921
 Alpha  occ. eigenvalues --   -0.27621  -0.26896  -0.26293  -0.26166  -0.24876
 Alpha  occ. eigenvalues --   -0.24647  -0.22949  -0.22084  -0.20750  -0.17327
 Alpha  occ. eigenvalues --   -0.16379  -0.15796  -0.15208   0.04227
 Alpha virt. eigenvalues --    0.06499   0.06918   0.07297   0.07475   0.08195
 Alpha virt. eigenvalues --    0.08403   0.08682   0.09192   0.10072   0.10172
 Alpha virt. eigenvalues --    0.10684   0.11054   0.11356   0.12302   0.12588

  Beta  occ. eigenvalues --  -19.02884 -18.99955 -14.24030 -10.17640 -10.17551
  Beta  occ. eigenvalues --  -10.10272 -10.10033 -10.08366 -10.07599 -10.07526
  Beta  occ. eigenvalues --  -10.07455 -10.07331 -10.07280 -10.07190 -10.06765
  Beta  occ. eigenvalues --  -10.06520 -10.06286  -0.95552  -0.93767  -0.83747
  Beta  occ. eigenvalues --   -0.75833  -0.73892  -0.68353  -0.65417  -0.64781
  Beta  occ. eigenvalues --   -0.60866  -0.58684  -0.58020  -0.56615  -0.51006
  Beta  occ. eigenvalues --   -0.49739  -0.46835  -0.45579  -0.43196  -0.43102
  Beta  occ. eigenvalues --   -0.39358  -0.37903  -0.36446  -0.35902  -0.35299
  Beta  occ. eigenvalues --   -0.34868  -0.33740  -0.32723  -0.32334  -0.31098
  Beta  occ. eigenvalues --   -0.30775  -0.29968  -0.29629  -0.28168  -0.27897
  Beta  occ. eigenvalues --   -0.27590  -0.26835  -0.26232  -0.26093  -0.24851
  Beta  occ. eigenvalues --   -0.24596  -0.22923  -0.22038  -0.20701  -0.17286
  Beta  occ. eigenvalues --   -0.16312  -0.15648  -0.14994
  Beta virt. eigenvalues --    0.06338   0.07065   0.07738   0.07917   0.08045
  Beta virt. eigenvalues --    0.08252   0.08668   0.08959   0.09604   0.10276
  Beta virt. eigenvalues --    0.10499   0.10825   0.11284   0.11532   0.12392

 Mulliken charges and spin densities:
               1          2
     1  C    0.233769  -0.614481
     2  C   -0.409993   0.847256
     3  C    0.128649  -0.299715
     4  O   -0.321732  -0.009143
     5  N   -0.276208  -0.106688
     6  C    2.110487  -1.835225
     7  C    0.884211  -0.745151
     8  C   -0.414791  -0.181685
     9  C    0.845541  -1.256116
    10  C   -0.334669   0.977773
    11  C   -1.612297   1.366470
    12  C    0.215906  -0.684926
    13  C    1.392198  -1.727602
    14  C    0.133847  -0.669038
    15  C   -1.303320   1.084206
    16  O   -0.171711   0.019867
    17  C   -0.843794   0.135421
    18  H    0.140549   0.015381
    19  H    0.158255   0.011236
    20  H    0.029468   0.123718
    21  H    0.134488   0.209667
    22  H    0.120084   0.037395
    23  H    0.128085   0.034235
    24  H    0.005936   0.156314
    25  H    0.052852   0.128518
    26  H    0.017506   0.140420
    27  H   -0.106180   0.248320
    28  H    0.015979   0.154879
    29  H   -0.618672   0.799776
    30  H   -0.456825   0.608634
    31  H   -0.690500   0.876115
    32  H   -0.180263   0.366326
    33  H   -0.284662   0.547639
    34  H    0.056203   0.074360
    35  H    0.139879   0.033215
    36  H    0.081727   0.132632
 Sum of Mulliken charges =  -1.00000   1.00000

 Dipole moment (field-independent basis, Debye):
    X=             -6.0270    Y=             -0.9049    Z=              1.9703  Tot=              6.4051
 Quadrupole moment (field-independent basis, Debye-Ang):
   XX=           -184.8912   YY=           -146.5999   ZZ=           -138.2908
   XY=              6.7044   XZ=             -2.7974   YZ=             -1.9574

 Summary of Natural Population Analysis:

                                       Natural Population
                Natural  -----------------------------------------------
    Atom  No    Charge         Core      Valence    Rydberg      Total
 -----------------------------------------------------------------------
      C    1   -0.28530      0.99963     2.27914    0.00653     3.28530
      C    2   -0.07109      0.99950     2.05888    0.01271     3.07109
      C    3    0.36090      0.99959     1.61371    0.02581     2.63910
      O    4   -0.32015      0.99987     3.31434    0.00594     4.32015
      N    5   -0.33053      0.99962     2.82014    0.01077     3.83053
      C    6    0.22240      0.99945     1.75715    0.02101     2.77760
      C    7   -0.02742      0.99951     2.01164    0.01627     3.02742
      C    8   -0.29202      0.99962     2.28458    0.00781     3.29202
      C    9   -0.29228      0.99961     2.28439    0.00828     3.29228
      C   10   -0.03931      0.99945     2.02501    0.01485     3.03931
      C   11   -0.09400      0.99950     2.08448    0.01002     3.09400
      C   12   -0.09990      0.99956     2.08947    0.01088     3.09990
      C   13   -0.08766      0.99956     2.07797    0.01013     3.08766
      C   14   -0.09727      0.99956     2.08694    0.01078     3.09727
      C   15   -0.09423      0.99950     2.08411    0.01063     3.09423
      O   16   -0.37678      0.99989     3.37024    0.00666     4.37678
      C   17   -0.28598      0.99963     2.28047    0.00589     3.28598
      H   18    0.09793      0.00000     0.40129    0.00078     0.40207
      H   19    0.10754      0.00000     0.39152    0.00094     0.39246
      H   20    0.10345      0.00000     0.39579    0.00076     0.39655
      H   21    0.19929      0.00000     0.29815    0.00256     0.30071
      H   22    0.10105      0.00000     0.39818    0.00076     0.39895
      H   23    0.11022      0.00000     0.38885    0.00093     0.38978
      H   24    0.10352      0.00000     0.39535    0.00113     0.39648
      H   25    0.11170      0.00000     0.38700    0.00131     0.38830
      H   26    0.10622      0.00000     0.39264    0.00113     0.39378
      H   27    0.09823      0.00000     0.40096    0.00081     0.40177
      H   28    0.10449      0.00000     0.39400    0.00150     0.39551
      H   29    0.10132      0.00000     0.39735    0.00133     0.39868
      H   30    0.10108      0.00000     0.39732    0.00159     0.39892
      H   31    0.10200      0.00000     0.39646    0.00154     0.39800
      H   32    0.10931      0.00000     0.38847    0.00222     0.39069
      H   33    0.23673      0.00000     0.25663    0.00664     0.26327
      H   34    0.09813      0.00000     0.40107    0.00079     0.40187
      H   35    0.10271      0.00000     0.39640    0.00089     0.39729
      H   36    0.11570      0.00000     0.38312    0.00118     0.38430
 =======================================================================
   * Total *   -0.00000     16.99303    45.78320    0.22376    63.00000

 Normal termination of Gaussian 16 at Mon Dec 14 17:58:22 2020.
