 Gaussian 16, Revision A.03,

 -----------------------------------------------------------
 # opt freq B3LYP/6-31G(d) empiricaldispersion=gd3bj scf=xqc
 -----------------------------------------------------------

 ------------------------------
 CID_83627833_JID_5776_neutraal
 ------------------------------
 Symbolic Z-matrix:
 Charge =  0 Multiplicity = 1

 SCF Done:  E(RB3LYP) =  -707.492177160     A.U. after   15 cycles
 SCF Done:  E(RB3LYP) =  -707.494540623     A.U. after   13 cycles
 SCF Done:  E(RB3LYP) =  -707.494611032     A.U. after   14 cycles
 SCF Done:  E(RB3LYP) =  -707.496946801     A.U. after   13 cycles
 SCF Done:  E(RB3LYP) =  -707.498051278     A.U. after   13 cycles
 SCF Done:  E(RB3LYP) =  -707.498255477     A.U. after   13 cycles
 SCF Done:  E(RB3LYP) =  -707.498494072     A.U. after   12 cycles
 SCF Done:  E(RB3LYP) =  -707.498592766     A.U. after   11 cycles
 SCF Done:  E(RB3LYP) =  -707.498608604     A.U. after   11 cycles
 SCF Done:  E(RB3LYP) =  -707.498610836     A.U. after    8 cycles
 SCF Done:  E(RB3LYP) =  -707.500871353     A.U. after   11 cycles
 SCF Done:  E(RB3LYP) =  -707.500871385     A.U. after    8 cycles
 SCF Done:  E(RB3LYP) =  -707.500871617     A.U. after    8 cycles
 SCF Done:  E(RB3LYP) =  -707.500872712     A.U. after    9 cycles
 SCF Done:  E(RB3LYP) =  -707.500872719     A.U. after    7 cycles
 Optimization completed.
    -- Stationary point found.
 Normal termination of Gaussian 16 at Thu Dec 10 17:28:53 2020.

 --------------------------------------------------------------------
 #N Geom=AllCheck Guess=TCheck SCRF=Check GenChk RB3LYP/6-31G(d) Freq
 --------------------------------------------------------------------

 Structure from the checkpoint file:  "JID_5776.chk"
 ------------------------------
 CID_83627833_JID_5776_neutraal
 ------------------------------
 Charge =  0 Multiplicity = 1

 SCF Done:  E(RB3LYP) =  -707.500872719     A.U. after    1 cycles

  Exact polarizability: 153.591  -6.012 145.171  10.776  10.996  84.521
 Approx polarizability: 237.235  -1.366 210.877  26.581  29.652 140.443

                      1                      2                      3
                      A                      A                      A
 Frequencies --     26.4859                42.7914                60.4338
 Red. masses --      5.5165                 2.7612                11.4973
 Frc consts  --      0.0023                 0.0030                 0.0247
 IR Inten    --      0.2946                 0.2710                 2.3451

                      4                      5                      6
                      A                      A                      A
 Frequencies --     62.9178                69.8395               110.3323
 Red. masses --      6.3489                 4.4492                 3.0686
 Frc consts  --      0.0148                 0.0128                 0.0220
 IR Inten    --      0.6999                 1.2158                 0.8138

                      7                      8                      9
                      A                      A                      A
 Frequencies --    153.1837               173.5781               220.0420
 Red. masses --      1.1326                 3.1579                 1.2767
 Frc consts  --      0.0157                 0.0561                 0.0364
 IR Inten    --      0.3959                 0.2490                 0.1832

                     10                     11                     12
                      A                      A                      A
 Frequencies --    237.2860               248.5143               287.5625
 Red. masses --      4.1711                 5.8721                 3.0619
 Frc consts  --      0.1384                 0.2137                 0.1492
 IR Inten    --      1.6215                 2.8587                 4.1369

                     13                     14                     15
                      A                      A                      A
 Frequencies --    303.4290               344.9312               367.0802
 Red. masses --      2.5381                 5.2180                 3.8858
 Frc consts  --      0.1377                 0.3658                 0.3085
 IR Inten    --      2.1188                 3.3104                 0.9000

                     16                     17                     18
                      A                      A                      A
 Frequencies --    380.7189               466.7850               470.3562
 Red. masses --      3.9536                 4.0531                 3.5252
 Frc consts  --      0.3376                 0.5203                 0.4595
 IR Inten    --      2.2759                 1.0493                 3.5778

                     19                     20                     21
                      A                      A                      A
 Frequencies --    495.2687               537.1059               554.9305
 Red. masses --      2.7748                 3.7914                 1.3377
 Frc consts  --      0.4010                 0.6444                 0.2427
 IR Inten    --      6.2450                36.0001                62.1031

                     22                     23                     24
                      A                      A                      A
 Frequencies --    619.3999               633.3194               673.9001
 Red. masses --      1.5758                 3.5614                 4.0019
 Frc consts  --      0.3562                 0.8416                 1.0708
 IR Inten    --     85.2945                41.9585                 9.2691

                     25                     26                     27
                      A                      A                      A
 Frequencies --    712.5615               740.0137               744.2923
 Red. masses --      4.3593                 3.1869                 6.4162
 Frc consts  --      1.3041                 1.0282                 2.0942
 IR Inten    --     11.7168                21.0973                34.5210

                     28                     29                     30
                      A                      A                      A
 Frequencies --    767.5865               803.8270               816.6278
 Red. masses --      3.9366                 1.2114                 6.8162
 Frc consts  --      1.3666                 0.4612                 2.6782
 IR Inten    --      9.5601                 6.9874                34.0876

                     31                     32                     33
                      A                      A                      A
 Frequencies --    836.0217               846.5866               909.2289
 Red. masses --      2.0142                 2.1788                 1.4030
 Frc consts  --      0.8294                 0.9201                 0.6833
 IR Inten    --      9.0850                17.9082                12.5102

                     34                     35                     36
                      A                      A                      A
 Frequencies --    954.9596               959.6396              1003.5221
 Red. masses --      1.4776                 2.0110                 1.9882
 Frc consts  --      0.7939                 1.0912                 1.1797
 IR Inten    --      1.6288                 4.7760                 1.1591

                     37                     38                     39
                      A                      A                      A
 Frequencies --   1036.0354              1075.4611              1096.6036
 Red. masses --      1.9197                 1.5062                 1.8318
 Frc consts  --      1.2140                 1.0264                 1.2979
 IR Inten    --      8.5349                 3.8522                 7.6105

                     40                     41                     42
                      A                      A                      A
 Frequencies --   1101.2687              1153.5179              1173.9761
 Red. masses --      1.4872                 2.3738                 2.8113
 Frc consts  --      1.0627                 1.8610                 2.2828
 IR Inten    --      0.7961                26.5795               278.2701

                     43                     44                     45
                      A                      A                      A
 Frequencies --   1193.9365              1243.3131              1284.4632
 Red. masses --      1.7604                 1.7556                 2.3965
 Frc consts  --      1.4785                 1.5990                 2.3295
 IR Inten    --      1.6921                 0.4747                 5.9027

                     46                     47                     48
                      A                      A                      A
 Frequencies --   1289.7471              1319.0306              1333.4330
 Red. masses --      1.4722                 1.9354                 1.3679
 Frc consts  --      1.4428                 1.9839                 1.4330
 IR Inten    --      1.5103                96.8553                 1.6505

                     49                     50                     51
                      A                      A                      A
 Frequencies --   1356.2406              1380.3868              1428.8503
 Red. masses --      3.3102                 1.8291                 2.9087
 Frc consts  --      3.5873                 2.0534                 3.4989
 IR Inten    --      2.5024                 5.9176                51.3444

                     52                     53                     54
                      A                      A                      A
 Frequencies --   1437.4802              1444.9534              1458.6028
 Red. masses --      1.2355                 1.2880                 2.2574
 Frc consts  --      1.5041                 1.5844                 2.8297
 IR Inten    --      1.5034                 2.2242                40.7209

                     55                     56                     57
                      A                      A                      A
 Frequencies --   1472.7399              1514.5542              1517.2023
 Red. masses --      3.0725                 1.0495                 1.0690
 Frc consts  --      3.9264                 1.4185                 1.4498
 IR Inten    --     19.4321                 9.2805                 1.6527

                     58                     59                     60
                      A                      A                      A
 Frequencies --   1526.6596              1527.2160              1537.5016
 Red. masses --      1.0763                 1.0746                 1.0805
 Frc consts  --      1.4780                 1.4767                 1.5049
 IR Inten    --     11.3945                 1.2909                 0.7299

                     61                     62                     63
                      A                      A                      A
 Frequencies --   1565.8800              1637.0491              1677.8666
 Red. masses --      2.9657                 5.9703                 6.2733
 Frc consts  --      4.2844                 9.4269                10.4054
 IR Inten    --     50.5038                21.0979                11.1715

                     64                     65                     66
                      A                      A                      A
 Frequencies --   1796.9209              1849.3871              3034.3406
 Red. masses --      9.9137                10.5323                 1.0451
 Frc consts  --     18.8602                21.2240                 5.6696
 IR Inten    --    532.0903               195.8101                32.7010

                     67                     68                     69
                      A                      A                      A
 Frequencies --   3043.2359              3049.9022              3083.0855
 Red. masses --      1.0627                 1.0348                 1.1007
 Frc consts  --      5.7985                 5.6711                 6.1645
 IR Inten    --     30.2553                27.7239                 9.0214

                     70                     71                     72
                      A                      A                      A
 Frequencies --   3092.8096              3119.2424              3125.7719
 Red. masses --      1.0923                 1.1025                 1.1035
 Frc consts  --      6.1562                 6.3203                 6.3527
 IR Inten    --     14.7565                50.1506                32.4132

                     73                     74                     75
                      A                      A                      A
 Frequencies --   3136.6254              3180.2377              3196.3194
 Red. masses --      1.1008                 1.0871                 1.0926
 Frc consts  --      6.3810                 6.4778                 6.5769
 IR Inten    --     14.4157                10.9529                25.3693

                     76                     77                     78
                      A                      A                      A
 Frequencies --   3198.3879              3575.7042              3664.8324
 Red. masses --      1.0923                 1.0755                 1.0637
 Frc consts  --      6.5835                 8.1021                 8.4176
 IR Inten    --      2.6748                28.0297                47.4049

 - Thermochemistry -
 -------------------
 Temperature   298.150 Kelvin.  Pressure   1.00000 Atm.
 Atom     1 has atomic number  6 and mass  12.00000

 Molecular mass:   207.08954 amu.
 Principal axes and moments of inertia in atomic units:
                           1         2         3
     Eigenvalues --  2463.777203407.827015097.99540
           X            0.99519  -0.09800   0.00114
           Y            0.09798   0.99514   0.00979
           Z           -0.00209  -0.00963   0.99995
 This molecule is an asymmetric top.
 Rotational symmetry number  1.
 Warning -- assumption of classical behavior for rotation
           may cause significant error
 Rotational temperatures (Kelvin)      0.03515     0.02542     0.01699
 Rotational constants (GHZ):           0.73251     0.52959     0.35401
 Zero-point vibrational energy     595535.9 (Joules/Mol)
                                  142.33650 (Kcal/Mol)
 Warning -- explicit consideration of  22 degrees of freedom as
           vibrations may cause significant error
 Vibrational temperatures:     38.11    61.57    86.95    90.52   100.48
          (Kelvin)            158.74   220.40   249.74   316.59   341.40
                              357.56   413.74   436.57   496.28   528.15
                              547.77   671.60   676.74   712.58   772.78
                              798.42   891.18   911.21   969.59  1025.22
                             1064.71  1070.87  1104.39  1156.53  1174.95
                             1202.85  1218.05  1308.18  1373.97  1380.71
                             1443.84  1490.62  1547.35  1577.77  1584.48
                             1659.66  1689.09  1717.81  1788.85  1848.06
                             1855.66  1897.79  1918.51  1951.33  1986.07
                             2055.80  2068.21  2078.97  2098.60  2118.94
                             2179.11  2182.92  2196.52  2197.32  2212.12
                             2252.95  2355.35  2414.08  2585.37  2660.86
                             4365.74  4378.54  4388.13  4435.87  4449.86
                             4487.89  4497.29  4512.90  4575.65  4598.79
                             4601.77  5144.64  5272.88

 Zero-point correction=                           0.226828 (Hartree/Particle)
 Thermal correction to Energy=                    0.241860
 Thermal correction to Enthalpy=                  0.242804
 Thermal correction to Gibbs Free Energy=         0.183125
 Sum of electronic and zero-point Energies=           -707.274045
 Sum of electronic and thermal Energies=              -707.259013
 Sum of electronic and thermal Enthalpies=            -707.258069
 Sum of electronic and thermal Free Energies=         -707.317748

                     E (Thermal)             CV                S
                      KCal/Mol        Cal/Mol-Kelvin    Cal/Mol-Kelvin
 Total                  151.769             54.961            125.605
 Electronic               0.000              0.000              0.000
 Translational            0.889              2.981             41.888
 Rotational               0.889              2.981             32.126
 Vibrational            149.992             49.000             51.591
 Vibration     1          0.593              1.985              6.077
 Vibration     2          0.595              1.980              5.125
 Vibration     3          0.597              1.973              4.443
 Vibration     4          0.597              1.972              4.364
 Vibration     5          0.598              1.969              4.158
 Vibration     6          0.606              1.941              3.263
 Vibration     7          0.619              1.899              2.632
 Vibration     8          0.627              1.875              2.396
 Vibration     9          0.647              1.811              1.959
 Vibration    10          0.656              1.784              1.823
 Vibration    11          0.662              1.765              1.741
 Vibration    12          0.685              1.697              1.488
 Vibration    13          0.695              1.667              1.398
 Vibration    14          0.723              1.586              1.189
 Vibration    15          0.740              1.540              1.092
 Vibration    16          0.750              1.511              1.036
 Vibration    17          0.824              1.324              0.747
 Vibration    18          0.827              1.316              0.737
 Vibration    19          0.851              1.261              0.670
 Vibration    20          0.892              1.168              0.572
 Vibration    21          0.910              1.129              0.534
 Vibration    22          0.979              0.991              0.417

 Optimization completed.
    -- Stationary point found.
 Normal termination of Gaussian 16 at Thu Dec 10 17:37:59 2020.

 ----------------------------------------------------------------------
 # B3LYP/6-311++G(d,p) empiricaldispersion=gd3bj scf=xqc pop=npa geom=c
 heck
 ----------------------------------------------------------------------

 --------------------------------------
 CID_83627833_JID_5776_Energie_neutraal
 --------------------------------------
 Structure from the checkpoint file:  "JID_5776.chk"
 Charge =  0 Multiplicity = 1

 SCF Done:  E(RB3LYP) =  -707.710692767     A.U. after   15 cycles
 Normal termination of Gaussian 16 at Thu Dec 10 17:42:31 2020.

 ----------------------------------------------------------------------
 # B3LYP/6-311++G(d,p) empiricaldispersion=gd3bj scf=xqc pop=npa geom=c
 heck
 ----------------------------------------------------------------------

 ------------------------------------
 CID_83627833_JID_5776_Energie_kation
 ------------------------------------
 Structure from the checkpoint file:  "JID_5776.chk"
 Charge =  1 Multiplicity = 2

 SCF Done:  E(UB3LYP) =  -707.399451393     A.U. after   28 cycles
 Normal termination of Gaussian 16 at Thu Dec 10 17:53:13 2020.
 Gaussian 16:  ES64L-G16RevA.03 25-Dec-2016

 ----------------------------------------------------------------------
 # B3LYP/6-311++G(d,p) empiricaldispersion=gd3bj scf=xqc pop=npa geom=c
 heck
 ----------------------------------------------------------------------

 -----------------------------------
 CID_83627833_JID_5776_Energie_anion
 -----------------------------------
 Structure from the checkpoint file:  "JID_5776.chk"
 Charge = -1 Multiplicity = 2

                         Standard orientation:
 ---------------------------------------------------------------------
 Center     Atomic      Atomic             Coordinates (Angstroms)
 Number     Number       Type             X           Y           Z
 ---------------------------------------------------------------------
      1          6           0        2.544727   -2.539690    0.312239
      2          6           0        2.911313   -1.391765   -0.642723
      3          6           0        2.065874   -0.162101   -0.403743
      4          6           0        0.707317   -0.173784   -0.735770
      5          6           0       -0.111626    0.918318   -0.451837
      6          6           0        0.410614    2.087427    0.129005
      7          6           0        1.775792    2.103838    0.418304
      8          6           0        2.590161    0.997208    0.171090
      9          6           0       -0.483720    3.257433    0.445182
     10          7           0       -1.499518    0.842168   -0.747656
     11          6           0       -2.333879   -0.189363   -0.428283
     12          8           0       -3.484804   -0.290506   -0.817531
     13          6           0       -1.786854   -1.191664    0.596221
     14          8           0       -1.576384   -0.914155    1.752235
     15          8           0       -1.680980   -2.432181    0.078633
     16          1           0        2.687340   -2.237829    1.355368
     17          1           0        3.162192   -3.424113    0.120675
     18          1           0        1.493720   -2.825669    0.190125
     19          1           0        2.785202   -1.731728   -1.679027
     20          1           0        3.970911   -1.137596   -0.523748
     21          1           0        0.277166   -1.043794   -1.223344
     22          1           0        2.205599    2.995230    0.867943
     23          1           0        3.645318    1.038212    0.428708
     24          1           0       -0.884147    3.729504   -0.462752
     25          1           0       -1.341803    2.942858    1.050260
     26          1           0        0.062522    4.026787    0.997641
     27          1           0       -1.941154    1.588763   -1.272961
     28          1           0       -1.427218   -3.016204    0.819894
 ---------------------------------------------------------------------

 SCF Done:  E(UB3LYP) =  -707.705539951     A.U. after   33 cycles
 SCF Done:  E(UB3LYP) =  -707.705539951     a.u. after    1 cycles

 The electronic state is 2-A.
 Alpha  occ. eigenvalues --  -19.05722 -18.99182 -18.97723 -14.23512 -10.17443
 Alpha  occ. eigenvalues --  -10.15619 -10.10048 -10.07172 -10.06398 -10.06143
 Alpha  occ. eigenvalues --  -10.05904 -10.05822 -10.05723 -10.05380 -10.04814
 Alpha  occ. eigenvalues --   -0.99574  -0.92806  -0.90422  -0.82940  -0.74207
 Alpha  occ. eigenvalues --   -0.68610  -0.63877  -0.63023  -0.58169  -0.57584
 Alpha  occ. eigenvalues --   -0.51876  -0.50803  -0.47475  -0.47284  -0.41128
 Alpha  occ. eigenvalues --   -0.39463  -0.37247  -0.37123  -0.36527  -0.33900
 Alpha  occ. eigenvalues --   -0.33137  -0.32508  -0.31802  -0.31447  -0.31269
 Alpha  occ. eigenvalues --   -0.29354  -0.28924  -0.28630  -0.27926  -0.26172
 Alpha  occ. eigenvalues --   -0.24581  -0.24020  -0.22966  -0.22300  -0.21367
 Alpha  occ. eigenvalues --   -0.19240  -0.17942  -0.13819  -0.13341  -0.12075
 Alpha  occ. eigenvalues --    0.04831
 Alpha virt. eigenvalues --    0.07032   0.07390   0.08282   0.08903   0.09263
 Alpha virt. eigenvalues --    0.10037   0.10174   0.10477   0.11170   0.12154
 Alpha virt. eigenvalues --    0.12564   0.12956   0.13519   0.14062   0.14819

  Beta  occ. eigenvalues --  -19.05678 -18.98994 -18.97549 -14.23532 -10.17224
  Beta  occ. eigenvalues --  -10.15463 -10.10037 -10.07186 -10.06235 -10.06149
  Beta  occ. eigenvalues --  -10.05897 -10.05761 -10.05678 -10.05321 -10.04764
  Beta  occ. eigenvalues --   -0.99340  -0.92499  -0.90141  -0.82837  -0.74044
  Beta  occ. eigenvalues --   -0.68418  -0.63794  -0.62914  -0.57923  -0.57232
  Beta  occ. eigenvalues --   -0.51786  -0.50657  -0.47342  -0.47133  -0.40971
  Beta  occ. eigenvalues --   -0.39194  -0.37071  -0.36941  -0.36401  -0.33526
  Beta  occ. eigenvalues --   -0.32960  -0.32237  -0.31569  -0.31396  -0.30981
  Beta  occ. eigenvalues --   -0.29108  -0.28776  -0.28257  -0.27769  -0.26025
  Beta  occ. eigenvalues --   -0.24486  -0.23788  -0.22858  -0.22210  -0.20673
  Beta  occ. eigenvalues --   -0.19034  -0.17509  -0.13571  -0.13011  -0.11451
  Beta virt. eigenvalues --    0.07140   0.07709   0.08437   0.08857   0.09217
  Beta virt. eigenvalues --    0.09726   0.10258   0.10488   0.11326   0.11453
  Beta virt. eigenvalues --    0.12661   0.12715   0.13201   0.13582   0.14650

 Mulliken charges and spin densities:
               1          2
     1  C    0.883043  -1.460494
     2  C   -0.210775  -0.203263
     3  C    0.293064   0.550625
     4  C   -0.620461   0.550831
     5  C   -0.432610   0.134412
     6  C    1.324032  -0.477369
     7  C   -0.520969  -0.104150
     8  C   -0.324780  -0.356318
     9  C   -0.423136  -0.166175
    10  N   -0.059604  -0.008240
    11  C   -0.004627   0.112041
    12  O   -0.346666   0.051652
    13  C   -0.176456   0.091014
    14  O   -0.246706   0.066014
    15  O   -0.102667   0.013444
    16  H    0.087947   0.039480
    17  H   -0.609101   0.746878
    18  H   -0.072457   0.170815
    19  H   -0.064778   0.205445
    20  H   -0.408295   0.568141
    21  H    0.134468   0.115882
    22  H    0.001465   0.105795
    23  H   -0.102821   0.221287
    24  H    0.105294   0.027818
    25  H    0.181051   0.003337
    26  H    0.154016  -0.017528
    27  H    0.296268   0.006262
    28  H    0.266259   0.012366
 Sum of Mulliken charges =  -1.00000   1.00000

 Dipole moment (field-independent basis, Debye):
    X=             -1.7562    Y=              5.0945    Z=              0.4061  Tot=              5.4040
 Quadrupole moment (field-independent basis, Debye-Ang):
   XX=           -155.7486   YY=           -117.1676   ZZ=           -109.4571
   XY=             11.0667   XZ=              2.0976   YZ=             -3.4920

 Summary of Natural Population Analysis:

                                       Natural Population
                Natural  -----------------------------------------------
    Atom  No    Charge         Core      Valence    Rydberg      Total
 -----------------------------------------------------------------------
      C    1   -0.27962      0.99966     2.27442    0.00554     3.27962
      C    2   -0.19780      0.99961     2.18837    0.00982     3.19780
      C    3    0.00731      0.99951     1.98326    0.00991     2.99269
      C    4   -0.10893      0.99947     2.10088    0.00858     3.10893
      C    5    0.07742      0.99942     1.91238    0.01078     2.92258
      C    6   -0.00349      0.99947     1.99495    0.00907     3.00349
      C    7   -0.09883      0.99953     2.09073    0.00857     3.09883
      C    8   -0.09464      0.99951     2.08519    0.00993     3.09464
      C    9   -0.29342      0.99965     2.28939    0.00439     3.29342
      N   10   -0.31514      0.99964     2.80533    0.01017     3.81514
      C   11    0.32423      0.99964     1.65256    0.02357     2.67577
      O   12   -0.29814      0.99988     3.29185    0.00642     4.29814
      C   13    0.39362      0.99972     1.58048    0.02618     2.60638
      O   14   -0.28629      0.99987     3.27979    0.00664     4.28629
      O   15   -0.34084      0.99987     3.33397    0.00700     4.34084
      H   16    0.09623      0.00000     0.40264    0.00113     0.40377
      H   17    0.09857      0.00000     0.39883    0.00260     0.40143
      H   18    0.09595      0.00000     0.40229    0.00176     0.40405
      H   19    0.10023      0.00000     0.39828    0.00149     0.39977
      H   20    0.09757      0.00000     0.40089    0.00154     0.40243
      H   21    0.10531      0.00000     0.39245    0.00225     0.39469
      H   22    0.09328      0.00000     0.40582    0.00089     0.40672
      H   23    0.09616      0.00000     0.40287    0.00097     0.40384
      H   24    0.09692      0.00000     0.40188    0.00120     0.40308
      H   25    0.10820      0.00000     0.39075    0.00105     0.39180
      H   26    0.09891      0.00000     0.40037    0.00072     0.40109
      H   27    0.19323      0.00000     0.30412    0.00265     0.30677
      H   28    0.23403      0.00000     0.26242    0.00355     0.26597
 =======================================================================
   * Total *   -0.00000     14.99446    39.82715    0.17839    55.00000

 Normal termination of Gaussian 16 at Thu Dec 10 18:04:03 2020.
