 Gaussian 16, Revision A.03,

 -----------------------------------------------------------
 # opt freq B3LYP/6-31G(d) empiricaldispersion=gd3bj scf=xqc
 -----------------------------------------------------------

 ------------------------------
 CID_84012194_JID_8323_neutraal
 ------------------------------
 Symbolic Z-matrix:
 Charge =  0 Multiplicity = 1

 SCF Done:  E(RB3LYP) =  -841.440877727     A.U. after   15 cycles
 SCF Done:  E(RB3LYP) =  -841.446012427     A.U. after   12 cycles
 SCF Done:  E(RB3LYP) =  -841.446152052     A.U. after   12 cycles
 SCF Done:  E(RB3LYP) =  -841.446618636     A.U. after   12 cycles
 SCF Done:  E(RB3LYP) =  -841.446685623     A.U. after   12 cycles
 SCF Done:  E(RB3LYP) =  -841.446932311     A.U. after   11 cycles
 SCF Done:  E(RB3LYP) =  -841.446982622     A.U. after   10 cycles
 SCF Done:  E(RB3LYP) =  -841.447005888     A.U. after   10 cycles
 SCF Done:  E(RB3LYP) =  -841.447009009     A.U. after    8 cycles
 SCF Done:  E(RB3LYP) =  -841.447010034     A.U. after    8 cycles
 SCF Done:  E(RB3LYP) =  -841.447010189     A.U. after    7 cycles
 SCF Done:  E(RB3LYP) =  -841.447010215     A.U. after    7 cycles
 Optimization completed.
    -- Stationary point found.
 Normal termination of Gaussian 16 at Fri Dec 11 20:02:17 2020.

 --------------------------------------------------------------------
 #N Geom=AllCheck Guess=TCheck SCRF=Check GenChk RB3LYP/6-31G(d) Freq
 --------------------------------------------------------------------

 Structure from the checkpoint file:  "JID_8323.chk"
 ------------------------------
 CID_84012194_JID_8323_neutraal
 ------------------------------
 Charge =  0 Multiplicity = 1

 SCF Done:  E(RB3LYP) =  -841.447010215     A.U. after    1 cycles

  Exact polarizability: 193.859 -12.005 157.422 -13.709 -17.149 112.544
 Approx polarizability: 264.940 -19.898 247.573 -31.717 -37.091 181.586

                      1                      2                      3
                      A                      A                      A
 Frequencies --     16.7078                40.7946                47.3500
 Red. masses --      5.6491                 3.7422                 9.1863
 Frc consts  --      0.0009                 0.0037                 0.0121
 IR Inten    --      0.1432                 0.1399                 0.7189

                      4                      5                      6
                      A                      A                      A
 Frequencies --     64.2844                73.6046                96.8633
 Red. masses --      5.1193                 5.3609                 4.0079
 Frc consts  --      0.0125                 0.0171                 0.0222
 IR Inten    --      0.3339                 0.3386                 0.6052

                      7                      8                      9
                      A                      A                      A
 Frequencies --    131.9530               148.5677               192.3170
 Red. masses --      2.7610                 4.0273                 4.4893
 Frc consts  --      0.0283                 0.0524                 0.0978
 IR Inten    --      4.3834                 1.9457                 7.2233

                     10                     11                     12
                      A                      A                      A
 Frequencies --    236.2136               245.6076               253.7398
 Red. masses --      2.9207                 4.2538                 3.4300
 Frc consts  --      0.0960                 0.1512                 0.1301
 IR Inten    --      0.7585                 4.1624                 2.2887

                     13                     14                     15
                      A                      A                      A
 Frequencies --    303.0023               349.0134               358.3681
 Red. masses --      3.4114                 2.9445                 4.1304
 Frc consts  --      0.1845                 0.2113                 0.3125
 IR Inten    --      0.3311                10.5119                 1.6902

                     16                     17                     18
                      A                      A                      A
 Frequencies --    421.8266               438.2910               443.1905
 Red. masses --      3.6667                 2.0045                 2.4850
 Frc consts  --      0.3844                 0.2269                 0.2876
 IR Inten    --      2.6637                22.9691                 3.3929

                     19                     20                     21
                      A                      A                      A
 Frequencies --    460.8374               470.6153               482.0887
 Red. masses --      1.6625                 2.5901                 2.6931
 Frc consts  --      0.2080                 0.3380                 0.3688
 IR Inten    --     55.0711                13.5683                 0.3333

                     22                     23                     24
                      A                      A                      A
 Frequencies --    531.1911               543.3311               563.6113
 Red. masses --      1.8349                 3.2698                 2.9633
 Frc consts  --      0.3050                 0.5687                 0.5546
 IR Inten    --     15.2540                 0.6812                36.2407

                     25                     26                     27
                      A                      A                      A
 Frequencies --    585.2060               608.2495               655.5889
 Red. masses --      3.5410                 1.8811                 4.7556
 Frc consts  --      0.7145                 0.4100                 1.2043
 IR Inten    --     48.7275                15.0514                15.9501

                     28                     29                     30
                      A                      A                      A
 Frequencies --    659.1317               682.3188               717.1809
 Red. masses --      4.2272                 1.5424                 2.4413
 Frc consts  --      1.0820                 0.4231                 0.7398
 IR Inten    --      9.8074               112.6470                19.0650

                     31                     32                     33
                      A                      A                      A
 Frequencies --    769.6904               784.4664               807.2837
 Red. masses --      2.0910                 3.9913                 1.8078
 Frc consts  --      0.7298                 1.4471                 0.6941
 IR Inten    --     31.8108                 7.5130                 9.0149

                     34                     35                     36
                      A                      A                      A
 Frequencies --    855.0405               861.9616               868.3921
 Red. masses --      1.6587                 2.2375                 1.7436
 Frc consts  --      0.7145                 0.9795                 0.7747
 IR Inten    --      0.5612                 4.1895                15.9712

                     37                     38                     39
                      A                      A                      A
 Frequencies --    882.6562               890.2180               904.5929
 Red. masses --      1.8226                 2.3234                 3.1853
 Frc consts  --      0.8366                 1.0849                 1.5357
 IR Inten    --     17.3092                 6.5736                20.0623

                     40                     41                     42
                      A                      A                      A
 Frequencies --    957.9166               962.3695              1001.6645
 Red. masses --      2.2454                 1.2567                 2.7501
 Frc consts  --      1.2139                 0.6858                 1.6257
 IR Inten    --      1.4153                 0.9648                33.2617

                     43                     44                     45
                      A                      A                      A
 Frequencies --   1011.0005              1019.7331              1042.0869
 Red. masses --      3.5415                 3.5086                 1.9963
 Frc consts  --      2.1327                 2.1496                 1.2773
 IR Inten    --      7.6065                 1.7031                 3.5612

                     46                     47                     48
                      A                      A                      A
 Frequencies --   1048.3029              1104.8655              1107.3941
 Red. masses --      2.4600                 2.0656                 1.8797
 Frc consts  --      1.5928                 1.4857                 1.3582
 IR Inten    --     29.8924                18.1923                13.6545

                     49                     50                     51
                      A                      A                      A
 Frequencies --   1120.4686              1139.4406              1159.9714
 Red. masses --      1.8681                 6.0256                 3.0395
 Frc consts  --      1.3818                 4.6093                 2.4096
 IR Inten    --      0.2441                56.7511               149.4486

                     52                     53                     54
                      A                      A                      A
 Frequencies --   1173.0023              1188.1326              1195.3812
 Red. masses --      2.1114                 2.1523                 2.2194
 Frc consts  --      1.7117                 1.7901                 1.8685
 IR Inten    --      0.9405                37.5896               202.8203

                     55                     56                     57
                      A                      A                      A
 Frequencies --   1205.4766              1221.1645              1247.6554
 Red. masses --      1.1470                 2.2090                 1.1141
 Frc consts  --      0.9820                 1.9409                 1.0218
 IR Inten    --      8.8853                14.7377                 7.0638

                     58                     59                     60
                      A                      A                      A
 Frequencies --   1256.2979              1279.2952              1303.0750
 Red. masses --      1.0892                 1.2717                 1.7619
 Frc consts  --      1.0128                 1.2262                 1.7627
 IR Inten    --      3.5979                14.6203                14.1057

                     61                     62                     63
                      A                      A                      A
 Frequencies --   1336.0183              1340.8961              1349.7863
 Red. masses --      1.2298                 1.5876                 1.7954
 Frc consts  --      1.2933                 1.6818                 1.9273
 IR Inten    --     13.7030                 3.2759                 2.2538

                     64                     65                     66
                      A                      A                      A
 Frequencies --   1374.6667              1378.2315              1391.9075
 Red. masses --      1.6667                 1.3039                 1.4811
 Frc consts  --      1.8556                 1.4593                 1.6906
 IR Inten    --      1.2681                 0.1202                33.2482

                     67                     68                     69
                      A                      A                      A
 Frequencies --   1392.9745              1402.0182              1412.0451
 Red. masses --      1.9776                 1.3541                 1.2532
 Frc consts  --      2.2609                 1.5682                 1.4722
 IR Inten    --     67.2173                 2.6143                 6.8526

                     70                     71                     72
                      A                      A                      A
 Frequencies --   1424.4524              1433.9820              1442.0018
 Red. masses --      1.4524                 2.3297                 1.2922
 Frc consts  --      1.7363                 2.8225                 1.5831
 IR Inten    --     15.9208               179.1438                 5.2270

                     73                     74                     75
                      A                      A                      A
 Frequencies --   1491.8459              1493.5258              1497.3869
 Red. masses --      2.0503                 1.0977                 1.2116
 Frc consts  --      2.6885                 1.4427                 1.6005
 IR Inten    --     20.8652                 3.5372                 5.1114

                     76                     77                     78
                      A                      A                      A
 Frequencies --   1504.6213              1519.0603              1522.1213
 Red. masses --      1.1410                 1.1910                 1.2209
 Frc consts  --      1.5220                 1.6193                 1.6666
 IR Inten    --     14.3897                19.0909                34.1981

                     79                     80                     81
                      A                      A                      A
 Frequencies --   1532.5373              1536.9545              1569.9761
 Red. masses --      1.1141                 1.4244                 2.2324
 Frc consts  --      1.5417                 1.9825                 3.2420
 IR Inten    --      2.0270                 2.3263               129.4192

                     82                     83                     84
                      A                      A                      A
 Frequencies --   1647.3613              1670.1341              1850.3449
 Red. masses --      5.2165                 5.6382                 9.5319
 Frc consts  --      8.3407                 9.2661                19.2280
 IR Inten    --     35.8546               170.3938               245.9525

                     85                     86                     87
                      A                      A                      A
 Frequencies --   2971.6513              3010.7528              3015.2875
 Red. masses --      1.0728                 1.0676                 1.0688
 Frc consts  --      5.5816                 5.7016                 5.7251
 IR Inten    --     48.8393                40.4677                62.0914

                     88                     89                     90
                      A                      A                      A
 Frequencies --   3027.9654              3031.6338              3034.7226
 Red. masses --      1.0619                 1.0626                 1.0606
 Frc consts  --      5.7361                 5.7541                 5.7548
 IR Inten    --     13.1116                37.5452                82.3594

                     91                     92                     93
                      A                      A                      A
 Frequencies --   3043.3795              3076.6177              3087.0624
 Red. masses --      1.0865                 1.1046                 1.0965
 Frc consts  --      5.9290                 6.1601                 6.1567
 IR Inten    --     24.2002                 6.3566                53.1276

                     94                     95                     96
                      A                      A                      A
 Frequencies --   3091.6688              3097.9960              3100.7512
 Red. masses --      1.0957                 1.1023                 1.1029
 Frc consts  --      6.1704                 6.2334                 6.2476
 IR Inten    --     42.8241                48.1815                68.0603

                     97                     98                     99
                      A                      A                      A
 Frequencies --   3175.8806              3184.5292              3190.3031
 Red. masses --      1.0856                 1.0901                 1.0884
 Frc consts  --      6.4512                 6.5134                 6.5270
 IR Inten    --      2.1405                23.8245                19.6363

                    100                    101                    102
                      A                      A                      A
 Frequencies --   3201.4029              3585.2866              3688.6643
 Red. masses --      1.0963                 1.0758                 1.0641
 Frc consts  --      6.6203                 8.1473                 8.5304
 IR Inten    --     21.7324                81.2721                69.4700

 - Thermochemistry -
 -------------------
 Temperature   298.150 Kelvin.  Pressure   1.00000 Atm.
 Atom     1 has atomic number  6 and mass  12.00000

 Molecular mass:   250.13174 amu.
 Principal axes and moments of inertia in atomic units:
                           1         2         3
     Eigenvalues --  2515.552168651.656719695.49922
           X            1.00000  -0.00170  -0.00062
           Y            0.00169   0.99976  -0.02182
           Z            0.00066   0.02182   0.99976
 This molecule is an asymmetric top.
 Rotational symmetry number  1.
 Warning -- assumption of classical behavior for rotation
           may cause significant error
 Rotational temperatures (Kelvin)      0.03443     0.01001     0.00893
 Rotational constants (GHZ):           0.71743     0.20860     0.18614
 Zero-point vibrational energy     803414.7 (Joules/Mol)
                                  192.02072 (Kcal/Mol)
 Warning -- explicit consideration of  26 degrees of freedom as
           vibrations may cause significant error
 Vibrational temperatures:     24.04    58.69    68.13    92.49   105.90
          (Kelvin)            139.36   189.85   213.76   276.70   339.86
                              353.37   365.07   435.95   502.15   515.61
                              606.91   630.60   637.65   663.04   677.11
                              693.62   764.27   781.73   810.91   841.98
                              875.14   943.25   948.34   981.70  1031.86
                             1107.41  1128.67  1161.50  1230.21  1240.17
                             1249.42  1269.95  1280.83  1301.51  1378.23
                             1384.64  1441.17  1454.60  1467.17  1499.33
                             1508.27  1589.66  1593.29  1612.10  1639.40
                             1668.94  1687.69  1709.46  1719.89  1734.41
                             1756.98  1795.10  1807.53  1840.62  1874.83
                             1922.23  1929.25  1942.04  1977.84  1982.97
                             2002.64  2004.18  2017.19  2031.62  2049.47
                             2063.18  2074.72  2146.43  2148.85  2154.41
                             2164.81  2185.59  2189.99  2204.98  2211.33
                             2258.85  2370.19  2402.95  2662.23  4275.54
                             4331.80  4338.33  4356.57  4361.84  4366.29
                             4378.74  4426.57  4441.59  4448.22  4457.33
                             4461.29  4569.38  4581.83  4590.13  4606.10
                             5158.43  5307.17

 Zero-point correction=                           0.306004 (Hartree/Particle)
 Thermal correction to Energy=                    0.322480
 Thermal correction to Enthalpy=                  0.323424
 Thermal correction to Gibbs Free Energy=         0.259842
 Sum of electronic and zero-point Energies=           -841.141006
 Sum of electronic and thermal Energies=              -841.124530
 Sum of electronic and thermal Enthalpies=            -841.123586
 Sum of electronic and thermal Free Energies=         -841.187168

                     E (Thermal)             CV                S
                      KCal/Mol        Cal/Mol-Kelvin    Cal/Mol-Kelvin
 Total                  202.359             63.585            133.820
 Electronic               0.000              0.000              0.000
 Translational            0.889              2.981             42.451
 Rotational               0.889              2.981             33.711
 Vibrational            200.582             57.623             57.658
 Vibration     1          0.593              1.986              6.991
 Vibration     2          0.594              1.981              5.220
 Vibration     3          0.595              1.979              4.925
 Vibration     4          0.597              1.971              4.321
 Vibration     5          0.599              1.966              4.055
 Vibration     6          0.603              1.951              3.516
 Vibration     7          0.612              1.921              2.917
 Vibration     8          0.618              1.904              2.690
 Vibration     9          0.634              1.851              2.205
 Vibration    10          0.655              1.785              1.831
 Vibration    11          0.660              1.770              1.762
 Vibration    12          0.665              1.756              1.704
 Vibration    13          0.694              1.668              1.400
 Vibration    14          0.726              1.577              1.171
 Vibration    15          0.733              1.558              1.129
 Vibration    16          0.784              1.423              0.886
 Vibration    17          0.798              1.387              0.832
 Vibration    18          0.803              1.376              0.817
 Vibration    19          0.819              1.337              0.764
 Vibration    20          0.828              1.315              0.736
 Vibration    21          0.838              1.290              0.704
 Vibration    22          0.886              1.181              0.585
 Vibration    23          0.898              1.154              0.558
 Vibration    24          0.919              1.110              0.517
 Vibration    25          0.942              1.063              0.476
 Vibration    26          0.967              1.014              0.436

                           ! Non-Optimized Parameters !
 Normal termination of Gaussian 16 at Fri Dec 11 20:17:59 2020.

 ----------------------------------------------------------------------
 # B3LYP/6-311++G(d,p) empiricaldispersion=gd3bj scf=xqc pop=npa geom=c
 heck
 ----------------------------------------------------------------------

 --------------------------------------
 CID_84012194_JID_8323_Energie_neutraal
 --------------------------------------
 Structure from the checkpoint file:  "JID_8323.chk"
 Charge =  0 Multiplicity = 1

 SCF Done:  E(RB3LYP) =  -841.692897253     A.U. after   15 cycles
 Normal termination of Gaussian 16 at Fri Dec 11 20:25:12 2020.

 ----------------------------------------------------------------------
 # B3LYP/6-311++G(d,p) empiricaldispersion=gd3bj scf=xqc pop=npa geom=c
 heck
 ----------------------------------------------------------------------

 ------------------------------------
 CID_84012194_JID_8323_Energie_kation
 ------------------------------------
 Structure from the checkpoint file:  "JID_8323.chk"
 Charge =  1 Multiplicity = 2

 SCF Done:  E(UB3LYP) =  -841.431794204     A.U. after   22 cycles
 Normal termination of Gaussian 16 at Fri Dec 11 20:40:35 2020.
 Gaussian 16:  ES64L-G16RevA.03 25-Dec-2016

 ----------------------------------------------------------------------
 # B3LYP/6-311++G(d,p) empiricaldispersion=gd3bj scf=xqc pop=npa geom=c
 heck
 ----------------------------------------------------------------------

 -----------------------------------
 CID_84012194_JID_8323_Energie_anion
 -----------------------------------
 Structure from the checkpoint file:  "JID_8323.chk"
 Charge = -1 Multiplicity = 2

                         Standard orientation:
 ---------------------------------------------------------------------
 Center     Atomic      Atomic             Coordinates (Angstroms)
 Number     Number       Type             X           Y           Z
 ---------------------------------------------------------------------
      1          6           0       -2.314786   -1.977755    0.474738
      2          6           0       -1.935592   -1.796389   -0.999777
      3          8           0       -3.053172   -1.316211   -1.740899
      4          6           0       -3.481034   -0.052460   -1.239601
      5          6           0       -3.910415   -0.180893    0.226302
      6          7           0       -2.890493   -0.781092    1.083643
      7          6           0       -1.985130    0.123685    1.788199
      8          6           0       -0.981109    0.922438    0.968649
      9          6           0        0.274883    0.377969    0.681244
     10          6           0        1.194428    1.060196   -0.132879
     11          6           0        0.832439    2.320737   -0.647101
     12          6           0       -0.404521    2.871300   -0.340226
     13          6           0       -1.313313    2.183666    0.468868
     14          7           0        2.426801    0.517950   -0.459955
     15          6           0        2.987003   -0.586823    0.268101
     16          6           0        4.465080   -0.690643   -0.041458
     17          8           0        5.106698    0.138465   -0.647956
     18          8           0        4.996260   -1.821777    0.464519
     19          1           0       -3.065917   -2.780092    0.529337
     20          1           0       -1.445739   -2.297034    1.061802
     21          1           0       -1.089917   -1.101137   -1.102606
     22          1           0       -1.659394   -2.756669   -1.448496
     23          1           0       -4.326327    0.254675   -1.864526
     24          1           0       -2.674601    0.687252   -1.346285
     25          1           0       -4.801958   -0.825016    0.258556
     26          1           0       -4.191820    0.796814    0.633641
     27          1           0       -2.613478    0.823042    2.353699
     28          1           0       -1.442118   -0.482386    2.524611
     29          1           0        0.528358   -0.597050    1.086921
     30          1           0        1.534483    2.859989   -1.278304
     31          1           0       -0.661198    3.852024   -0.731855
     32          1           0       -2.277241    2.624945    0.707613
     33          1           0        3.125963    1.153307   -0.824653
     34          1           0        2.885141   -0.480503    1.363075
     35          1           0        2.508194   -1.541052    0.008096
     36          1           0        5.947518   -1.803100    0.247886
 ---------------------------------------------------------------------

 SCF Done:  E(UB3LYP) =  -841.685059780     A.U. after   33 cycles
 SCF Done:  E(UB3LYP) =  -841.685059780     a.u. after    1 cycles

 The electronic state is 2-A.
 Alpha  occ. eigenvalues --  -19.07894 -19.03756 -19.03269 -14.23710 -14.21825
 Alpha  occ. eigenvalues --  -10.22305 -10.13032 -10.12906 -10.12614 -10.12381
 Alpha  occ. eigenvalues --  -10.11040 -10.11000 -10.10758 -10.08846 -10.08766
 Alpha  occ. eigenvalues --  -10.08121 -10.07744 -10.07496  -1.02398  -0.95266
 Alpha  occ. eigenvalues --   -0.93809  -0.85586  -0.83642  -0.76055  -0.68688
 Alpha  occ. eigenvalues --   -0.68530  -0.66822  -0.63405  -0.61733  -0.56950
 Alpha  occ. eigenvalues --   -0.56349  -0.53472  -0.51443  -0.49867  -0.47889
 Alpha  occ. eigenvalues --   -0.44670  -0.41977  -0.41029  -0.40614  -0.39945
 Alpha  occ. eigenvalues --   -0.39540  -0.39038  -0.38305  -0.37989  -0.37275
 Alpha  occ. eigenvalues --   -0.36444  -0.34424  -0.34139  -0.33190  -0.33080
 Alpha  occ. eigenvalues --   -0.31126  -0.30637  -0.29873  -0.29238  -0.28195
 Alpha  occ. eigenvalues --   -0.27899  -0.27409  -0.26126  -0.25445  -0.24072
 Alpha  occ. eigenvalues --   -0.23257  -0.21134  -0.20484  -0.18754  -0.16482
 Alpha  occ. eigenvalues --   -0.11943  -0.11446   0.03934
 Alpha virt. eigenvalues --    0.05464   0.06345   0.06619   0.07128   0.07736
 Alpha virt. eigenvalues --    0.08131   0.08398   0.08540   0.08959   0.09307
 Alpha virt. eigenvalues --    0.10029   0.10444   0.10811   0.11680   0.12225

  Beta  occ. eigenvalues --  -19.07816 -19.03753 -19.03248 -14.23707 -14.21820
  Beta  occ. eigenvalues --  -10.22290 -10.12987 -10.12908 -10.12610 -10.12376
  Beta  occ. eigenvalues --  -10.11028 -10.10987 -10.10744 -10.08840 -10.08736
  Beta  occ. eigenvalues --  -10.08095 -10.07729 -10.07486  -1.02300  -0.95259
  Beta  occ. eigenvalues --   -0.93723  -0.85570  -0.83624  -0.76018  -0.68630
  Beta  occ. eigenvalues --   -0.68514  -0.66771  -0.63363  -0.61678  -0.56924
  Beta  occ. eigenvalues --   -0.56318  -0.53379  -0.51403  -0.49787  -0.47859
  Beta  occ. eigenvalues --   -0.44630  -0.41927  -0.40988  -0.40577  -0.39882
  Beta  occ. eigenvalues --   -0.39507  -0.39032  -0.38280  -0.37944  -0.37236
  Beta  occ. eigenvalues --   -0.36418  -0.34394  -0.34099  -0.33164  -0.33018
  Beta  occ. eigenvalues --   -0.31103  -0.30574  -0.29827  -0.29214  -0.28154
  Beta  occ. eigenvalues --   -0.27881  -0.27378  -0.26101  -0.25423  -0.23997
  Beta  occ. eigenvalues --   -0.23241  -0.21093  -0.20424  -0.18730  -0.16373
  Beta  occ. eigenvalues --   -0.11898  -0.11387
  Beta virt. eigenvalues --    0.05780   0.06573   0.06792   0.06923   0.07903
  Beta virt. eigenvalues --    0.07935   0.08370   0.08590   0.08698   0.09167
  Beta virt. eigenvalues --    0.09476   0.10200   0.10671   0.11034   0.11825

 Mulliken charges and spin densities:
               1          2
     1  C   -0.189182  -0.044920
     2  C   -0.057218  -0.320168
     3  O   -0.131476   0.009502
     4  C   -0.428717  -0.009562
     5  C    0.164362  -0.301145
     6  N    0.116263   0.052709
     7  C    0.176374  -1.185246
     8  C    0.326025   1.021712
     9  C    0.527589   0.244908
    10  C   -1.292306   0.106984
    11  C   -0.591469   0.109983
    12  C    0.115217  -0.537984
    13  C   -0.332977  -0.145287
    14  N   -0.053072   0.078500
    15  C    1.534822  -1.928086
    16  C   -0.018334   0.101360
    17  O   -0.271964  -0.028423
    18  O   -0.203284   0.079442
    19  H    0.047554   0.110210
    20  H   -0.193915   0.325855
    21  H    0.276680  -0.025030
    22  H    0.071529   0.100583
    23  H    0.069104   0.094957
    24  H    0.252700  -0.075540
    25  H    0.052932   0.101916
    26  H   -0.008536   0.142420
    27  H   -0.048034   0.218845
    28  H   -0.292821   0.464812
    29  H    0.725160  -0.518053
    30  H   -0.048476   0.166439
    31  H   -0.005814   0.174771
    32  H   -0.251373   0.368791
    33  H    0.416927  -0.152092
    34  H   -0.546927   0.764038
    35  H   -0.133096   0.345155
    36  H   -0.774248   1.087644
 Sum of Mulliken charges =  -1.00000   1.00000

 Dipole moment (field-independent basis, Debye):
    X=             -8.5675    Y=              3.6429    Z=             -2.5382  Tot=              9.6496
 Quadrupole moment (field-independent basis, Debye-Ang):
   XX=           -228.0923   YY=           -148.6086   ZZ=           -143.6847
   XY=             19.8299   XZ=             -4.3732   YZ=              0.7998

 Summary of Natural Population Analysis:

                                       Natural Population
                Natural  -----------------------------------------------
    Atom  No    Charge         Core      Valence    Rydberg      Total
 -----------------------------------------------------------------------
      C    1   -0.09828      0.99961     2.08741    0.01126     3.09828
      C    2   -0.02394      0.99958     2.01191    0.01245     3.02394
      O    3   -0.30137      0.99989     3.29289    0.00858     4.30137
      C    4   -0.02266      0.99958     2.01205    0.01103     3.02266
      C    5   -0.09797      0.99961     2.08718    0.01118     3.09797
      N    6   -0.27745      0.99973     2.76314    0.01457     3.77745
      C    7   -0.08752      0.99956     2.07452    0.01344     3.08752
      C    8   -0.01436      0.99950     2.00475    0.01010     3.01436
      C    9   -0.13733      0.99948     2.12888    0.00897     3.13733
      C   10    0.09471      0.99950     1.89438    0.01141     2.90529
      C   11   -0.11980      0.99953     2.11202    0.00825     3.11980
      C   12   -0.09089      0.99957     2.08194    0.00938     3.09089
      C   13   -0.12957      0.99951     2.11953    0.01054     3.12957
      N   14   -0.31302      0.99967     2.80308    0.01027     3.81302
      C   15   -0.13698      0.99958     2.12557    0.01183     3.13698
      C   16    0.40986      0.99973     1.56578    0.02463     2.59014
      O   17   -0.31071      0.99987     3.30407    0.00677     4.31071
      O   18   -0.33716      0.99988     3.33049    0.00680     4.33716
      H   19    0.09190      0.00000     0.40687    0.00123     0.40810
      H   20    0.10081      0.00000     0.39801    0.00118     0.39919
      H   21    0.08597      0.00000     0.41248    0.00155     0.41403
      H   22    0.08923      0.00000     0.40958    0.00120     0.41077
      H   23    0.08722      0.00000     0.41163    0.00115     0.41278
      H   24    0.08628      0.00000     0.41213    0.00159     0.41372
      H   25    0.09177      0.00000     0.40700    0.00123     0.40823
      H   26    0.09854      0.00000     0.40034    0.00112     0.40146
      H   27    0.09762      0.00000     0.40119    0.00119     0.40238
      H   28    0.09994      0.00000     0.39874    0.00132     0.40006
      H   29    0.10341      0.00000     0.39446    0.00213     0.39659
      H   30    0.09893      0.00000     0.40017    0.00090     0.40107
      H   31    0.09873      0.00000     0.40048    0.00079     0.40127
      H   32    0.09886      0.00000     0.39958    0.00155     0.40114
      H   33    0.19728      0.00000     0.29994    0.00279     0.30272
      H   34    0.11011      0.00000     0.38770    0.00219     0.38989
      H   35    0.10808      0.00000     0.39014    0.00178     0.39192
      H   36    0.24979      0.00000     0.20665    0.04357     0.25021
 =======================================================================
   * Total *   -0.00000     17.99338    48.73670    0.26992    67.00000

 Normal termination of Gaussian 16 at Fri Dec 11 21:03:33 2020.
