 Gaussian 16, Revision A.03,

 -----------------------------------------------------------
 # opt freq B3LYP/6-31G(d) empiricaldispersion=gd3bj scf=xqc
 -----------------------------------------------------------

 -------------------------------
 CID_154465447_JID_3124_neutraal
 -------------------------------
 Symbolic Z-matrix:
 Charge =  0 Multiplicity = 1

 SCF Done:  E(RB3LYP) =  -623.685121839     A.U. after   18 cycles
 SCF Done:  E(RB3LYP) =  -623.695578812     A.U. after   14 cycles
 SCF Done:  E(RB3LYP) =  -623.697865723     A.U. after   15 cycles
 SCF Done:  E(RB3LYP) =  -623.700870626     A.U. after   15 cycles
 SCF Done:  E(RB3LYP) =  -623.704143796     A.U. after   15 cycles
 SCF Done:  E(RB3LYP) =  -623.706863992     A.U. after   13 cycles
 SCF Done:  E(RB3LYP) =  -623.708522424     A.U. after   14 cycles
 SCF Done:  E(RB3LYP) =  -623.708824020     A.U. after   13 cycles
 SCF Done:  E(RB3LYP) =  -623.709086729     A.U. after   13 cycles
 SCF Done:  E(RB3LYP) =  -623.709161930     A.U. after   12 cycles
 SCF Done:  E(RB3LYP) =  -623.709177289     A.U. after   11 cycles
 SCF Done:  E(RB3LYP) =  -623.709179430     A.U. after    9 cycles
 SCF Done:  E(RB3LYP) =  -623.709180455     A.U. after    9 cycles
 Optimization completed.
    -- Stationary point found.
 Normal termination of Gaussian 16 at Wed Dec  9 22:24:43 2020.

 --------------------------------------------------------------------
 #N Geom=AllCheck Guess=TCheck SCRF=Check GenChk RB3LYP/6-31G(d) Freq
 --------------------------------------------------------------------

 Structure from the checkpoint file:  "JID_3124.chk"
 -------------------------------
 CID_154465447_JID_3124_neutraal
 -------------------------------
 Charge =  0 Multiplicity = 1

 SCF Done:  E(RB3LYP) =  -623.709180455     A.U. after    1 cycles

  Exact polarizability: 197.172  -9.608 105.805   0.696  -0.492  49.031
 Approx polarizability: 339.120 -48.026 200.166   0.538  -3.735  78.588

                      1                      2                      3
                      A                      A                      A
 Frequencies --     66.6883                75.7679               127.8589
 Red. masses --      7.3573                 6.9246                 5.5121
 Frc consts  --      0.0193                 0.0234                 0.0531
 IR Inten    --      0.5367                 0.4729                 2.1778

                      4                      5                      6
                      A                      A                      A
 Frequencies --    156.3598               212.3000               302.7663
 Red. masses --      4.8687                 4.7023                 3.7051
 Frc consts  --      0.0701                 0.1249                 0.2001
 IR Inten    --      5.4728                 0.8577                 4.1813

                      7                      8                      9
                      A                      A                      A
 Frequencies --    320.3603               349.7572               356.9410
 Red. masses --      5.5410                 6.1352                 4.0551
 Frc consts  --      0.3351                 0.4422                 0.3044
 IR Inten    --      3.2848                11.3958                 4.1318

                     10                     11                     12
                      A                      A                      A
 Frequencies --    443.3922               447.6175               476.1436
 Red. masses --      3.9654                 4.6311                 6.9731
 Frc consts  --      0.4593                 0.5467                 0.9314
 IR Inten    --     38.6632                11.0037                 9.9767

                     13                     14                     15
                      A                      A                      A
 Frequencies --    560.3131               605.9190               613.6824
 Red. masses --      5.1698                 1.8074                 3.4919
 Frc consts  --      0.9563                 0.3910                 0.7748
 IR Inten    --     11.3203                51.9203                19.4924

                     16                     17                     18
                      A                      A                      A
 Frequencies --    632.3909               682.3310               725.7866
 Red. masses --      1.8013                 4.3252                 1.9456
 Frc consts  --      0.4244                 1.1864                 0.6038
 IR Inten    --     39.0294                69.7801                45.4581

                     19                     20                     21
                      A                      A                      A
 Frequencies --    748.6039               766.1553               772.0928
 Red. masses --      3.2332                 4.8020                 3.0396
 Frc consts  --      1.0676                 1.6608                 1.0676
 IR Inten    --     70.3911                33.1997                41.9404

                     22                     23                     24
                      A                      A                      A
 Frequencies --    814.2100               865.6688               881.7944
 Red. masses --      1.6773                 2.4822                 1.5075
 Frc consts  --      0.6552                 1.0959                 0.6906
 IR Inten    --     61.6011                63.8251                30.5515

                     25                     26                     27
                      A                      A                      A
 Frequencies --    888.7527               942.1242               961.7736
 Red. masses --      2.6006                 2.2819                 1.2937
 Frc consts  --      1.2103                 1.1933                 0.7051
 IR Inten    --      3.3665                31.5441                 2.3768

                     28                     29                     30
                      A                      A                      A
 Frequencies --    975.8504               994.8896              1068.8270
 Red. masses --      2.9240                 3.0612                 4.0343
 Frc consts  --      1.6406                 1.7852                 2.7154
 IR Inten    --     15.6481                 0.3439                29.2279

                     31                     32                     33
                      A                      A                      A
 Frequencies --   1096.0229              1135.4219              1155.0034
 Red. masses --      2.0164                 3.2847                 3.3826
 Frc consts  --      1.4271                 2.4950                 2.6587
 IR Inten    --     13.2177                71.6316                52.1776

                     34                     35                     36
                      A                      A                      A
 Frequencies --   1199.5528              1233.7670              1261.8781
 Red. masses --      1.7707                 1.9741                 1.7124
 Frc consts  --      1.5011                 1.7705                 1.6066
 IR Inten    --    413.6598                43.1982                24.3830

                     37                     38                     39
                      A                      A                      A
 Frequencies --   1340.1849              1365.3792              1401.1514
 Red. masses --      2.6529                 1.4138                 1.5975
 Frc consts  --      2.8074                 1.5529                 1.8478
 IR Inten    --      7.3449                 0.2039               131.9369

                     40                     41                     42
                      A                      A                      A
 Frequencies --   1422.7751              1430.0710              1443.4620
 Red. masses --      1.6849                 1.8025                 1.5268
 Frc consts  --      2.0095                 2.1719                 1.8743
 IR Inten    --     83.0423                31.6133                29.9623

                     43                     44                     45
                      A                      A                      A
 Frequencies --   1640.5159              1658.8520              1674.9211
 Red. masses --      7.4257                 7.7554                 8.8377
 Frc consts  --     11.7746                12.5739                14.6075
 IR Inten    --     96.1490                14.7420                62.8944

                     46                     47                     48
                      A                      A                      A
 Frequencies --   1717.8160              1827.3279              3118.0232
 Red. masses --      6.2034                10.0103                 1.0869
 Frc consts  --     10.7853                19.6939                 6.2259
 IR Inten    --     12.0311               380.2153                45.7450

                     49                     50                     51
                      A                      A                      A
 Frequencies --   3189.4158              3194.7587              3208.5702
 Red. masses --      1.0854                 1.0887                 1.0974
 Frc consts  --      6.5050                 6.5470                 6.6566
 IR Inten    --      3.1701                11.6037                16.1539

                     52                     53                     54
                      A                      A                      A
 Frequencies --   3285.3149              3468.1179              3697.4877
 Red. masses --      1.0971                 1.0765                 1.0642
 Frc consts  --      6.9767                 7.6287                 8.5720
 IR Inten    --      1.2192                 9.0074               105.0208

 - Thermochemistry -
 -------------------
 Temperature   298.150 Kelvin.  Pressure   1.00000 Atm.
 Atom     1 has atomic number  6 and mass  12.00000

 Molecular mass:   177.05383 amu.
 Principal axes and moments of inertia in atomic units:
                           1         2         3
     Eigenvalues --   755.399543852.712894476.84680
           X            0.99999   0.00228   0.00442
           Y           -0.00229   1.00000   0.00197
           Z           -0.00441  -0.00198   0.99999
 This molecule is an asymmetric top.
 Rotational symmetry number  1.
 Warning -- assumption of classical behavior for rotation
           may cause significant error
 Rotational temperatures (Kelvin)      0.11466     0.02248     0.01935
 Rotational constants (GHZ):           2.38912     0.46843     0.40313
 Zero-point vibrational energy     388803.7 (Joules/Mol)
                                   92.92632 (Kcal/Mol)
 Warning -- explicit consideration of  15 degrees of freedom as
           vibrations may cause significant error
 Vibrational temperatures:     95.95   109.01   183.96   224.97   305.45
          (Kelvin)            435.61   460.93   503.22   513.56   637.94
                              644.02   685.06   806.17   871.78   882.95
                              909.87   981.72  1044.24  1077.07  1102.33
                             1110.87  1171.47  1245.50  1268.71  1278.72
                             1355.51  1383.78  1404.03  1431.42  1537.80
                             1576.93  1633.62  1661.79  1725.89  1775.12
                             1815.56  1928.23  1964.48  2015.94  2047.06
                             2057.55  2076.82  2360.34  2386.72  2409.84
                             2471.55  2629.12  4486.14  4588.86  4596.55
                             4616.42  4726.84  4989.85  5319.86

 Zero-point correction=                           0.148088 (Hartree/Particle)
 Thermal correction to Energy=                    0.158405
 Thermal correction to Enthalpy=                  0.159349
 Thermal correction to Gibbs Free Energy=         0.111726
 Sum of electronic and zero-point Energies=           -623.561093
 Sum of electronic and thermal Energies=              -623.550776
 Sum of electronic and thermal Enthalpies=            -623.549831
 Sum of electronic and thermal Free Energies=         -623.597455

                     E (Thermal)             CV                S
                      KCal/Mol        Cal/Mol-Kelvin    Cal/Mol-Kelvin
 Total                   99.401             40.247            100.231
 Electronic               0.000              0.000              0.000
 Translational            0.889              2.981             41.421
 Rotational               0.889              2.981             30.944
 Vibrational             97.623             34.285             27.866
 Vibration     1          0.598              1.970              4.249
 Vibration     2          0.599              1.965              3.998
 Vibration     3          0.611              1.925              2.978
 Vibration     4          0.620              1.896              2.593
 Vibration     5          0.643              1.822              2.024
 Vibration     6          0.694              1.668              1.402
 Vibration     7          0.706              1.635              1.308
 Vibration     8          0.727              1.576              1.167
 Vibration     9          0.732              1.561              1.135
 Vibration    10          0.803              1.375              0.816
 Vibration    11          0.807              1.366              0.803
 Vibration    12          0.833              1.303              0.721
 Vibration    13          0.916              1.117              0.523
 Vibration    14          0.965              1.019              0.440
 Vibration    15          0.973              1.003              0.427

 Optimization completed.
    -- Stationary point found.
 Normal termination of Gaussian 16 at Wed Dec  9 22:29:10 2020.

 ----------------------------------------------------------------------
 # B3LYP/6-311++G(d,p) empiricaldispersion=gd3bj scf=xqc pop=npa geom=c
 heck
 ----------------------------------------------------------------------

 ---------------------------------------
 CID_154465447_JID_3124_Energie_neutraal
 ---------------------------------------
 Structure from the checkpoint file:  "JID_3124.chk"
 Charge =  0 Multiplicity = 1

 SCF Done:  E(RB3LYP) =  -623.892282740     A.U. after   17 cycles
 Normal termination of Gaussian 16 at Wed Dec  9 22:31:15 2020.

 ----------------------------------------------------------------------
 # B3LYP/6-311++G(d,p) empiricaldispersion=gd3bj scf=xqc pop=npa geom=c
 heck
 ----------------------------------------------------------------------

 -------------------------------------
 CID_154465447_JID_3124_Energie_kation
 -------------------------------------
 Structure from the checkpoint file:  "JID_3124.chk"
 Charge =  1 Multiplicity = 2

 SCF Done:  E(UB3LYP) =  -623.629316131     A.U. after   24 cycles
 Normal termination of Gaussian 16 at Wed Dec  9 22:34:56 2020.
 Gaussian 16:  ES64L-G16RevA.03 25-Dec-2016

 ----------------------------------------------------------------------
 # B3LYP/6-311++G(d,p) empiricaldispersion=gd3bj scf=xqc pop=npa geom=c
 heck
 ----------------------------------------------------------------------

 ------------------------------------
 CID_154465447_JID_3124_Energie_anion
 ------------------------------------
 Structure from the checkpoint file:  "JID_3124.chk"
 Charge = -1 Multiplicity = 2

                         Standard orientation:
 ---------------------------------------------------------------------
 Center     Atomic      Atomic             Coordinates (Angstroms)
 Number     Number       Type             X           Y           Z
 ---------------------------------------------------------------------
      1          6           0       -2.812535   -1.190157   -0.519328
      2          6           0       -1.498325   -1.432064   -0.400500
      3          7           0       -0.634768   -0.627342    0.385644
      4          6           0       -0.684236    0.783260    0.053641
      5          6           0       -1.825633    1.513103    0.013762
      6          7           0       -3.104143    1.105267    0.382768
      7          6           0       -3.520248   -0.090552    0.153883
      8          6           0        0.669782    1.198493   -0.186801
      9          6           0        1.477325    0.127530   -0.005540
     10          7           0        0.743771   -1.048004    0.262442
     11          6           0        2.944676    0.125827   -0.067222
     12          8           0        3.629404    1.080344   -0.370631
     13          8           0        3.458419   -1.079781    0.291125
     14          1           0       -3.411619   -1.896707   -1.086572
     15          1           0       -1.007459   -2.276715   -0.876633
     16          1           0       -1.740081    2.565773   -0.240825
     17          1           0       -4.541490   -0.308994    0.477419
     18          1           0        0.992650    2.190460   -0.467680
     19          1           0        1.038609   -1.515016    1.120153
     20          1           0        4.427947   -0.985390    0.242843
 ---------------------------------------------------------------------

 SCF Done:  E(UB3LYP) =  -623.927963119     A.U. after   24 cycles

 The electronic state is 2-A.
 Alpha  occ. eigenvalues --  -19.03828 -18.96081 -14.22485 -14.21526 -14.15374
 Alpha  occ. eigenvalues --  -10.14886 -10.06757 -10.06303 -10.05776 -10.05102
 Alpha  occ. eigenvalues --  -10.03217 -10.02886 -10.02722  -0.97236  -0.88516
 Alpha  occ. eigenvalues --   -0.87827  -0.77613  -0.71556  -0.66336  -0.62498
 Alpha  occ. eigenvalues --   -0.55682  -0.54655  -0.50276  -0.44581  -0.42198
 Alpha  occ. eigenvalues --   -0.41372  -0.39312  -0.36083  -0.34964  -0.32674
 Alpha  occ. eigenvalues --   -0.31338  -0.30597  -0.29796  -0.29418  -0.27297
 Alpha  occ. eigenvalues --   -0.26357  -0.25946  -0.24279  -0.20229  -0.19701
 Alpha  occ. eigenvalues --   -0.17585  -0.15509  -0.14656  -0.11686  -0.10604
 Alpha  occ. eigenvalues --   -0.03628   0.02457
 Alpha virt. eigenvalues --    0.08558   0.09372   0.09786   0.11163   0.11325
 Alpha virt. eigenvalues --    0.11880   0.13402   0.13742   0.15646   0.16321
 Alpha virt. eigenvalues --    0.16562   0.17306   0.17637   0.18391   0.19007

  Beta  occ. eigenvalues --  -19.03759 -18.95779 -14.22502 -14.21460 -14.15365
  Beta  occ. eigenvalues --  -10.14668 -10.06512 -10.06248 -10.05538 -10.04787
  Beta  occ. eigenvalues --  -10.03051 -10.02935 -10.02595  -0.96953  -0.88377
  Beta  occ. eigenvalues --   -0.87374  -0.77329  -0.71247  -0.65986  -0.62108
  Beta  occ. eigenvalues --   -0.55335  -0.54107  -0.49882  -0.44297  -0.41937
  Beta  occ. eigenvalues --   -0.41104  -0.39048  -0.35793  -0.34715  -0.32082
  Beta  occ. eigenvalues --   -0.30741  -0.30317  -0.29390  -0.29212  -0.27051
  Beta  occ. eigenvalues --   -0.26079  -0.25510  -0.23958  -0.19463  -0.18629
  Beta  occ. eigenvalues --   -0.16550  -0.14697  -0.14254  -0.11184  -0.09944
  Beta  occ. eigenvalues --   -0.02777
  Beta virt. eigenvalues --    0.08012   0.08559   0.09353   0.10993   0.11291
  Beta virt. eigenvalues --    0.11739   0.11973   0.13414   0.13765   0.15724
  Beta virt. eigenvalues --    0.16446   0.16785   0.17461   0.17717   0.18505

 Mulliken charges and spin densities:
               1          2
     1  C   -0.092682   0.016440
     2  C   -0.175920   0.129968
     3  N    0.274349  -0.024600
     4  C    0.148026   0.041052
     5  C   -0.762746   0.130010
     6  N   -0.079090  -0.001520
     7  C   -0.399716   0.221894
     8  C    0.010568   0.105851
     9  C   -0.013444   0.103947
    10  N   -0.273075   0.037419
    11  C   -0.176591   0.151839
    12  O   -0.417137   0.104325
    13  O   -0.239343   0.013302
    14  H    0.128011   0.008563
    15  H    0.113292  -0.014757
    16  H    0.120245  -0.003931
    17  H    0.115819  -0.016399
    18  H    0.164414  -0.006169
    19  H    0.271621   0.003637
    20  H    0.283398  -0.000871
 Sum of Mulliken charges =  -1.00000   1.00000

 Dipole moment (field-independent basis, Debye):
    X=              1.8055    Y=             -3.3259    Z=              0.2964  Tot=              3.7960
 Quadrupole moment (field-independent basis, Debye-Ang):
   XX=           -118.9707   YY=            -87.2413   ZZ=            -82.8760
   XY=             -1.7671   XZ=              6.9158   YZ=             -1.2658

 Summary of Natural Population Analysis:

                                       Natural Population
                Natural  -----------------------------------------------
    Atom  No    Charge         Core      Valence    Rydberg      Total
 -----------------------------------------------------------------------
      C    1   -0.18917      0.99954     2.17982    0.00980     3.18917
      C    2    0.07959      0.99951     1.90719    0.01371     2.92041
      N    3   -0.18352      0.99965     2.66789    0.01597     3.68352
      C    4    0.06842      0.99949     1.91962    0.01247     2.93158
      C    5   -0.01113      0.99946     1.99706    0.01460     3.01113
      N    6   -0.24494      0.99968     2.73143    0.01382     3.74494
      C    7    0.10016      0.99963     1.88322    0.01699     2.89984
      C    8   -0.09144      0.99945     2.08350    0.00848     3.09144
      C    9    0.06802      0.99945     1.92019    0.01234     2.93198
      N   10   -0.21513      0.99970     2.70383    0.01160     3.71513
      C   11    0.40782      0.99965     1.56848    0.02405     2.59218
      O   12   -0.29607      0.99987     3.28848    0.00771     4.29607
      O   13   -0.35323      0.99988     3.34667    0.00669     4.35323
      H   14    0.09682      0.00000     0.40204    0.00114     0.40318
      H   15    0.08880      0.00000     0.40815    0.00305     0.41120
      H   16    0.08677      0.00000     0.41177    0.00146     0.41323
      H   17    0.06781      0.00000     0.43028    0.00191     0.43219
      H   18    0.10892      0.00000     0.39009    0.00100     0.39108
      H   19    0.18028      0.00000     0.31784    0.00188     0.31972
      H   20    0.23122      0.00000     0.26556    0.00323     0.26878
 =======================================================================
   * Total *    0.00000     12.99497    32.82312    0.18190    46.00000

 Normal termination of Gaussian 16 at Wed Dec  9 22:38:50 2020.
