 Gaussian 16, Revision A.03,

 -----------------------------------------------------------
 # opt freq B3LYP/6-31G(d) empiricaldispersion=gd3bj scf=xqc
 -----------------------------------------------------------

 ------------------------------
 CID_82364821_JID_2387_neutraal
 ------------------------------
 Symbolic Z-matrix:
 Charge =  0 Multiplicity = 1

 SCF Done:  E(RB3LYP) =  -539.783201192     A.U. after   14 cycles
 SCF Done:  E(RB3LYP) =  -539.786098038     A.U. after   11 cycles
 SCF Done:  E(RB3LYP) =  -539.786363304     A.U. after   11 cycles
 SCF Done:  E(RB3LYP) =  -539.786412544     A.U. after   11 cycles
 SCF Done:  E(RB3LYP) =  -539.786473291     A.U. after   10 cycles
 SCF Done:  E(RB3LYP) =  -539.786535281     A.U. after   11 cycles
 SCF Done:  E(RB3LYP) =  -539.786642347     A.U. after   12 cycles
 SCF Done:  E(RB3LYP) =  -539.786609459     A.U. after   12 cycles
 SCF Done:  E(RB3LYP) =  -539.786958843     A.U. after   11 cycles
 SCF Done:  E(RB3LYP) =  -539.786514131     A.U. after   14 cycles
 SCF Done:  E(RB3LYP) =  -539.789135785     A.U. after    9 cycles
 SCF Done:  E(RB3LYP) =  -539.789137607     A.U. after    9 cycles
 SCF Done:  E(RB3LYP) =  -539.789137340     A.U. after    8 cycles
 SCF Done:  E(RB3LYP) =  -539.789138612     A.U. after    9 cycles
 SCF Done:  E(RB3LYP) =  -539.789138692     A.U. after    7 cycles
 Optimization completed.
    -- Stationary point found.
 Normal termination of Gaussian 16 at Wed Dec  9 17:31:09 2020.

 --------------------------------------------------------------------
 #N Geom=AllCheck Guess=TCheck SCRF=Check GenChk RB3LYP/6-31G(d) Freq
 --------------------------------------------------------------------

 Structure from the checkpoint file:  "JID_2387.chk"
 ------------------------------
 CID_82364821_JID_2387_neutraal
 ------------------------------
 Charge =  0 Multiplicity = 1

 SCF Done:  E(RB3LYP) =  -539.789138692     A.U. after    1 cycles

  Exact polarizability: 121.764  -0.250 118.375   6.416  -3.392  94.796
 Approx polarizability: 159.544  -4.291 155.431  16.725  -8.775 144.220

                      1                      2                      3
                      A                      A                      A
 Frequencies --     32.2614                42.0366                47.1453
 Red. masses --      3.5197                 3.1422                 4.6816
 Frc consts  --      0.0022                 0.0033                 0.0061
 IR Inten    --      0.6788                 0.4976                 1.6612

                      4                      5                      6
                      A                      A                      A
 Frequencies --     59.8759                85.2106               122.3136
 Red. masses --      3.8558                 2.9579                 3.0609
 Frc consts  --      0.0081                 0.0127                 0.0270
 IR Inten    --      1.0169                 0.3489                 1.0019

                      7                      8                      9
                      A                      A                      A
 Frequencies --    157.7081               166.6232               193.4679
 Red. masses --      1.7162                 1.1716                 2.3867
 Frc consts  --      0.0251                 0.0192                 0.0526
 IR Inten    --      0.3171                 0.8709                 0.1478

                     10                     11                     12
                      A                      A                      A
 Frequencies --    221.6760               260.5965               269.6642
 Red. masses --      2.3979                 1.6500                 2.0856
 Frc consts  --      0.0694                 0.0660                 0.0894
 IR Inten    --      1.8015                 0.3329                 1.1295

                     13                     14                     15
                      A                      A                      A
 Frequencies --    289.0299               315.0517               367.7189
 Red. masses --      2.1429                 2.0788                 1.9944
 Frc consts  --      0.1055                 0.1216                 0.1589
 IR Inten    --      3.5871                 4.9677                 1.1680

                     16                     17                     18
                      A                      A                      A
 Frequencies --    416.0758               482.7207               512.1744
 Red. masses --      2.0627                 2.2755                 2.5230
 Frc consts  --      0.2104                 0.3124                 0.3899
 IR Inten    --      0.4293                 3.6771                 6.3206

                     19                     20                     21
                      A                      A                      A
 Frequencies --    536.6636               553.7592               598.5178
 Red. masses --      2.1473                 2.5933                 2.6694
 Frc consts  --      0.3644                 0.4685                 0.5634
 IR Inten    --     21.0191                 7.7744                 9.1449

                     22                     23                     24
                      A                      A                      A
 Frequencies --    651.3148               720.9188               753.3299
 Red. masses --      1.5522                 1.3665                 1.2256
 Frc consts  --      0.3880                 0.4184                 0.4098
 IR Inten    --     97.5409                68.8075                 2.5950

                     25                     26                     27
                      A                      A                      A
 Frequencies --    775.3287               822.2198               822.9408
 Red. masses --      1.4988                 3.4405                 2.2346
 Frc consts  --      0.5308                 1.3704                 0.8916
 IR Inten    --     10.8652                 2.1397                 0.0690

                     28                     29                     30
                      A                      A                      A
 Frequencies --    865.3360               880.1833               961.7724
 Red. masses --      1.7102                 1.9820                 1.6327
 Frc consts  --      0.7545                 0.9047                 0.8898
 IR Inten    --      2.2792                17.8352                 3.6475

                     31                     32                     33
                      A                      A                      A
 Frequencies --    971.5224               987.8239              1007.8193
 Red. masses --      1.8743                 1.6681                 1.5594
 Frc consts  --      1.0423                 0.9590                 0.9332
 IR Inten    --     11.5409                 5.5884                 1.1570

                     34                     35                     36
                      A                      A                      A
 Frequencies --   1026.1287              1057.2480              1062.9992
 Red. masses --      1.6630                 1.5123                 1.7012
 Frc consts  --      1.0317                 0.9959                 1.1326
 IR Inten    --     16.3043                 0.3303                 3.8934

                     37                     38                     39
                      A                      A                      A
 Frequencies --   1092.4937              1103.1118              1128.0616
 Red. masses --      2.4647                 2.2702                 1.8239
 Frc consts  --      1.7332                 1.6276                 1.3674
 IR Inten    --      5.7288                 4.8791                 2.9651

                     40                     41                     42
                      A                      A                      A
 Frequencies --   1154.3623              1171.5182              1189.7957
 Red. masses --      2.0421                 2.3021                 3.1058
 Frc consts  --      1.6033                 1.8615                 2.5904
 IR Inten    --      6.9585                10.5021                42.4458

                     43                     44                     45
                      A                      A                      A
 Frequencies --   1237.0346              1256.4086              1272.2361
 Red. masses --      1.1950                 1.4649                 1.2880
 Frc consts  --      1.0774                 1.3625                 1.2283
 IR Inten    --      4.0716                20.1952                 6.8465

                     46                     47                     48
                      A                      A                      A
 Frequencies --   1305.2859              1327.8564              1352.9681
 Red. masses --      1.2731                 1.1693                 1.1846
 Frc consts  --      1.2780                 1.2148                 1.2776
 IR Inten    --     12.4113                10.5890                15.5495

                     49                     50                     51
                      A                      A                      A
 Frequencies --   1357.6935              1385.5184              1398.7214
 Red. masses --      1.6608                 1.3670                 1.4012
 Frc consts  --      1.8037                 1.5461                 1.6151
 IR Inten    --     98.1381                 6.6251                16.9383

                     52                     53                     54
                      A                      A                      A
 Frequencies --   1402.0403              1407.1226              1422.2865
 Red. masses --      1.4000                 1.3978                 1.2887
 Frc consts  --      1.6214                 1.6306                 1.5359
 IR Inten    --      6.6723                 0.9112                36.5902

                     55                     56                     57
                      A                      A                      A
 Frequencies --   1430.0266              1432.8266              1443.8364
 Red. masses --      1.5282                 1.3756                 1.2758
 Frc consts  --      1.8412                 1.6639                 1.5670
 IR Inten    --     30.4761                 6.8281                 5.1663

                     58                     59                     60
                      A                      A                      A
 Frequencies --   1495.1028              1499.3748              1503.0065
 Red. masses --      1.6444                 1.0611                 1.1272
 Frc consts  --      2.1657                 1.4055                 1.5003
 IR Inten    --     57.1756                 9.1270                 7.3050

                     61                     62                     63
                      A                      A                      A
 Frequencies --   1506.1418              1510.3530              1513.9919
 Red. masses --      1.0883                 1.1903                 1.0566
 Frc consts  --      1.4546                 1.5998                 1.4270
 IR Inten    --      7.0393                21.9206                11.6304

                     64                     65                     66
                      A                      A                      A
 Frequencies --   1520.7743              1527.9313              1529.4633
 Red. masses --      1.1425                 1.0501                 1.0711
 Frc consts  --      1.5568                 1.4444                 1.4762
 IR Inten    --      6.8739                 2.8093                 8.2356

                     67                     68                     69
                      A                      A                      A
 Frequencies --   1542.2841              1542.9187              1553.3014
 Red. masses --      1.0994                 1.0811                 1.0827
 Frc consts  --      1.5407                 1.5164                 1.5390
 IR Inten    --      8.2087                 4.3542                11.2626

                     70                     71                     72
                      A                      A                      A
 Frequencies --   1797.8154              2942.4832              3012.6862
 Red. masses --      7.7674                 1.0731                 1.0739
 Frc consts  --     14.7917                 5.4740                 5.7426
 IR Inten    --    387.3251                61.5509                41.0302

                     73                     74                     75
                      A                      A                      A
 Frequencies --   3031.1157              3035.9931              3036.2250
 Red. masses --      1.0684                 1.0653                 1.0635
 Frc consts  --      5.7833                 5.7854                 5.7765
 IR Inten    --     14.6250                30.2410                22.8541

                     76                     77                     78
                      A                      A                      A
 Frequencies --   3047.2608              3049.7092              3054.3158
 Red. masses --      1.0368                 1.0665                 1.0827
 Frc consts  --      5.6723                 5.8444                 5.9509
 IR Inten    --     28.5958                42.7103                69.8206

                     79                     80                     81
                      A                      A                      A
 Frequencies --   3061.0189              3067.5849              3077.8741
 Red. masses --      1.0397                 1.0949                 1.0984
 Frc consts  --      5.7395                 6.0703                 6.1307
 IR Inten    --      5.5869                39.1626                 8.3663

                     82                     83                     84
                      A                      A                      A
 Frequencies --   3088.8612              3100.9674              3110.7094
 Red. masses --      1.1005                 1.1006                 1.1017
 Frc consts  --      6.1863                 6.2356                 6.2808
 IR Inten    --     38.8114                48.9182                85.3690

                     85                     86                     87
                      A                      A                      A
 Frequencies --   3115.3688              3120.4156              3129.3238
 Red. masses --      1.1016                 1.1001                 1.0883
 Frc consts  --      6.2996                 6.3112                 6.2790
 IR Inten    --     39.8808                12.0645                20.4898

                     88                     89                     90
                      A                      A                      A
 Frequencies --   3180.5213              3523.5303              3579.9244
 Red. masses --      1.1002                 1.0730                 1.0754
 Frc consts  --      6.5571                 7.8490                 8.1199
 IR Inten    --      8.2295                 0.6434                14.0892

 - Thermochemistry -
 -------------------
 Temperature   298.150 Kelvin.  Pressure   1.00000 Atm.
 Atom     1 has atomic number  6 and mass  12.00000

 Molecular mass:   172.15756 amu.
 Principal axes and moments of inertia in atomic units:
                           1         2         3
     Eigenvalues --  1680.424183262.283454248.68747
           X            0.99950   0.03095  -0.00616
           Y           -0.03090   0.99949   0.00784
           Z            0.00640  -0.00764   0.99995
 This molecule is an asymmetric top.
 Rotational symmetry number  1.
 Warning -- assumption of classical behavior for rotation
           may cause significant error
 Rotational temperatures (Kelvin)      0.05154     0.02655     0.02039
 Rotational constants (GHZ):           1.07398     0.55321     0.42478
 Zero-point vibrational energy     770255.9 (Joules/Mol)
                                  184.09558 (Kcal/Mol)
 Warning -- explicit consideration of  21 degrees of freedom as
           vibrations may cause significant error
 Vibrational temperatures:     46.42    60.48    67.83    86.15   122.60
          (Kelvin)            175.98   226.91   239.73   278.36   318.94
                              374.94   387.99   415.85   453.29   529.07
                              598.64   694.53   736.90   772.14   796.74
                              861.13   937.10  1037.24  1083.87  1115.53
                             1182.99  1184.03  1245.03  1266.39  1383.78
                             1397.80  1421.26  1450.03  1476.37  1521.14
                             1529.42  1571.85  1587.13  1623.03  1660.87
                             1685.55  1711.85  1779.82  1807.69  1830.46
                             1878.02  1910.49  1946.62  1953.42  1993.45
                             2012.45  2017.22  2024.54  2046.35  2057.49
                             2061.52  2077.36  2151.12  2157.27  2162.49
                             2167.00  2173.06  2178.30  2188.05  2198.35
                             2200.56  2219.00  2219.92  2234.85  2586.66
                             4233.58  4334.58  4361.10  4368.12  4368.45
                             4384.33  4387.85  4394.48  4404.12  4413.57
                             4428.37  4444.18  4461.60  4475.62  4482.32
                             4489.58  4502.40  4576.06  5069.57  5150.71

 Zero-point correction=                           0.293375 (Hartree/Particle)
 Thermal correction to Energy=                    0.308039
 Thermal correction to Enthalpy=                  0.308984
 Thermal correction to Gibbs Free Energy=         0.250393
 Sum of electronic and zero-point Energies=           -539.495764
 Sum of electronic and thermal Energies=              -539.481099
 Sum of electronic and thermal Enthalpies=            -539.480155
 Sum of electronic and thermal Free Energies=         -539.538746

                     E (Thermal)             CV                S
                      KCal/Mol        Cal/Mol-Kelvin    Cal/Mol-Kelvin
 Total                  193.298             53.056            123.315
 Electronic               0.000              0.000              0.000
 Translational            0.889              2.981             41.337
 Rotational               0.889              2.981             31.522
 Vibrational            191.520             47.095             50.456
 Vibration     1          0.594              1.983              5.685
 Vibration     2          0.595              1.980              5.161
 Vibration     3          0.595              1.979              4.934
 Vibration     4          0.597              1.973              4.461
 Vibration     5          0.601              1.959              3.767
 Vibration     6          0.610              1.931              3.063
 Vibration     7          0.621              1.894              2.577
 Vibration     8          0.624              1.884              2.473
 Vibration     9          0.635              1.849              2.194
 Vibration    10          0.648              1.808              1.945
 Vibration    11          0.669              1.745              1.658
 Vibration    12          0.674              1.729              1.598
 Vibration    13          0.686              1.694              1.480
 Vibration    14          0.702              1.645              1.336
 Vibration    15          0.740              1.539              1.089
 Vibration    16          0.779              1.435              0.905
 Vibration    17          0.839              1.288              0.703
 Vibration    18          0.867              1.223              0.628
 Vibration    19          0.892              1.169              0.573
 Vibration    20          0.909              1.131              0.536
 Vibration    21          0.957              1.035              0.452

                           ! Non-Optimized Parameters !
 Normal termination of Gaussian 16 at Wed Dec  9 17:39:26 2020.

 ----------------------------------------------------------------------
 # B3LYP/6-311++G(d,p) empiricaldispersion=gd3bj scf=xqc pop=npa geom=c
 heck
 ----------------------------------------------------------------------

 --------------------------------------
 CID_82364821_JID_2387_Energie_neutraal
 --------------------------------------
 Structure from the checkpoint file:  "JID_2387.chk"
 Charge =  0 Multiplicity = 1

 SCF Done:  E(RB3LYP) =  -539.953972502     A.U. after   13 cycles
 Normal termination of Gaussian 16 at Wed Dec  9 17:43:32 2020.

 ----------------------------------------------------------------------
 # B3LYP/6-311++G(d,p) empiricaldispersion=gd3bj scf=xqc pop=npa geom=c
 heck
 ----------------------------------------------------------------------

 ------------------------------------
 CID_82364821_JID_2387_Energie_kation
 ------------------------------------
 Structure from the checkpoint file:  "JID_2387.chk"
 Charge =  1 Multiplicity = 2

 SCF Done:  E(UB3LYP) =  -539.647636073     A.U. after   33 cycles
 SCF Done:  E(UB3LYP) =  -539.648105149     a.u. after   12 cycles
 Normal termination of Gaussian 16 at Wed Dec  9 19:03:27 2020.
 Gaussian 16:  ES64L-G16RevA.03 25-Dec-2016

 ----------------------------------------------------------------------
 # B3LYP/6-311++G(d,p) empiricaldispersion=gd3bj scf=xqc pop=npa geom=c
 heck
 ----------------------------------------------------------------------

 -----------------------------------
 CID_82364821_JID_2387_Energie_anion
 -----------------------------------
 Structure from the checkpoint file:  "JID_2387.chk"
 Charge = -1 Multiplicity = 2

                         Standard orientation:
 ---------------------------------------------------------------------
 Center     Atomic      Atomic             Coordinates (Angstroms)
 Number     Number       Type             X           Y           Z
 ---------------------------------------------------------------------
      1          6           0        2.204849    1.983001    0.943109
      2          6           0        2.573801    1.478602   -0.455563
      3          6           0        3.118454    0.041281   -0.483231
      4          6           0        2.132559   -1.031219   -0.011038
      5          7           0        0.981932   -1.122927   -0.902982
      6          6           0        0.026929   -2.179580   -0.591080
      7          6           0       -0.613568   -2.144866    0.812190
      8          6           0       -1.241208   -0.793104    1.163560
      9          7           0       -2.251250   -0.400033    0.192532
     10          6           0       -2.561861    0.860315   -0.254576
     11          8           0       -3.542833    1.055074   -0.959990
     12          6           0       -1.618167    1.984658    0.146222
     13          1           0        1.406749    1.386140    1.399225
     14          1           0        1.858888    3.021971    0.911033
     15          1           0        3.069529    1.937799    1.616169
     16          1           0        1.704784    1.560926   -1.123511
     17          1           0        3.332352    2.144691   -0.885631
     18          1           0        3.428347   -0.206438   -1.505344
     19          1           0        4.015067   -0.009961    0.149704
     20          1           0        2.634050   -2.007896   -0.026494
     21          1           0        1.864123   -0.844815    1.045745
     22          1           0        0.497150   -0.231060   -0.954601
     23          1           0       -0.763432   -2.132735   -1.347828
     24          1           0        0.533655   -3.144798   -0.721117
     25          1           0       -1.376404   -2.934039    0.871515
     26          1           0        0.130267   -2.381682    1.582608
     27          1           0       -1.662337   -0.832295    2.179448
     28          1           0       -0.463726   -0.026101    1.174997
     29          1           0       -2.952581   -1.089021   -0.054888
     30          1           0       -1.567846    2.101865    1.234443
     31          1           0       -0.598248    1.805986   -0.212545
     32          1           0       -1.993235    2.907066   -0.297420
 ---------------------------------------------------------------------

 SCF Done:  E(UB3LYP) =  -539.943151840     A.U. after   30 cycles

 The electronic state is 2-A.
 Alpha  occ. eigenvalues --  -18.99201 -14.23926 -14.20061 -10.18021 -10.11208
 Alpha  occ. eigenvalues --  -10.09567 -10.09256 -10.08158 -10.07434 -10.07253
 Alpha  occ. eigenvalues --  -10.06969 -10.06281  -0.94322  -0.82997  -0.80985
 Alpha  occ. eigenvalues --   -0.70074  -0.67308  -0.64611  -0.62164  -0.58105
 Alpha  occ. eigenvalues --   -0.54394  -0.50026  -0.48791  -0.47011  -0.40803
 Alpha  occ. eigenvalues --   -0.39906  -0.38401  -0.38024  -0.36611  -0.35619
 Alpha  occ. eigenvalues --   -0.34476  -0.33427  -0.32366  -0.31041  -0.30895
 Alpha  occ. eigenvalues --   -0.30143  -0.29270  -0.28184  -0.28119  -0.26416
 Alpha  occ. eigenvalues --   -0.25537  -0.25202  -0.23699  -0.23218  -0.23127
 Alpha  occ. eigenvalues --   -0.16561  -0.15952  -0.12965   0.04183
 Alpha virt. eigenvalues --    0.06318   0.07054   0.07510   0.08590   0.08990
 Alpha virt. eigenvalues --    0.09350   0.10044   0.10157   0.11141   0.11378
 Alpha virt. eigenvalues --    0.11614   0.12210   0.12656   0.12741   0.13421

  Beta  occ. eigenvalues --  -18.99197 -14.23914 -14.20057 -10.18019 -10.11177
  Beta  occ. eigenvalues --  -10.09556 -10.09234 -10.08132 -10.07422 -10.07221
  Beta  occ. eigenvalues --  -10.06957 -10.06242  -0.94313  -0.82973  -0.80968
  Beta  occ. eigenvalues --   -0.70039  -0.67261  -0.64570  -0.62116  -0.58050
  Beta  occ. eigenvalues --   -0.54326  -0.49970  -0.48749  -0.46952  -0.40756
  Beta  occ. eigenvalues --   -0.39871  -0.38370  -0.37975  -0.36578  -0.35583
  Beta  occ. eigenvalues --   -0.34440  -0.33396  -0.32325  -0.31021  -0.30870
  Beta  occ. eigenvalues --   -0.30102  -0.29224  -0.28144  -0.28084  -0.26384
  Beta  occ. eigenvalues --   -0.25488  -0.25167  -0.23664  -0.23185  -0.23094
  Beta  occ. eigenvalues --   -0.16544  -0.15937  -0.12950
  Beta virt. eigenvalues --    0.06487   0.07339   0.07658   0.08083   0.09158
  Beta virt. eigenvalues --    0.09533   0.09784   0.10325   0.10388   0.11424
  Beta virt. eigenvalues --    0.11722   0.11947   0.12590   0.12918   0.13131

 Mulliken charges and spin densities:
               1          2
     1  C    1.213422  -1.758529
     2  C   -0.802920   0.722455
     3  C    0.630334  -1.107188
     4  C    0.028487  -0.382947
     5  N   -0.033818   0.027755
     6  C   -0.608222   0.206825
     7  C    0.968783  -1.136488
     8  C    0.142293  -0.510894
     9  N   -0.131596  -0.034542
    10  C   -0.052183   0.100585
    11  O   -0.363522   0.011139
    12  C   -0.224255  -0.215888
    13  H   -0.556093   0.679057
    14  H   -0.271939   0.409997
    15  H   -0.253962   0.398002
    16  H   -0.079656   0.213011
    17  H   -0.261263   0.437132
    18  H    0.124579   0.025846
    19  H   -0.154577   0.297279
    20  H   -0.173611   0.332017
    21  H    0.140161  -0.040318
    22  H    0.284668  -0.077353
    23  H    0.023698   0.141715
    24  H   -0.085500   0.240313
    25  H   -0.582576   0.767353
    26  H   -0.309249   0.479188
    27  H   -0.786429   1.008355
    28  H    0.642335  -0.509271
    29  H    0.214864   0.083763
    30  H   -0.145736   0.329840
    31  H    0.492480  -0.342251
    32  H   -0.028998   0.204042
 Sum of Mulliken charges =  -1.00000   1.00000

 Dipole moment (field-independent basis, Debye):
    X=              0.7824    Y=              0.1667    Z=             -3.6899  Tot=              3.7756
 Quadrupole moment (field-independent basis, Debye-Ang):
   XX=           -143.9283   YY=           -128.7842   ZZ=           -121.0172
   XY=             -3.2252   XZ=             -3.5658   YZ=              3.8773

 Summary of Natural Population Analysis:

                                       Natural Population
                Natural  -----------------------------------------------
    Atom  No    Charge         Core      Valence    Rydberg      Total
 -----------------------------------------------------------------------
      C    1   -0.28798      0.99966     2.28260    0.00572     3.28798
      C    2   -0.19263      0.99964     2.18476    0.00823     3.19263
      C    3   -0.19071      0.99962     2.18216    0.00893     3.19071
      C    4   -0.08993      0.99962     2.07937    0.01093     3.08993
      N    5   -0.34230      0.99975     2.83224    0.01031     3.84230
      C    6   -0.08628      0.99963     2.07447    0.01218     3.08628
      C    7   -0.20353      0.99963     2.19467    0.00924     3.20353
      C    8   -0.09260      0.99960     2.08154    0.01146     3.09260
      N    9   -0.32229      0.99967     2.81258    0.01004     3.82229
      C   10    0.34164      0.99969     1.63637    0.02229     2.65836
      O   11   -0.32628      0.99988     3.32075    0.00566     4.32628
      C   12   -0.33432      0.99962     2.32964    0.00506     3.33432
      H   13    0.09447      0.00000     0.40359    0.00194     0.40553
      H   14    0.10021      0.00000     0.39853    0.00126     0.39979
      H   15    0.09860      0.00000     0.40007    0.00132     0.40140
      H   16    0.08915      0.00000     0.40944    0.00142     0.41085
      H   17    0.09699      0.00000     0.40198    0.00103     0.40301
      H   18    0.09797      0.00000     0.40082    0.00122     0.40203
      H   19    0.09651      0.00000     0.40249    0.00100     0.40349
      H   20    0.09311      0.00000     0.40564    0.00125     0.40689
      H   21    0.08044      0.00000     0.41763    0.00193     0.41956
      H   22    0.16976      0.00000     0.32581    0.00443     0.33024
      H   23    0.09393      0.00000     0.40492    0.00114     0.40607
      H   24    0.09253      0.00000     0.40641    0.00107     0.40747
      H   25    0.09993      0.00000     0.39800    0.00206     0.40007
      H   26    0.10437      0.00000     0.39370    0.00193     0.39563
      H   27    0.09775      0.00000     0.39934    0.00291     0.40225
      H   28    0.09779      0.00000     0.39912    0.00309     0.40221
      H   29    0.19297      0.00000     0.30483    0.00220     0.30703
      H   30    0.11190      0.00000     0.38699    0.00110     0.38810
      H   31    0.10614      0.00000     0.39233    0.00153     0.39386
      H   32    0.11268      0.00000     0.38652    0.00080     0.38732
 =======================================================================
   * Total *   -0.00000     11.99601    35.84932    0.15468    48.00000

 Normal termination of Gaussian 16 at Wed Dec  9 19:11:59 2020.
