 Gaussian 16, Revision A.03,

 -----------------------------------------------------------
 # opt freq B3LYP/6-31G(d) empiricaldispersion=gd3bj scf=xqc
 -----------------------------------------------------------

 -------------------------------
 CID_154515274_JID_3216_neutraal
 -------------------------------
 Symbolic Z-matrix:
 Charge =  0 Multiplicity = 1

 SCF Done:  E(RB3LYP) =  -930.338323791     A.U. after   16 cycles
 SCF Done:  E(RB3LYP) =  -930.350345039     A.U. after   13 cycles
 SCF Done:  E(RB3LYP) =  -930.354069056     A.U. after   13 cycles
 SCF Done:  E(RB3LYP) =  -930.351153522     A.U. after   13 cycles
 SCF Done:  E(RB3LYP) =  -930.354810627     A.U. after   12 cycles
 SCF Done:  E(RB3LYP) =  -930.356832793     A.U. after    9 cycles
 SCF Done:  E(RB3LYP) =  -930.357210363     A.U. after   11 cycles
 SCF Done:  E(RB3LYP) =  -930.357490696     A.U. after   12 cycles
 SCF Done:  E(RB3LYP) =  -930.358937188     A.U. after   13 cycles
 SCF Done:  E(RB3LYP) =  -930.352141432     A.U. after   14 cycles
 SCF Done:  E(RB3LYP) =  -930.400536258     A.U. after    9 cycles
 SCF Done:  E(RB3LYP) =  -930.400536378     A.U. after    8 cycles
 SCF Done:  E(RB3LYP) =  -930.400536577     A.U. after    8 cycles
 SCF Done:  E(RB3LYP) =  -930.400536747     A.U. after    7 cycles
 SCF Done:  E(RB3LYP) =  -930.400536919     A.U. after    7 cycles
 SCF Done:  E(RB3LYP) =  -930.400537001     A.U. after    7 cycles
 Optimization completed.
    -- Stationary point found.
 Normal termination of Gaussian 16 at Wed Dec  9 23:00:30 2020.

 --------------------------------------------------------------------
 #N Geom=AllCheck Guess=TCheck SCRF=Check GenChk RB3LYP/6-31G(d) Freq
 --------------------------------------------------------------------

 Structure from the checkpoint file:  "JID_3216.chk"
 -------------------------------
 CID_154515274_JID_3216_neutraal
 -------------------------------
 Charge =  0 Multiplicity = 1

 SCF Done:  E(RB3LYP) =  -930.400537001     A.U. after    1 cycles

  Exact polarizability: 159.336   3.028 142.608 -14.532   4.689 120.391
 Approx polarizability: 213.749   4.063 239.163 -36.094  16.492 200.014

                      1                      2                      3
                      A                      A                      A
 Frequencies --     32.3796                40.6812                75.5474
 Red. masses --      3.9643                 3.9965                 3.5698
 Frc consts  --      0.0024                 0.0039                 0.0120
 IR Inten    --      0.0560                 1.4727                 2.3877

                      4                      5                      6
                      A                      A                      A
 Frequencies --     80.8637                99.7567               107.3244
 Red. masses --      2.5075                 3.5441                 2.4127
 Frc consts  --      0.0097                 0.0208                 0.0164
 IR Inten    --      0.4010                 1.2796                 1.8160

                      7                      8                      9
                      A                      A                      A
 Frequencies --    117.8586               125.3190               153.0241
 Red. masses --      1.0842                 1.8773                 2.0971
 Frc consts  --      0.0089                 0.0174                 0.0289
 IR Inten    --      0.1028                 2.3070                 1.2298

                     10                     11                     12
                      A                      A                      A
 Frequencies --    168.3824               188.3178               200.7632
 Red. masses --      1.3674                 3.8878                 3.2482
 Frc consts  --      0.0228                 0.0812                 0.0771
 IR Inten    --      0.0535                 5.2381                 4.6247

                     13                     14                     15
                      A                      A                      A
 Frequencies --    216.5105               254.5600               284.0121
 Red. masses --      3.4830                 3.3132                 3.5010
 Frc consts  --      0.0962                 0.1265                 0.1664
 IR Inten    --      1.3332                 1.5152                 2.1834

                     16                     17                     18
                      A                      A                      A
 Frequencies --    301.8509               346.4858               361.9948
 Red. masses --      3.2562                 3.0606                 3.5442
 Frc consts  --      0.1748                 0.2165                 0.2736
 IR Inten    --      2.4186                 4.8266                 0.3060

                     19                     20                     21
                      A                      A                      A
 Frequencies --    440.2763               490.0030               521.0482
 Red. masses --      2.8386                 8.4279                 3.3836
 Frc consts  --      0.3242                 1.1923                 0.5412
 IR Inten    --      5.7116                 7.2004                15.2511

                     22                     23                     24
                      A                      A                      A
 Frequencies --    561.5202               620.2312               642.7056
 Red. masses --      3.1853                 3.2732                 6.9688
 Frc consts  --      0.5917                 0.7419                 1.6960
 IR Inten    --      0.8150                 7.1657                 7.1104

                     25                     26                     27
                      A                      A                      A
 Frequencies --    712.2672               754.2166               789.4887
 Red. masses --      6.0778                 3.6276                 3.7952
 Frc consts  --      1.8167                 1.2158                 1.3937
 IR Inten    --      2.9336                26.0747                 1.5541

                     28                     29                     30
                      A                      A                      A
 Frequencies --    800.5762               868.4092               930.9502
 Red. masses --      3.5918                 1.2231                 1.3697
 Frc consts  --      1.3563                 0.5434                 0.6994
 IR Inten    --     11.7548                 7.3960                27.7832

                     31                     32                     33
                      A                      A                      A
 Frequencies --    958.9608               986.2657               996.3407
 Red. masses --      1.1838                 2.1945                 1.1966
 Frc consts  --      0.6414                 1.2577                 0.6998
 IR Inten    --     31.6433                51.6397                 3.4304

                     34                     35                     36
                      A                      A                      A
 Frequencies --   1000.2141              1011.3507              1020.7124
 Red. masses --      1.6391                 1.2984                 1.1061
 Frc consts  --      0.9661                 0.7824                 0.6790
 IR Inten    --     33.4721                16.2669                 9.2347

                     37                     38                     39
                      A                      A                      A
 Frequencies --   1054.4927              1071.9426              1119.9221
 Red. masses --      3.2298                 1.5269                 2.4237
 Frc consts  --      2.1160                 1.0337                 1.7910
 IR Inten    --    129.8156                 1.4584                58.9994

                     40                     41                     42
                      A                      A                      A
 Frequencies --   1129.7424              1151.9322              1209.1452
 Red. masses --      1.7964                 1.3180                 2.3507
 Frc consts  --      1.3509                 1.0305                 2.0249
 IR Inten    --    101.6413                 7.2919                 0.4984

                     43                     44                     45
                      A                      A                      A
 Frequencies --   1290.6203              1336.8335              1377.6700
 Red. masses --      4.3695                 1.2711                 1.3319
 Frc consts  --      4.2882                 1.3384                 1.4894
 IR Inten    --     21.8658                 4.2696                38.3722

                     46                     47                     48
                      A                      A                      A
 Frequencies --   1384.5514              1396.6681              1443.6183
 Red. masses --      1.4904                 3.2159                 1.2428
 Frc consts  --      1.6834                 3.6960                 1.5260
 IR Inten    --      0.9508               162.3484                 6.0821

                     49                     50                     51
                      A                      A                      A
 Frequencies --   1472.7285              1475.8352              1488.4888
 Red. masses --      1.4397                 1.3103                 1.0659
 Frc consts  --      1.8397                 1.6815                 1.3915
 IR Inten    --    128.5398                 5.6292                15.5464

                     52                     53                     54
                      A                      A                      A
 Frequencies --   1502.7821              1509.2099              1511.2842
 Red. masses --      1.2056                 1.0450                 1.1714
 Frc consts  --      1.6042                 1.4024                 1.5763
 IR Inten    --     82.4897                 5.5772                 3.2553

                     55                     56                     57
                      A                      A                      A
 Frequencies --   1516.6309              1517.9551              1529.4457
 Red. masses --      1.0936                 1.0865                 2.7599
 Frc consts  --      1.4821                 1.4750                 3.8037
 IR Inten    --     76.6817                16.8157               400.4323

                     58                     59                     60
                      A                      A                      A
 Frequencies --   1541.4192              1626.1039              1689.6481
 Red. masses --      1.1434                 9.6028                 4.3658
 Frc consts  --      1.6006                14.9605                 7.3436
 IR Inten    --     96.8019               108.8382                 2.6571

                     61                     62                     63
                      A                      A                      A
 Frequencies --   1737.8527              3040.7922              3045.8356
 Red. masses --      5.9462                 1.0406                 1.0473
 Frc consts  --     10.5808                 5.6690                 5.7244
 IR Inten    --      1.7235                31.3380                43.2987

                     64                     65                     66
                      A                      A                      A
 Frequencies --   3083.6560              3084.8399              3130.9065
 Red. masses --      1.0329                 1.0999                 1.0877
 Frc consts  --      5.7869                 6.1671                 6.2822
 IR Inten    --     20.0534                15.8411                11.1121

                     67                     68                     69
                      A                      A                      A
 Frequencies --   3144.7321              3170.5818              3173.0093
 Red. masses --      1.0963                 1.1034                 1.1049
 Frc consts  --      6.3875                 6.5352                 6.5543
 IR Inten    --      9.6755                 5.0985                11.4985

                     70                     71                     72
                      A                      A                      A
 Frequencies --   3177.5560              3179.0380              3195.9634
 Red. masses --      1.0771                 1.0700                 1.0906
 Frc consts  --      6.4073                 6.3715                 6.5630
 IR Inten    --      7.7586                10.4654                15.3080

                     73                     74                     75
                      A                      A                      A
 Frequencies --   3209.5639              3260.0503              3315.4288
 Red. masses --      1.1061                 1.1162                 1.0733
 Frc consts  --      6.7136                 6.9896                 6.9512
 IR Inten    --      3.1480                16.9595                15.8142

 - Thermochemistry -
 -------------------
 Temperature   298.150 Kelvin.  Pressure   1.00000 Atm.
 Atom     1 has atomic number  6 and mass  12.00000

 Molecular mass:   198.09392 amu.
 Principal axes and moments of inertia in atomic units:
                           1         2         3
     Eigenvalues --  1908.092273699.337534386.22921
           X            0.99998  -0.00623   0.00023
           Y            0.00623   0.99998   0.00017
           Z           -0.00023  -0.00017   1.00000
 This molecule is an asymmetric top.
 Rotational symmetry number  1.
 Warning -- assumption of classical behavior for rotation
           may cause significant error
 Rotational temperatures (Kelvin)      0.04539     0.02341     0.01975
 Rotational constants (GHZ):           0.94584     0.48786     0.41146
 Zero-point vibrational energy     577554.9 (Joules/Mol)
                                  138.03894 (Kcal/Mol)
 Warning -- explicit consideration of  23 degrees of freedom as
           vibrations may cause significant error
 Vibrational temperatures:     46.59    58.53   108.70   116.34   143.53
          (Kelvin)            154.42   169.57   180.31   220.17   242.26
                              270.95   288.85   311.51   366.25   408.63
                              434.30   498.52   520.83   633.46   705.01
                              749.67   807.90   892.37   924.71  1024.79
                             1085.15  1135.90  1151.85  1249.45  1339.43
                             1379.73  1419.02  1433.51  1439.09  1455.11
                             1468.58  1517.18  1542.29  1611.32  1625.45
                             1657.37  1739.69  1856.91  1923.41  1982.16
                             1992.06  2009.49  2077.04  2118.93  2123.40
                             2141.60  2162.17  2171.42  2174.40  2182.09
                             2184.00  2200.53  2217.76  2339.60  2431.03
                             2500.38  4375.02  4382.28  4436.69  4438.40
                             4504.68  4524.57  4561.76  4565.25  4571.79
                             4573.93  4598.28  4617.85  4690.49  4770.16

 Zero-point correction=                           0.219979 (Hartree/Particle)
 Thermal correction to Energy=                    0.236035
 Thermal correction to Enthalpy=                  0.236979
 Thermal correction to Gibbs Free Energy=         0.175461
 Sum of electronic and zero-point Energies=           -930.180558
 Sum of electronic and thermal Energies=              -930.164502
 Sum of electronic and thermal Enthalpies=            -930.163558
 Sum of electronic and thermal Free Energies=         -930.225076

                     E (Thermal)             CV                S
                      KCal/Mol        Cal/Mol-Kelvin    Cal/Mol-Kelvin
 Total                  148.114             55.360            129.477
 Electronic               0.000              0.000              0.000
 Translational            0.889              2.981             41.756
 Rotational               0.889              2.981             31.804
 Vibrational            146.337             49.399             55.917
 Vibration     1          0.594              1.983              5.678
 Vibration     2          0.594              1.981              5.226
 Vibration     3          0.599              1.965              4.003
 Vibration     4          0.600              1.962              3.870
 Vibration     5          0.604              1.949              3.459
 Vibration     6          0.606              1.943              3.317
 Vibration     7          0.608              1.934              3.135
 Vibration     8          0.610              1.928              3.017
 Vibration     9          0.619              1.899              2.634
 Vibration    10          0.625              1.881              2.453
 Vibration    11          0.633              1.856              2.244
 Vibration    12          0.638              1.839              2.126
 Vibration    13          0.645              1.816              1.988
 Vibration    14          0.665              1.755              1.699
 Vibration    15          0.682              1.703              1.509
 Vibration    16          0.694              1.670              1.407
 Vibration    17          0.724              1.582              1.182
 Vibration    18          0.736              1.551              1.114
 Vibration    19          0.800              1.382              0.826
 Vibration    20          0.846              1.272              0.684
 Vibration    21          0.876              1.203              0.608
 Vibration    22          0.917              1.115              0.521
 Vibration    23          0.980              0.989              0.416

                           ! Non-Optimized Parameters !
 Normal termination of Gaussian 16 at Wed Dec  9 23:07:51 2020.

 ----------------------------------------------------------------------
 # B3LYP/6-311++G(d,p) empiricaldispersion=gd3bj scf=xqc pop=npa geom=c
 heck
 ----------------------------------------------------------------------

 ---------------------------------------
 CID_154515274_JID_3216_Energie_neutraal
 ---------------------------------------
 Structure from the checkpoint file:  "JID_3216.chk"
 Charge =  0 Multiplicity = 1

 SCF Done:  E(RB3LYP) =  -930.581243090     A.U. after   16 cycles
 Normal termination of Gaussian 16 at Wed Dec  9 23:11:34 2020.

 ----------------------------------------------------------------------
 # B3LYP/6-311++G(d,p) empiricaldispersion=gd3bj scf=xqc pop=npa geom=c
 heck
 ----------------------------------------------------------------------

 -------------------------------------
 CID_154515274_JID_3216_Energie_kation
 -------------------------------------
 Structure from the checkpoint file:  "JID_3216.chk"
 Charge =  1 Multiplicity = 2

 SCF Done:  E(UB3LYP) =  -930.296803861     A.U. after   31 cycles
 Normal termination of Gaussian 16 at Wed Dec  9 23:21:43 2020.
 Gaussian 16:  ES64L-G16RevA.03 25-Dec-2016

 ----------------------------------------------------------------------
 # B3LYP/6-311++G(d,p) empiricaldispersion=gd3bj scf=xqc pop=npa geom=c
 heck
 ----------------------------------------------------------------------

 ------------------------------------
 CID_154515274_JID_3216_Energie_anion
 ------------------------------------
 Structure from the checkpoint file:  "JID_3216.chk"
 Charge = -1 Multiplicity = 2

                         Standard orientation:
 ---------------------------------------------------------------------
 Center     Atomic      Atomic             Coordinates (Angstroms)
 Number     Number       Type             X           Y           Z
 ---------------------------------------------------------------------
      1          6           0       -3.776858    0.965079    1.178460
      2          6           0       -2.461205    0.251926    1.144518
      3          6           0       -1.771323   -0.144365    0.061798
      4          6           0       -2.176514    0.036066   -1.330126
      5          6           0       -1.482306   -0.385504   -2.394749
      6          7           0       -0.534850   -0.866246    0.276395
      7          6           0       -0.632631   -2.319684    0.407267
      8          6           0        0.639982   -0.186840    0.134970
      9          7           0        0.598660    1.117693    0.152824
     10          7           0        1.735879    1.724704   -0.329629
     11          7           0        1.681080    2.971120   -0.175224
     12         16           0        2.081463   -1.240315   -0.076453
     13          6           0        3.425436   -0.310703    0.748592
     14          1           0       -4.223015    1.097856    0.190529
     15          1           0       -3.655197    1.959098    1.628477
     16          1           0       -4.496096    0.420978    1.804537
     17          1           0       -2.002574    0.054025    2.111254
     18          1           0       -3.115295    0.559044   -1.489232
     19          1           0       -1.843023   -0.210720   -3.403027
     20          1           0       -0.528863   -0.895964   -2.298929
     21          1           0       -0.499264   -2.833362   -0.553371
     22          1           0        0.114363   -2.691652    1.110622
     23          1           0       -1.630071   -2.547254    0.785336
     24          1           0        2.558869    3.315236   -0.596223
     25          1           0        3.870520    0.414063    0.070752
     26          1           0        3.036064    0.199210    1.630851
     27          1           0        4.157295   -1.062268    1.056740
 ---------------------------------------------------------------------

 SCF Done:  E(UB3LYP) =  -930.580721610     A.U. after   32 cycles

 The electronic state is 2-A.
 Alpha  occ. eigenvalues --  -88.72309 -14.21266 -14.20725 -14.15974 -14.15770
 Alpha  occ. eigenvalues --  -10.11940 -10.08424 -10.07104 -10.07104 -10.05742
 Alpha  occ. eigenvalues --  -10.04231 -10.03559 -10.02764  -7.80915  -5.77301
 Alpha  occ. eigenvalues --   -5.76915  -5.76338  -0.88627  -0.83853  -0.73655
 Alpha  occ. eigenvalues --   -0.67954  -0.65423  -0.63331  -0.59558  -0.57719
 Alpha  occ. eigenvalues --   -0.52889  -0.49499  -0.47159  -0.43895  -0.38062
 Alpha  occ. eigenvalues --   -0.36116  -0.35922  -0.34083  -0.32046  -0.31248
 Alpha  occ. eigenvalues --   -0.30762  -0.30369  -0.29284  -0.28868  -0.28695
 Alpha  occ. eigenvalues --   -0.28353  -0.26412  -0.25993  -0.25482  -0.22166
 Alpha  occ. eigenvalues --   -0.21418  -0.19824  -0.18737  -0.14010  -0.11538
 Alpha  occ. eigenvalues --   -0.10178  -0.08703  -0.06502   0.05075
 Alpha virt. eigenvalues --    0.07764   0.08112   0.08878   0.09274   0.09674
 Alpha virt. eigenvalues --    0.10838   0.11372   0.11760   0.11883   0.12889
 Alpha virt. eigenvalues --    0.13318   0.13593   0.14097   0.14649   0.15021

  Beta  occ. eigenvalues --  -88.72294 -14.21222 -14.20462 -14.16062 -14.15363
  Beta  occ. eigenvalues --  -10.11693 -10.08423 -10.07076 -10.07061 -10.05758
  Beta  occ. eigenvalues --  -10.04188 -10.03310 -10.02596  -7.80901  -5.77263
  Beta  occ. eigenvalues --   -5.76915  -5.76311  -0.88160  -0.83582  -0.73394
  Beta  occ. eigenvalues --   -0.67691  -0.65285  -0.63060  -0.59373  -0.57516
  Beta  occ. eigenvalues --   -0.52747  -0.49076  -0.46715  -0.43664  -0.37901
  Beta  occ. eigenvalues --   -0.35958  -0.35734  -0.33848  -0.31902  -0.31031
  Beta  occ. eigenvalues --   -0.30634  -0.30146  -0.29134  -0.28730  -0.28601
  Beta  occ. eigenvalues --   -0.28086  -0.26010  -0.25719  -0.24930  -0.21980
  Beta  occ. eigenvalues --   -0.21057  -0.18828  -0.18072  -0.13741  -0.11305
  Beta  occ. eigenvalues --   -0.09133  -0.07963  -0.06179
  Beta virt. eigenvalues --    0.07833   0.08181   0.08956   0.09570   0.09867
  Beta virt. eigenvalues --    0.10736   0.11244   0.11359   0.11714   0.11876
  Beta virt. eigenvalues --    0.12942   0.13348   0.13535   0.14182   0.14710

 Mulliken charges and spin densities:
               1          2
     1  C   -0.715765  -0.025849
     2  C    0.353208   0.183575
     3  C   -0.204889   0.052160
     4  C   -0.258126  -0.032364
     5  C   -0.643948   0.217038
     6  N    0.426105  -0.013208
     7  C   -0.226268  -0.031588
     8  C   -0.336074   0.237450
     9  N    0.026152  -0.067713
    10  N   -0.174342   0.114097
    11  N   -0.354053   0.231986
    12  S   -0.154311  -0.025368
    13  C   -0.159508  -0.402737
    14  H    0.109164   0.008637
    15  H    0.144760   0.004814
    16  H    0.108386   0.017121
    17  H    0.151467  -0.010473
    18  H    0.078140  -0.001818
    19  H    0.117472  -0.007651
    20  H    0.093968  -0.005388
    21  H    0.118098   0.032393
    22  H    0.123848   0.022171
    23  H    0.137593   0.005739
    24  H    0.185819   0.009025
    25  H    0.047658   0.152748
    26  H    0.037643   0.165904
    27  H   -0.032196   0.169299
 Sum of Mulliken charges =  -1.00000   1.00000

 Dipole moment (field-independent basis, Debye):
    X=             -2.4679    Y=             -4.3662    Z=              0.9689  Tot=              5.1081
 Quadrupole moment (field-independent basis, Debye-Ang):
   XX=           -114.7255   YY=           -114.9554   ZZ=           -101.4923
   XY=             -2.9153   XZ=             -2.2068   YZ=             -3.7467

 Summary of Natural Population Analysis:

                                       Natural Population
                Natural  -----------------------------------------------
    Atom  No    Charge         Core      Valence    Rydberg      Total
 -----------------------------------------------------------------------
      C    1   -0.29979      0.99966     2.29591    0.00422     3.29979
      C    2   -0.03098      0.99947     2.02429    0.00722     3.03098
      C    3    0.06832      0.99941     1.91737    0.01490     2.93168
      C    4   -0.10542      0.99952     2.09736    0.00854     3.10542
      C    5   -0.15775      0.99960     2.15022    0.00794     3.15775
      N    6   -0.25172      0.99959     2.73859    0.01353     3.75172
      C    7   -0.17553      0.99964     2.16887    0.00701     3.17553
      C    8    0.20727      0.99954     1.76946    0.02373     2.79273
      N    9   -0.22734      0.99960     2.70714    0.02059     3.72734
      N   10   -0.02594      0.99979     2.49809    0.02807     3.52594
      N   11   -0.14500      0.99978     2.62995    0.01528     3.64500
      S   12    0.09268      4.99954     2.88816    0.01961     7.90732
      C   13   -0.33955      0.99961     2.33345    0.00649     3.33955
      H   14    0.09683      0.00000     0.40229    0.00087     0.40317
      H   15    0.10249      0.00000     0.39647    0.00103     0.39751
      H   16    0.09597      0.00000     0.40291    0.00112     0.40403
      H   17    0.09092      0.00000     0.40778    0.00130     0.40908
      H   18    0.08915      0.00000     0.40930    0.00155     0.41085
      H   19    0.08506      0.00000     0.41413    0.00081     0.41494
      H   20    0.09067      0.00000     0.40837    0.00096     0.40933
      H   21    0.09023      0.00000     0.40880    0.00097     0.40977
      H   22    0.10155      0.00000     0.39743    0.00103     0.39845
      H   23    0.09865      0.00000     0.40061    0.00074     0.40135
      H   24    0.13717      0.00000     0.35975    0.00308     0.36283
      H   25    0.10921      0.00000     0.38853    0.00225     0.39079
      H   26    0.10839      0.00000     0.38916    0.00245     0.39161
      H   27    0.09443      0.00000     0.40386    0.00171     0.40557
 =======================================================================
   * Total *   -0.00000     16.99474    35.80825    0.19700    53.00000

 Normal termination of Gaussian 16 at Wed Dec  9 23:32:07 2020.
