 Gaussian 16, Revision A.03,

 -----------------------------------------------------------
 # opt freq B3LYP/6-31G(d) empiricaldispersion=gd3bj scf=xqc
 -----------------------------------------------------------

 -------------------------------
 CID_129503835_JID_6938_neutraal
 -------------------------------
 Symbolic Z-matrix:
 Charge =  0 Multiplicity = 1

 SCF Done:  E(RB3LYP) =  -669.847552230     A.U. after   14 cycles
 SCF Done:  E(RB3LYP) =  -669.864582291     A.U. after   12 cycles
 SCF Done:  E(RB3LYP) =  -669.866927605     A.U. after   12 cycles
 SCF Done:  E(RB3LYP) =  -669.867321629     A.U. after   12 cycles
 SCF Done:  E(RB3LYP) =  -669.867399748     A.U. after   11 cycles
 SCF Done:  E(RB3LYP) =  -669.867435611     A.U. after   10 cycles
 SCF Done:  E(RB3LYP) =  -669.867447909     A.U. after    9 cycles
 SCF Done:  E(RB3LYP) =  -669.867453200     A.U. after   10 cycles
 SCF Done:  E(RB3LYP) =  -669.867455253     A.U. after    9 cycles
 SCF Done:  E(RB3LYP) =  -669.867456915     A.U. after    8 cycles
 SCF Done:  E(RB3LYP) =  -669.867458088     A.U. after    9 cycles
 SCF Done:  E(RB3LYP) =  -669.867458436     A.U. after    8 cycles
 SCF Done:  E(RB3LYP) =  -669.867458600     A.U. after    8 cycles
 SCF Done:  E(RB3LYP) =  -669.867458669     A.U. after    7 cycles
 Optimization completed.
    -- Stationary point found.
 Normal termination of Gaussian 16 at Fri Dec 11 01:14:10 2020.

 --------------------------------------------------------------------
 #N Geom=AllCheck Guess=TCheck SCRF=Check GenChk RB3LYP/6-31G(d) Freq
 --------------------------------------------------------------------

 Structure from the checkpoint file:  "JID_6938.chk"
 -------------------------------
 CID_129503835_JID_6938_neutraal
 -------------------------------
 Charge =  0 Multiplicity = 1

 SCF Done:  E(RB3LYP) =  -669.867458669     A.U. after    1 cycles

  Exact polarizability: 189.768  -3.314 137.660   1.685 -20.652 106.299
 Approx polarizability: 251.424 -12.529 226.448   1.910 -48.537 169.953

                      1                      2                      3
                      A                      A                      A
 Frequencies --     25.9896                33.6899                58.5161
 Red. masses --      3.7234                 3.0711                 4.6374
 Frc consts  --      0.0015                 0.0021                 0.0094
 IR Inten    --      0.2130                 1.1369                 0.1139

                      4                      5                      6
                      A                      A                      A
 Frequencies --     72.5175                90.1890               100.5789
 Red. masses --      3.4005                 2.9745                 5.2217
 Frc consts  --      0.0105                 0.0143                 0.0311
 IR Inten    --      3.4236                 4.9962                 2.7259

                      7                      8                      9
                      A                      A                      A
 Frequencies --    135.4883               160.0891               206.6229
 Red. masses --      3.8550                 5.3543                 2.9110
 Frc consts  --      0.0417                 0.0809                 0.0732
 IR Inten    --      6.2806                 3.0509                 2.0839

                     10                     11                     12
                      A                      A                      A
 Frequencies --    249.6507               256.3586               272.1897
 Red. masses --      2.4536                 3.5208                 1.4533
 Frc consts  --      0.0901                 0.1363                 0.0634
 IR Inten    --      0.8899                 3.0640                 1.2218

                     13                     14                     15
                      A                      A                      A
 Frequencies --    320.7107               361.4313               396.0213
 Red. masses --      3.3723                 2.7860                 2.0524
 Frc consts  --      0.2044                 0.2144                 0.1897
 IR Inten    --      0.4049                 2.7757                 0.6112

                     16                     17                     18
                      A                      A                      A
 Frequencies --    418.5077               427.2849               441.3377
 Red. masses --      2.9718                 2.3571                 4.2073
 Frc consts  --      0.3067                 0.2536                 0.4828
 IR Inten    --      0.2506                 4.5018                 1.1943

                     19                     20                     21
                      A                      A                      A
 Frequencies --    496.9982               558.9072               587.1155
 Red. masses --      3.7014                 4.3194                 4.5625
 Frc consts  --      0.5387                 0.7950                 0.9266
 IR Inten    --      6.8523                 7.4213                 1.3008

                     22                     23                     24
                      A                      A                      A
 Frequencies --    636.6977               638.6059               693.7001
 Red. masses --      4.6181                 5.7648                 3.8004
 Frc consts  --      1.1030                 1.3852                 1.0775
 IR Inten    --      9.3222                 1.4411                30.0039

                     25                     26                     27
                      A                      A                      A
 Frequencies --    717.0362               726.3397               771.2050
 Red. masses --      1.6406                 4.8373                 1.6712
 Frc consts  --      0.4970                 1.5036                 0.5856
 IR Inten    --     37.4745                 7.1041                59.2518

                     28                     29                     30
                      A                      A                      A
 Frequencies --    779.5388               816.4094               847.7448
 Red. masses --      2.0341                 1.4973                 3.6422
 Frc consts  --      0.7283                 0.5880                 1.5422
 IR Inten    --     33.1961               100.1510                 1.7657

                     31                     32                     33
                      A                      A                      A
 Frequencies --    860.1474               864.5146               888.7208
 Red. masses --      1.2474                 1.2687                 1.6382
 Frc consts  --      0.5437                 0.5587                 0.7623
 IR Inten    --      0.1262                 3.6407                 6.7676

                     34                     35                     36
                      A                      A                      A
 Frequencies --    895.3919               922.6942               958.8635
 Red. masses --      1.9672                 1.4766                 1.9814
 Frc consts  --      0.9292                 0.7407                 1.0733
 IR Inten    --      1.7117                 0.6084                 4.7915

                     37                     38                     39
                      A                      A                      A
 Frequencies --    968.4618               974.6308               993.7726
 Red. masses --      1.3571                 2.2512                 2.4940
 Frc consts  --      0.7499                 1.2599                 1.4512
 IR Inten    --      0.2891                 5.8819                 6.8996

                     40                     41                     42
                      A                      A                      A
 Frequencies --    997.2427              1007.6480              1023.0326
 Red. masses --      1.2885                 3.3079                 6.1548
 Frc consts  --      0.7550                 1.9789                 3.7953
 IR Inten    --      1.5756                 8.1549                 0.5719

                     43                     44                     45
                      A                      A                      A
 Frequencies --   1028.0836              1062.1579              1093.9744
 Red. masses --      3.3483                 2.2186                 1.2785
 Frc consts  --      2.0851                 1.4747                 0.9015
 IR Inten    --      0.5816                 2.5890                 9.3598

                     46                     47                     48
                      A                      A                      A
 Frequencies --   1094.7959              1124.3715              1150.3751
 Red. masses --      1.8485                 1.7880                 2.3155
 Frc consts  --      1.3054                 1.3318                 1.8054
 IR Inten    --      5.4025                 6.4443                17.2654

                     49                     50                     51
                      A                      A                      A
 Frequencies --   1169.9514              1194.5793              1194.7908
 Red. masses --      1.7786                 2.4748                 1.1875
 Frc consts  --      1.4344                 2.0808                 0.9987
 IR Inten    --     32.2506                18.3033                 1.7619

                     52                     53                     54
                      A                      A                      A
 Frequencies --   1206.6666              1218.8077              1241.5793
 Red. masses --      2.2460                 1.1520                 2.7694
 Frc consts  --      1.9268                 1.0082                 2.5153
 IR Inten    --     96.4089                 0.6845                 1.7035

                     55                     56                     57
                      A                      A                      A
 Frequencies --   1256.0749              1269.4294              1296.6296
 Red. masses --      1.3297                 1.3087                 1.3285
 Frc consts  --      1.2361                 1.2425                 1.3160
 IR Inten    --      4.4045                 0.3311                 1.3420

                     58                     59                     60
                      A                      A                      A
 Frequencies --   1302.2868              1339.6663              1358.6855
 Red. masses --      1.8199                 1.4191                 1.5346
 Frc consts  --      1.8185                 1.5006                 1.6691
 IR Inten    --     12.3088                 0.0756                 7.5901

                     61                     62                     63
                      A                      A                      A
 Frequencies --   1367.1038              1376.4975              1397.1262
 Red. masses --      3.7247                 1.2803                 1.4005
 Frc consts  --      4.1015                 1.4292                 1.6107
 IR Inten    --      1.1068                 3.3841                 3.9411

                     64                     65                     66
                      A                      A                      A
 Frequencies --   1408.4639              1436.0076              1503.6956
 Red. masses --      1.1686                 1.2343                 1.8733
 Frc consts  --      1.3659                 1.4996                 2.4957
 IR Inten    --      9.0023                13.2886                 4.1872

                     67                     68                     69
                      A                      A                      A
 Frequencies --   1509.6560              1521.9583              1525.7701
 Red. masses --      1.1974                 1.0826                 1.0721
 Frc consts  --      1.6078                 1.4775                 1.4705
 IR Inten    --      1.2973                 8.2810                 4.9751

                     70                     71                     72
                      A                      A                      A
 Frequencies --   1528.7970              1539.2330              1548.3362
 Red. masses --      1.0548                 1.2449                 1.1136
 Frc consts  --      1.4525                 1.7378                 1.5729
 IR Inten    --     10.8535                36.0317                 2.2415

                     73                     74                     75
                      A                      A                      A
 Frequencies --   1549.6046              1646.8562              1668.6541
 Red. masses --      2.1966                 5.4514                 5.5766
 Frc consts  --      3.1078                 8.7111                 9.1485
 IR Inten    --      8.3367                 1.1625                 3.7868

                     76                     77                     78
                      A                      A                      A
 Frequencies --   2365.5818              3034.1921              3047.5023
 Red. masses --     12.6971                 1.0575                 1.0628
 Frc consts  --     41.8631                 5.7359                 5.8155
 IR Inten    --      3.0516                81.3773                25.6668

                     79                     80                     81
                      A                      A                      A
 Frequencies --   3059.9986              3074.7867              3081.2500
 Red. masses --      1.0609                 1.0467                 1.0958
 Frc consts  --      5.8530                 5.8307                 6.1296
 IR Inten    --     26.0034                12.7863                10.9566

                     82                     83                     84
                      A                      A                      A
 Frequencies --   3096.0673              3110.2008              3112.0094
 Red. masses --      1.0999                 1.1002                 1.0965
 Frc consts  --      6.2117                 6.2706                 6.2566
 IR Inten    --     13.7628                 5.3963                65.1661

                     85                     86                     87
                      A                      A                      A
 Frequencies --   3149.8005              3171.6855              3174.7414
 Red. masses --      1.1006                 1.1038                 1.0871
 Frc consts  --      6.4335                 6.5420                 6.4556
 IR Inten    --     15.3625                14.0311                 9.0453

                     88                     89                     90
                      A                      A                      A
 Frequencies --   3187.6737              3197.1364              3206.5109
 Red. masses --      1.0867                 1.0908                 1.0938
 Frc consts  --      6.5062                 6.5692                 6.6258
 IR Inten    --      1.4265                20.1369                29.3636

                     91                     92                     93
                      A                      A                      A
 Frequencies --   3214.9581              3490.5377              3502.5253
 Red. masses --      1.0974                 1.0740                 1.0757
 Frc consts  --      6.6827                 7.7099                 7.7753
 IR Inten    --     12.4663                 0.3290                 0.8625

 - Thermochemistry -
 -------------------
 Temperature   298.150 Kelvin.  Pressure   1.00000 Atm.
 Atom     1 has atomic number  6 and mass  12.00000

 Molecular mass:   215.14225 amu.
 Principal axes and moments of inertia in atomic units:
                           1         2         3
     Eigenvalues --  1717.947856391.785337247.37801
           X            1.00000  -0.00205   0.00105
           Y            0.00206   0.99984  -0.01791
           Z           -0.00101   0.01791   0.99984
 This molecule is an asymmetric top.
 Rotational symmetry number  1.
 Warning -- assumption of classical behavior for rotation
           may cause significant error
 Rotational temperatures (Kelvin)      0.05042     0.01355     0.01195
 Rotational constants (GHZ):           1.05052     0.28235     0.24902
 Zero-point vibrational energy     742046.1 (Joules/Mol)
                                  177.35327 (Kcal/Mol)
 Warning -- explicit consideration of  21 degrees of freedom as
           vibrations may cause significant error
 Vibrational temperatures:     37.39    48.47    84.19   104.34   129.76
          (Kelvin)            144.71   194.94   230.33   297.28   359.19
                              368.84   391.62   461.43   520.02   569.79
                              602.14   614.77   634.99   715.07   804.14
                              844.73   916.07   918.81   998.08  1031.66
                             1045.04  1109.59  1121.58  1174.63  1219.72
                             1237.56  1243.84  1278.67  1288.27  1327.55
                             1379.59  1393.40  1402.28  1429.82  1434.81
                             1449.78  1471.92  1479.18  1528.21  1573.99
                             1575.17  1617.72  1655.13  1683.30  1718.73
                             1719.04  1736.12  1753.59  1786.36  1807.21
                             1826.43  1865.56  1873.70  1927.48  1954.85
                             1966.96  1980.47  2010.15  2026.47  2066.09
                             2163.48  2172.06  2189.76  2195.24  2199.60
                             2214.61  2227.71  2229.54  2369.46  2400.82
                             3403.54  4365.53  4384.68  4402.66  4423.93
                             4433.23  4454.55  4474.89  4477.49  4531.86
                             4563.35  4567.74  4586.35  4599.97  4613.45
                             4625.61  5022.11  5039.35

 Zero-point correction=                           0.282630 (Hartree/Particle)
 Thermal correction to Energy=                    0.297930
 Thermal correction to Enthalpy=                  0.298874
 Thermal correction to Gibbs Free Energy=         0.238447
 Sum of electronic and zero-point Energies=           -669.584828
 Sum of electronic and thermal Energies=              -669.569529
 Sum of electronic and thermal Enthalpies=            -669.568585
 Sum of electronic and thermal Free Energies=         -669.629012

                     E (Thermal)             CV                S
                      KCal/Mol        Cal/Mol-Kelvin    Cal/Mol-Kelvin
 Total                  186.954             58.209            127.179
 Electronic               0.000              0.000              0.000
 Translational            0.889              2.981             42.002
 Rotational               0.889              2.981             32.742
 Vibrational            185.176             52.248             52.435
 Vibration     1          0.593              1.985              6.114
 Vibration     2          0.594              1.983              5.599
 Vibration     3          0.596              1.974              4.507
 Vibration     4          0.599              1.967              4.084
 Vibration     5          0.602              1.956              3.656
 Vibration     6          0.604              1.949              3.443
 Vibration     7          0.613              1.918              2.867
 Vibration     8          0.622              1.891              2.549
 Vibration     9          0.641              1.830              2.073
 Vibration    10          0.662              1.763              1.733
 Vibration    11          0.666              1.752              1.686
 Vibration    12          0.675              1.725              1.582
 Vibration    13          0.706              1.634              1.306
 Vibration    14          0.736              1.552              1.116
 Vibration    15          0.763              1.479              0.977
 Vibration    16          0.781              1.430              0.897
 Vibration    17          0.789              1.411              0.868
 Vibration    18          0.801              1.380              0.822
 Vibration    19          0.853              1.257              0.666
 Vibration    20          0.914              1.120              0.526
 Vibration    21          0.944              1.059              0.472

 Optimization completed.
    -- Stationary point found.
 Normal termination of Gaussian 16 at Fri Dec 11 01:24:37 2020.

 ----------------------------------------------------------------------
 # B3LYP/6-311++G(d,p) empiricaldispersion=gd3bj scf=xqc pop=npa geom=c
 heck
 ----------------------------------------------------------------------

 ---------------------------------------
 CID_129503835_JID_6938_Energie_neutraal
 ---------------------------------------
 Structure from the checkpoint file:  "JID_6938.chk"
 Charge =  0 Multiplicity = 1

 SCF Done:  E(RB3LYP) =  -670.053503812     A.U. after   15 cycles
 Normal termination of Gaussian 16 at Fri Dec 11 01:28:54 2020.

 ----------------------------------------------------------------------
 # B3LYP/6-311++G(d,p) empiricaldispersion=gd3bj scf=xqc pop=npa geom=c
 heck
 ----------------------------------------------------------------------

 -------------------------------------
 CID_129503835_JID_6938_Energie_kation
 -------------------------------------
 Structure from the checkpoint file:  "JID_6938.chk"
 Charge =  1 Multiplicity = 2

 SCF Done:  E(UB3LYP) =  -669.756028927     A.U. after   29 cycles
 Normal termination of Gaussian 16 at Fri Dec 11 01:40:19 2020.
 Gaussian 16:  ES64L-G16RevA.03 25-Dec-2016

 ----------------------------------------------------------------------
 # B3LYP/6-311++G(d,p) empiricaldispersion=gd3bj scf=xqc pop=npa geom=c
 heck
 ----------------------------------------------------------------------

 ------------------------------------
 CID_129503835_JID_6938_Energie_anion
 ------------------------------------
 Structure from the checkpoint file:  "JID_6938.chk"
 Charge = -1 Multiplicity = 2

                         Standard orientation:
 ---------------------------------------------------------------------
 Center     Atomic      Atomic             Coordinates (Angstroms)
 Number     Number       Type             X           Y           Z
 ---------------------------------------------------------------------
      1          6           0        0.222031    0.449508    1.850429
      2          6           0        0.484430    0.781402    0.370008
      3          6           0       -0.191032   -0.273558   -0.572409
      4          6           0       -1.677415   -0.451118   -0.380844
      5          6           0       -2.170693   -1.484572    0.425693
      6          6           0       -3.540733   -1.638406    0.634566
      7          6           0       -4.440829   -0.757033    0.034582
      8          6           0       -3.961489    0.272993   -0.775933
      9          6           0       -2.591050    0.423060   -0.983875
     10          6           0       -0.101377    2.109910    0.083898
     11          7           0       -0.560488    3.142742   -0.177980
     12          7           0        1.930097    0.930728    0.127430
     13          6           0        2.780105   -0.223713    0.317183
     14          6           0        2.947354   -1.351706   -0.751790
     15          7           0        4.433204   -1.234985   -0.673630
     16          6           0        4.294691    0.020985    0.125320
     17          1           0       -0.844479    0.518394    2.071299
     18          1           0        0.771682    1.146657    2.487150
     19          1           0        0.545064   -0.571174    2.075623
     20          1           0        0.030050    0.017319   -1.605826
     21          1           0        0.319573   -1.223950   -0.387371
     22          1           0       -1.472797   -2.176701    0.891194
     23          1           0       -3.904329   -2.447894    1.261415
     24          1           0       -5.508879   -0.874882    0.193770
     25          1           0       -4.655248    0.961350   -1.250037
     26          1           0       -2.225991    1.230077   -1.611703
     27          1           0        2.080256    1.319851   -0.801968
     28          1           0        2.578636   -0.650853    1.303076
     29          1           0        2.536464   -2.340908   -0.516531
     30          1           0        2.583671   -1.054053   -1.744026
     31          1           0        4.813073   -1.979121   -0.092496
     32          1           0        4.500912    0.902727   -0.494962
     33          1           0        4.908702    0.087267    1.029685
 ---------------------------------------------------------------------

 SCF Done:  E(UB3LYP) =  -670.047335289     A.U. after   33 cycles
 SCF Done:  E(UB3LYP) =  -670.047335289     a.u. after    1 cycles

 The electronic state is 2-A.
 Alpha  occ. eigenvalues --  -14.22830 -14.22699 -14.20033 -10.16869 -10.12403
 Alpha  occ. eigenvalues --  -10.11083 -10.10074 -10.09777 -10.09572 -10.09569
 Alpha  occ. eigenvalues --  -10.08950 -10.08742 -10.08678 -10.08644 -10.08414
 Alpha  occ. eigenvalues --  -10.08228  -0.85862  -0.82975  -0.81077  -0.77373
 Alpha  occ. eigenvalues --   -0.71485  -0.67031  -0.66030  -0.61434  -0.60391
 Alpha  occ. eigenvalues --   -0.58312  -0.54969  -0.52050  -0.50240  -0.48575
 Alpha  occ. eigenvalues --   -0.44493  -0.42626  -0.41173  -0.40119  -0.38305
 Alpha  occ. eigenvalues --   -0.37932  -0.36791  -0.34132  -0.33589  -0.32865
 Alpha  occ. eigenvalues --   -0.31593  -0.31268  -0.30329  -0.30169  -0.28998
 Alpha  occ. eigenvalues --   -0.28547  -0.28149  -0.27492  -0.26702  -0.26222
 Alpha  occ. eigenvalues --   -0.25561  -0.25070  -0.24340  -0.23715  -0.17123
 Alpha  occ. eigenvalues --   -0.16900  -0.14766  -0.13221   0.03900
 Alpha virt. eigenvalues --    0.05851   0.06523   0.06946   0.07260   0.07715
 Alpha virt. eigenvalues --    0.08139   0.08203   0.09372   0.10031   0.10261
 Alpha virt. eigenvalues --    0.10544   0.10704   0.11345   0.11468   0.12101

  Beta  occ. eigenvalues --  -14.22824 -14.22693 -14.20009 -10.16867 -10.12400
  Beta  occ. eigenvalues --  -10.11063 -10.10060 -10.09770 -10.09542 -10.09540
  Beta  occ. eigenvalues --  -10.08947 -10.08717 -10.08661 -10.08635 -10.08389
  Beta  occ. eigenvalues --  -10.08197  -0.85837  -0.82948  -0.81056  -0.77328
  Beta  occ. eigenvalues --   -0.71450  -0.66981  -0.65990  -0.61382  -0.60343
  Beta  occ. eigenvalues --   -0.58249  -0.54921  -0.52012  -0.50183  -0.48513
  Beta  occ. eigenvalues --   -0.44452  -0.42569  -0.41084  -0.40086  -0.38272
  Beta  occ. eigenvalues --   -0.37896  -0.36747  -0.34099  -0.33556  -0.32822
  Beta  occ. eigenvalues --   -0.31559  -0.31232  -0.30295  -0.30133  -0.28953
  Beta  occ. eigenvalues --   -0.28512  -0.28110  -0.27435  -0.26665  -0.26183
  Beta  occ. eigenvalues --   -0.25527  -0.25032  -0.24324  -0.23673  -0.17015
  Beta  occ. eigenvalues --   -0.16841  -0.14718  -0.13188
  Beta virt. eigenvalues --    0.06057   0.06692   0.06973   0.07051   0.07605
  Beta virt. eigenvalues --    0.08120   0.08520   0.08647   0.09670   0.10327
  Beta virt. eigenvalues --    0.10510   0.10733   0.11055   0.11376   0.11765

 Mulliken charges and spin densities:
               1          2
     1  C    0.342879  -0.920909
     2  C   -0.803612   1.065327
     3  C    2.298026  -2.533763
     4  C    0.265778   0.573995
     5  C   -1.499641   1.207004
     6  C    0.582506  -0.965905
     7  C    0.197784  -0.479048
     8  C   -0.446185   0.100498
     9  C   -0.642852   0.448051
    10  C   -0.864758   0.067519
    11  N   -0.223367  -0.012508
    12  N    0.199093  -0.015682
    13  C   -0.381307   0.167532
    14  C    0.933337  -1.384195
    15  N   -0.364795   0.256466
    16  C    0.493706  -0.794364
    17  H    0.306590  -0.134709
    18  H    0.037763   0.144642
    19  H   -0.245815   0.429229
    20  H    0.013282   0.200459
    21  H    0.781315  -0.543431
    22  H   -0.777371   0.949216
    23  H   -0.386995   0.573086
    24  H   -0.123025   0.272778
    25  H    0.026347   0.134533
    26  H    0.090629   0.068348
    27  H    0.248139   0.005403
    28  H   -0.197250   0.371516
    29  H   -0.674580   0.863464
    30  H    0.122379   0.053385
    31  H   -0.112618   0.358664
    32  H    0.100785   0.013014
    33  H   -0.296166   0.460384
 Sum of Mulliken charges =  -1.00000   1.00000

 Dipole moment (field-independent basis, Debye):
    X=             -3.2337    Y=              4.8599    Z=             -2.9124  Tot=              6.5236
 Quadrupole moment (field-independent basis, Debye-Ang):
   XX=           -178.4270   YY=           -156.8610   ZZ=           -127.6528
   XY=             10.8081   XZ=             -1.3053   YZ=              5.7751

 Summary of Natural Population Analysis:

                                       Natural Population
                Natural  -----------------------------------------------
    Atom  No    Charge         Core      Valence    Rydberg      Total
 -----------------------------------------------------------------------
      C    1   -0.28535      0.99963     2.27843    0.00729     3.28535
      C    2    0.02099      0.99949     1.96748    0.01203     2.97901
      C    3   -0.19903      0.99957     2.18823    0.01124     3.19903
      C    4   -0.02016      0.99950     2.00983    0.01083     3.02016
      C    5   -0.09512      0.99951     2.08545    0.01016     3.09512
      C    6   -0.09895      0.99956     2.08935    0.01004     3.09895
      C    7   -0.10140      0.99956     2.09175    0.01009     3.10140
      C    8   -0.10079      0.99956     2.09205    0.00918     3.10079
      C    9   -0.09843      0.99951     2.08968    0.00924     3.09843
      C   10    0.16711      0.99961     1.81134    0.02194     2.83289
      N   11   -0.18172      0.99979     2.67118    0.01075     3.68172
      N   12   -0.33223      0.99970     2.82100    0.01153     3.83223
      C   13   -0.03048      0.99958     2.01597    0.01493     3.03048
      C   14   -0.09405      0.99964     2.08318    0.01123     3.09405
      N   15   -0.34318      0.99978     2.83007    0.01334     3.84318
      C   16   -0.08126      0.99965     2.07005    0.01157     3.08126
      H   17    0.11022      0.00000     0.38850    0.00128     0.38978
      H   18    0.10808      0.00000     0.39067    0.00125     0.39192
      H   19    0.10954      0.00000     0.38878    0.00168     0.39046
      H   20    0.10472      0.00000     0.39387    0.00140     0.39528
      H   21    0.11219      0.00000     0.38534    0.00247     0.38781
      H   22    0.10598      0.00000     0.39152    0.00250     0.39402
      H   23    0.10286      0.00000     0.39596    0.00118     0.39714
      H   24    0.09970      0.00000     0.39950    0.00080     0.40030
      H   25    0.09925      0.00000     0.39999    0.00076     0.40075
      H   26    0.10398      0.00000     0.39457    0.00145     0.39602
      H   27    0.17555      0.00000     0.32169    0.00275     0.32445
      H   28    0.10344      0.00000     0.39273    0.00383     0.39656
      H   29    0.09904      0.00000     0.39775    0.00321     0.40096
      H   30    0.08444      0.00000     0.41406    0.00150     0.41556
      H   31    0.17611      0.00000     0.31951    0.00438     0.32389
      H   32    0.08473      0.00000     0.41389    0.00138     0.41527
      H   33    0.09421      0.00000     0.40430    0.00149     0.40579
 =======================================================================
   * Total *    0.00000     15.99363    41.78765    0.21872    58.00000

 Normal termination of Gaussian 16 at Fri Dec 11 01:53:38 2020.
