 Gaussian 16, Revision A.03,

 -----------------------------------------------------------
 # opt freq B3LYP/6-31G(d) empiricaldispersion=gd3bj scf=xqc
 -----------------------------------------------------------

 ------------------------------
 CID_23349296_JID_4661_neutraal
 ------------------------------
 Symbolic Z-matrix:
 Charge =  0 Multiplicity = 1

 SCF Done:  E(RB3LYP) =  -994.738569062     A.U. after   15 cycles
 SCF Done:  E(RB3LYP) =  -994.734123459     A.U. after   13 cycles
 SCF Done:  E(RB3LYP) =  -994.742660558     A.U. after   12 cycles
 SCF Done:  E(RB3LYP) =  -994.743820492     A.U. after   12 cycles
 SCF Done:  E(RB3LYP) =  -994.744429440     A.U. after   12 cycles
 SCF Done:  E(RB3LYP) =  -994.744815244     A.U. after   12 cycles
 SCF Done:  E(RB3LYP) =  -994.744797127     A.U. after   11 cycles
 SCF Done:  E(RB3LYP) =  -994.744998465     A.U. after   11 cycles
 SCF Done:  E(RB3LYP) =  -994.745047514     A.U. after   11 cycles
 SCF Done:  E(RB3LYP) =  -994.745078168     A.U. after   10 cycles
 SCF Done:  E(RB3LYP) =  -994.745089477     A.U. after   10 cycles
 SCF Done:  E(RB3LYP) =  -994.745094363     A.U. after   10 cycles
 SCF Done:  E(RB3LYP) =  -994.745095668     A.U. after    8 cycles
 SCF Done:  E(RB3LYP) =  -994.745095886     A.U. after    7 cycles
 SCF Done:  E(RB3LYP) =  -994.745095968     A.U. after    7 cycles
 Optimization completed.
    -- Stationary point found.
 Normal termination of Gaussian 16 at Thu Dec 10 10:23:32 2020.

 --------------------------------------------------------------------
 #N Geom=AllCheck Guess=TCheck SCRF=Check GenChk RB3LYP/6-31G(d) Freq
 --------------------------------------------------------------------

 Structure from the checkpoint file:  "JID_4661.chk"
 ------------------------------
 CID_23349296_JID_4661_neutraal
 ------------------------------
 Charge =  0 Multiplicity = 1

 SCF Done:  E(RB3LYP) =  -994.745095968     A.U. after    1 cycles

  Exact polarizability: 134.805  10.334 134.923  11.614  -0.521 118.753
 Approx polarizability: 187.670  17.229 188.347  32.692   0.211 201.689

                      1                      2                      3
                      A                      A                      A
 Frequencies --     28.2616                61.7160                64.7691
 Red. masses --      4.5579                 3.4447                 4.4606
 Frc consts  --      0.0021                 0.0077                 0.0110
 IR Inten    --      0.9920                 1.2786                 0.0072

                      4                      5                      6
                      A                      A                      A
 Frequencies --     84.1716               117.5311               135.8468
 Red. masses --      3.1813                 3.8332                 4.6868
 Frc consts  --      0.0133                 0.0312                 0.0510
 IR Inten    --      0.5893                 0.1330                 3.2038

                      7                      8                      9
                      A                      A                      A
 Frequencies --    171.3268               194.5126               203.4619
 Red. masses --      3.9926                 2.2907                 1.2563
 Frc consts  --      0.0690                 0.0511                 0.0306
 IR Inten    --      0.3757                 0.5776                 2.8043

                     10                     11                     12
                      A                      A                      A
 Frequencies --    217.7246               237.9155               258.4218
 Red. masses --      2.1772                 1.3625                 1.4028
 Frc consts  --      0.0608                 0.0454                 0.0552
 IR Inten    --      0.3039                 3.2400                 0.1378

                     13                     14                     15
                      A                      A                      A
 Frequencies --    291.8645               301.6372               339.0911
 Red. masses --      2.3072                 2.2109                 2.2686
 Frc consts  --      0.1158                 0.1185                 0.1537
 IR Inten    --     11.3395                 5.7542                 8.4219

                     16                     17                     18
                      A                      A                      A
 Frequencies --    353.7313               388.8942               392.5293
 Red. masses --      2.6277                 3.1023                 3.5486
 Frc consts  --      0.1937                 0.2764                 0.3221
 IR Inten    --      7.8825                 9.6229                 3.4507

                     19                     20                     21
                      A                      A                      A
 Frequencies --    454.3577               477.1494               549.2853
 Red. masses --      2.7961                 6.4566                 4.1312
 Frc consts  --      0.3401                 0.8661                 0.7344
 IR Inten    --      0.9040                 1.5159                 1.5969

                     22                     23                     24
                      A                      A                      A
 Frequencies --    556.4649               590.3532               604.1053
 Red. masses --      4.4727                 3.0942                 3.8501
 Frc consts  --      0.8160                 0.6354                 0.8279
 IR Inten    --      3.4025                 8.3030                 6.7862

                     25                     26                     27
                      A                      A                      A
 Frequencies --    682.3707               693.2850               752.1341
 Red. masses --      3.3468                 1.2442                 3.3517
 Frc consts  --      0.9182                 0.3524                 1.1171
 IR Inten    --     10.1285                28.7381                 3.9295

                     28                     29                     30
                      A                      A                      A
 Frequencies --    776.1840               810.1403               817.3424
 Red. masses --      2.8822                 1.5024                 3.6204
 Frc consts  --      1.0231                 0.5810                 1.4250
 IR Inten    --      5.1961                 2.2447                17.1294

                     31                     32                     33
                      A                      A                      A
 Frequencies --    873.9133               884.1411               927.2651
 Red. masses --      2.6000                 2.8898                 2.7882
 Frc consts  --      1.1699                 1.3310                 1.4125
 IR Inten    --      5.0776                 4.5893                 0.8664

                     34                     35                     36
                      A                      A                      A
 Frequencies --    958.0179              1017.8114              1030.9111
 Red. masses --      2.3991                 2.2778                 2.0004
 Frc consts  --      1.2973                 1.3903                 1.2526
 IR Inten    --     29.3902                 4.9537                 5.8335

                     37                     38                     39
                      A                      A                      A
 Frequencies --   1041.4754              1061.8952              1078.1427
 Red. masses --      1.4755                 3.0247                 1.4700
 Frc consts  --      0.9430                 2.0095                 1.0067
 IR Inten    --      2.3967                34.6196                 3.3702

                     40                     41                     42
                      A                      A                      A
 Frequencies --   1110.1925              1134.3350              1159.5415
 Red. masses --      2.3772                 1.9788                 1.7223
 Frc consts  --      1.7263                 1.5001                 1.3644
 IR Inten    --      4.0492                28.2736                12.3314

                     43                     44                     45
                      A                      A                      A
 Frequencies --   1168.7311              1186.2026              1200.6516
 Red. masses --      1.5030                 1.3586                 3.0416
 Frc consts  --      1.2096                 1.1263                 2.5834
 IR Inten    --      4.5107                88.5661                30.8497

                     46                     47                     48
                      A                      A                      A
 Frequencies --   1210.5862              1240.4217              1249.4348
 Red. masses --      1.6767                 1.6446                 2.0714
 Frc consts  --      1.4478                 1.4909                 1.9052
 IR Inten    --      5.6768                59.9515               163.1115

                     49                     50                     51
                      A                      A                      A
 Frequencies --   1263.4153              1289.7319              1344.6163
 Red. masses --      1.3037                 1.5920                 1.1302
 Frc consts  --      1.2261                 1.5602                 1.2040
 IR Inten    --     18.5414                39.7616                 8.5103

                     52                     53                     54
                      A                      A                      A
 Frequencies --   1355.5370              1390.8594              1408.5775
 Red. masses --      1.7697                 1.5942                 1.4844
 Frc consts  --      1.9159                 1.8170                 1.7352
 IR Inten    --     47.9859                62.5050                26.0875

                     55                     56                     57
                      A                      A                      A
 Frequencies --   1417.5806              1426.2561              1443.9308
 Red. masses --      1.4062                 1.4367                 1.3816
 Frc consts  --      1.6649                 1.7219                 1.6972
 IR Inten    --      7.1085                31.9710                 9.6540

                     58                     59                     60
                      A                      A                      A
 Frequencies --   1446.7222              1488.7999              1496.1314
 Red. masses --      1.3852                 1.1741                 1.1053
 Frc consts  --      1.7082                 1.5333                 1.4578
 IR Inten    --     20.5182                 0.9540                15.0979

                     61                     62                     63
                      A                      A                      A
 Frequencies --   1504.7839              1512.7709              1514.5907
 Red. masses --      1.0477                 1.0728                 1.0556
 Frc consts  --      1.3978                 1.4465                 1.4268
 IR Inten    --     10.2807                 4.4725                11.9868

                     64                     65                     66
                      A                      A                      A
 Frequencies --   1518.7754              1520.7597              1530.6905
 Red. masses --      1.0858                 1.0672                 1.0849
 Frc consts  --      1.4757                 1.4542                 1.4977
 IR Inten    --      6.3807                10.6663                14.1585

                     67                     68                     69
                      A                      A                      A
 Frequencies --   1538.4305              1541.0762              1708.4234
 Red. masses --      1.0602                 1.0493                 7.0333
 Frc consts  --      1.4784                 1.4683                12.0949
 IR Inten    --      9.7079                12.7664                33.9181

                     70                     71                     72
                      A                      A                      A
 Frequencies --   1804.2335              2959.1783              2977.8096
 Red. masses --     10.3288                 1.0841                 1.0599
 Frc consts  --     19.8101                 5.5932                 5.5372
 IR Inten    --    156.8266                48.6265               100.6714

                     73                     74                     75
                      A                      A                      A
 Frequencies --   3045.2807              3053.1129              3061.5450
 Red. masses --      1.0401                 1.0686                 1.0364
 Frc consts  --      5.6829                 5.8688                 5.7234
 IR Inten    --     31.3833                14.7302                17.3108

                     76                     77                     78
                      A                      A                      A
 Frequencies --   3069.5468              3092.8688              3097.1540
 Red. masses --      1.0616                 1.0588                 1.0978
 Frc consts  --      5.8934                 5.9676                 6.2044
 IR Inten    --     25.3368                27.5185                20.3920

                     79                     80                     81
                      A                      A                      A
 Frequencies --   3104.5715              3127.5139              3129.8483
 Red. masses --      1.1033                 1.1015                 1.0743
 Frc consts  --      6.2653                 6.3482                 6.2003
 IR Inten    --      8.3232                32.8127                20.6806

                     82                     83                     84
                      A                      A                      A
 Frequencies --   3138.4541              3139.7802              3144.3677
 Red. masses --      1.0934                 1.1043                 1.0992
 Frc consts  --      6.3453                 6.4142                 6.4031
 IR Inten    --      3.0633                13.3169                13.5620

                     85                     86                     87
                      A                      A                      A
 Frequencies --   3159.9214              3170.2541              3273.1431
 Red. masses --      1.1064                 1.1034                 1.0946
 Frc consts  --      6.5089                 6.5339                 6.9094
 IR Inten    --     28.5077                 7.1566                 4.4237

 - Thermochemistry -
 -------------------
 Temperature   298.150 Kelvin.  Pressure   1.00000 Atm.
 Atom     1 has atomic number  6 and mass  12.00000

 Molecular mass:   215.09800 amu.
 Principal axes and moments of inertia in atomic units:
                           1         2         3
     Eigenvalues --  2177.001873663.290354491.88821
           X            0.99964   0.02092  -0.01672
           Y           -0.02097   0.99978  -0.00254
           Z            0.01666   0.00289   0.99986
 This molecule is an asymmetric top.
 Rotational symmetry number  1.
 Warning -- assumption of classical behavior for rotation
           may cause significant error
 Rotational temperatures (Kelvin)      0.03979     0.02364     0.01928
 Rotational constants (GHZ):           0.82900     0.49266     0.40178
 Zero-point vibrational energy     695935.3 (Joules/Mol)
                                  166.33252 (Kcal/Mol)
 Warning -- explicit consideration of  24 degrees of freedom as
           vibrations may cause significant error
 Vibrational temperatures:     40.66    88.80    93.19   121.10   169.10
          (Kelvin)            195.45   246.50   279.86   292.74   313.26
                              342.31   371.81   419.93   433.99   487.88
                              508.94   559.53   564.76   653.72   686.51
                              790.30   800.63   849.39   869.17   981.78
                              997.48  1082.15  1116.76  1165.61  1175.97
                             1257.37  1272.08  1334.13  1378.37  1464.40
                             1483.25  1498.45  1527.83  1551.21  1597.32
                             1632.06  1668.32  1681.54  1706.68  1727.47
                             1741.76  1784.69  1797.66  1817.77  1855.64
                             1934.60  1950.32  2001.14  2026.63  2039.58
                             2052.06  2077.49  2081.51  2142.05  2152.60
                             2165.05  2176.54  2179.16  2185.18  2188.03
                             2202.32  2213.46  2217.26  2458.04  2595.89
                             4257.60  4284.40  4381.48  4392.75  4404.88
                             4416.39  4449.95  4456.11  4466.79  4499.79
                             4503.15  4515.54  4517.44  4524.04  4546.42
                             4561.29  4709.32

 Zero-point correction=                           0.265068 (Hartree/Particle)
 Thermal correction to Energy=                    0.280415
 Thermal correction to Enthalpy=                  0.281359
 Thermal correction to Gibbs Free Energy=         0.222225
 Sum of electronic and zero-point Energies=           -994.480028
 Sum of electronic and thermal Energies=              -994.464681
 Sum of electronic and thermal Enthalpies=            -994.463737
 Sum of electronic and thermal Free Energies=         -994.522871

                     E (Thermal)             CV                S
                      KCal/Mol        Cal/Mol-Kelvin    Cal/Mol-Kelvin
 Total                  175.963             56.974            124.459
 Electronic               0.000              0.000              0.000
 Translational            0.889              2.981             42.001
 Rotational               0.889              2.981             31.949
 Vibrational            174.186             51.013             50.508
 Vibration     1          0.593              1.984              5.948
 Vibration     2          0.597              1.973              4.402
 Vibration     3          0.597              1.971              4.306
 Vibration     4          0.601              1.960              3.791
 Vibration     5          0.608              1.935              3.141
 Vibration     6          0.614              1.918              2.862
 Vibration     7          0.626              1.878              2.421
 Vibration     8          0.635              1.848              2.184
 Vibration     9          0.639              1.835              2.102
 Vibration    10          0.646              1.814              1.978
 Vibration    11          0.656              1.783              1.818
 Vibration    12          0.667              1.749              1.672
 Vibration    13          0.687              1.689              1.463
 Vibration    14          0.694              1.671              1.408
 Vibration    15          0.719              1.597              1.216
 Vibration    16          0.730              1.568              1.150
 Vibration    17          0.757              1.494              1.004
 Vibration    18          0.760              1.486              0.991
 Vibration    19          0.813              1.351              0.783
 Vibration    20          0.834              1.301              0.718
 Vibration    21          0.905              1.141              0.546
 Vibration    22          0.912              1.126              0.531
 Vibration    23          0.948              1.052              0.467
 Vibration    24          0.963              1.023              0.443

 Optimization completed.
    -- Stationary point found.
 Normal termination of Gaussian 16 at Thu Dec 10 10:34:07 2020.

 ----------------------------------------------------------------------
 # B3LYP/6-311++G(d,p) empiricaldispersion=gd3bj scf=xqc pop=npa geom=c
 heck
 ----------------------------------------------------------------------

 --------------------------------------
 CID_23349296_JID_4661_Energie_neutraal
 --------------------------------------
 Structure from the checkpoint file:  "JID_4661.chk"
 Charge =  0 Multiplicity = 1

 SCF Done:  E(RB3LYP) =  -994.941633519     A.U. after   15 cycles
 Normal termination of Gaussian 16 at Thu Dec 10 10:38:47 2020.

 ----------------------------------------------------------------------
 # B3LYP/6-311++G(d,p) empiricaldispersion=gd3bj scf=xqc pop=npa geom=c
 heck
 ----------------------------------------------------------------------

 ------------------------------------
 CID_23349296_JID_4661_Energie_kation
 ------------------------------------
 Structure from the checkpoint file:  "JID_4661.chk"
 Charge =  1 Multiplicity = 2

 SCF Done:  E(UB3LYP) =  -994.692240576     A.U. after   20 cycles
 Normal termination of Gaussian 16 at Thu Dec 10 10:47:14 2020.
 Gaussian 16:  ES64L-G16RevA.03 25-Dec-2016

 ----------------------------------------------------------------------
 # B3LYP/6-311++G(d,p) empiricaldispersion=gd3bj scf=xqc pop=npa geom=c
 heck
 ----------------------------------------------------------------------

 -----------------------------------
 CID_23349296_JID_4661_Energie_anion
 -----------------------------------
 Structure from the checkpoint file:  "JID_4661.chk"
 Charge = -1 Multiplicity = 2

                         Standard orientation:
 ---------------------------------------------------------------------
 Center     Atomic      Atomic             Coordinates (Angstroms)
 Number     Number       Type             X           Y           Z
 ---------------------------------------------------------------------
      1          6           0        2.908170    1.661173   -0.329542
      2          6           0        3.308541    0.272942   -0.801573
      3          8           0        2.145267   -0.538409   -1.075961
      4          6           0        1.584329   -1.156354   -0.016101
      5          8           0        2.016512   -1.078526    1.118035
      6          6           0        0.419909   -2.025306   -0.441013
      7          6           0       -0.684108   -2.074432    0.615086
      8          6           0       -1.566759   -0.821121    0.634261
      9          7           0       -0.796868    0.432188    0.705183
     10          6           0       -1.369221    1.455790   -0.085626
     11          6           0       -2.292994    1.048910   -0.967437
     12         16           0       -2.605292   -0.697519   -0.904105
     13          6           0       -0.872395    2.861200    0.051791
     14          6           0       -0.365627    0.752947    2.060664
     15          1           0        2.252657    2.141295   -1.062977
     16          1           0        3.799127    2.285616   -0.198158
     17          1           0        2.384282    1.598077    0.627546
     18          1           0        3.843097    0.311925   -1.753595
     19          1           0        3.926690   -0.233846   -0.056547
     20          1           0        0.034474   -1.680750   -1.403002
     21          1           0        0.825348   -3.034561   -0.592658
     22          1           0       -1.328991   -2.943890    0.445117
     23          1           0       -0.227533   -2.207331    1.602194
     24          1           0       -2.251917   -0.883778    1.497050
     25          1           0       -2.771041    1.659868   -1.719528
     26          1           0       -1.125700    3.296916    1.026537
     27          1           0        0.218154    2.905740   -0.053198
     28          1           0       -1.317524    3.491303   -0.722060
     29          1           0        0.230533    1.667150    2.052664
     30          1           0       -1.217970    0.890143    2.748680
     31          1           0        0.275756   -0.047910    2.431682
 ---------------------------------------------------------------------

 SCF Done:  E(UB3LYP) =  -994.925618782     A.U. after   33 cycles
 SCF Done:  E(UB3LYP) =  -994.925618782     a.u. after    1 cycles

 The electronic state is 2-A.
 Alpha  occ. eigenvalues --  -88.75153 -19.07020 -19.01455 -14.23684 -10.20687
 Alpha  occ. eigenvalues --  -10.14600 -10.12863 -10.11293 -10.09585 -10.09059
 Alpha  occ. eigenvalues --  -10.09035 -10.08262 -10.07311 -10.06359  -7.83804
 Alpha  occ. eigenvalues --   -5.80183  -5.79842  -5.79180  -1.01047  -0.92405
 Alpha  occ. eigenvalues --   -0.86426  -0.72221  -0.70647  -0.68177  -0.65849
 Alpha  occ. eigenvalues --   -0.60769  -0.59018  -0.56565  -0.53641  -0.49487
 Alpha  occ. eigenvalues --   -0.45794  -0.44752  -0.41624  -0.40913  -0.39365
 Alpha  occ. eigenvalues --   -0.38740  -0.36374  -0.35960  -0.35563  -0.34010
 Alpha  occ. eigenvalues --   -0.32398  -0.31607  -0.31458  -0.30764  -0.29942
 Alpha  occ. eigenvalues --   -0.29121  -0.29056  -0.28039  -0.26337  -0.26128
 Alpha  occ. eigenvalues --   -0.25452  -0.24498  -0.23364  -0.21770  -0.20963
 Alpha  occ. eigenvalues --   -0.18814  -0.17200  -0.08508   0.04498
 Alpha virt. eigenvalues --    0.06190   0.06599   0.07263   0.08255   0.08650
 Alpha virt. eigenvalues --    0.09256   0.09626   0.09914   0.10189   0.10628
 Alpha virt. eigenvalues --    0.10789   0.11336   0.11939   0.12508   0.12936

  Beta  occ. eigenvalues --  -88.75151 -19.07018 -19.01448 -14.23679 -10.20685
  Beta  occ. eigenvalues --  -10.14590 -10.12842 -10.11293 -10.09555 -10.09050
  Beta  occ. eigenvalues --  -10.09027 -10.08248 -10.07268 -10.06318  -7.83802
  Beta  occ. eigenvalues --   -5.80182  -5.79837  -5.79177  -1.01040  -0.92396
  Beta  occ. eigenvalues --   -0.86414  -0.72201  -0.70629  -0.68146  -0.65814
  Beta  occ. eigenvalues --   -0.60726  -0.58968  -0.56510  -0.53592  -0.49457
  Beta  occ. eigenvalues --   -0.45759  -0.44713  -0.41609  -0.40879  -0.39335
  Beta  occ. eigenvalues --   -0.38708  -0.36341  -0.35928  -0.35536  -0.33973
  Beta  occ. eigenvalues --   -0.32361  -0.31576  -0.31426  -0.30731  -0.29916
  Beta  occ. eigenvalues --   -0.29085  -0.29016  -0.28006  -0.26310  -0.26099
  Beta  occ. eigenvalues --   -0.25431  -0.24474  -0.23341  -0.21743  -0.20945
  Beta  occ. eigenvalues --   -0.18803  -0.17179  -0.08481
  Beta virt. eigenvalues --    0.06419   0.07056   0.07511   0.07823   0.08796
  Beta virt. eigenvalues --    0.09063   0.09683   0.09829   0.10157   0.10461
  Beta virt. eigenvalues --    0.10963   0.11151   0.11662   0.12254   0.12876

 Mulliken charges and spin densities:
               1          2
     1  C    0.238776  -0.697891
     2  C    0.309279  -0.410748
     3  O    0.033469   0.050054
     4  C   -0.365444  -0.145415
     5  O   -0.240882   0.035098
     6  C    0.230865  -0.232536
     7  C    0.334118  -0.675929
     8  C   -0.519670   0.637268
     9  N    0.141582   0.237467
    10  C   -2.085405   1.694986
    11  C   -0.316428   0.397081
    12  S    0.175945  -0.643387
    13  C    2.995117  -3.793388
    14  C    0.412130  -0.771325
    15  H    0.192954  -0.038256
    16  H   -0.795763   0.951616
    17  H    0.100531   0.081074
    18  H   -0.512309   0.689430
    19  H    0.135735   0.022675
    20  H    0.155483   0.011376
    21  H   -0.057383   0.255945
    22  H   -0.085033   0.250456
    23  H    0.172263  -0.000553
    24  H   -0.079349   0.344124
    25  H   -0.262750   0.513617
    26  H   -0.331784   0.514252
    27  H   -0.037354   0.164593
    28  H   -0.477924   0.638671
    29  H   -0.134656   0.270627
    30  H   -0.297762   0.447400
    31  H   -0.028350   0.201620
 Sum of Mulliken charges =  -1.00000   1.00000

 Dipole moment (field-independent basis, Debye):
    X=             -2.5306    Y=             -6.2585    Z=             -0.5755  Tot=              6.7752
 Quadrupole moment (field-independent basis, Debye-Ang):
   XX=           -159.4765   YY=           -149.6535   ZZ=           -133.4026
   XY=             -5.9020   XZ=              5.4292   YZ=              0.8596

 Summary of Natural Population Analysis:

                                       Natural Population
                Natural  -----------------------------------------------
    Atom  No    Charge         Core      Valence    Rydberg      Total
 -----------------------------------------------------------------------
      C    1   -0.29853      0.99966     2.29331    0.00557     3.29853
      C    2   -0.01624      0.99957     2.00452    0.01215     3.01624
      O    3   -0.27970      0.99986     3.27085    0.00899     4.27970
      C    4    0.41594      0.99968     1.55894    0.02544     2.58406
      O    5   -0.31918      0.99987     3.31366    0.00566     4.31918
      C    6   -0.24185      0.99957     2.23188    0.01041     3.24185
      C    7   -0.20080      0.99959     2.19069    0.01053     3.20080
      C    8   -0.04298      0.99957     2.02696    0.01645     3.04298
      N    9   -0.27771      0.99965     2.76298    0.01508     3.77771
      C   10    0.08925      0.99943     1.89774    0.01358     2.91075
      C   11   -0.20678      0.99938     2.19771    0.00969     3.20678
      S   12    0.09667      4.99957     2.88505    0.01871     7.90333
      C   13   -0.29998      0.99962     2.29418    0.00618     3.29998
      C   14   -0.17989      0.99962     2.17070    0.00956     3.17989
      H   15    0.10146      0.00000     0.39703    0.00151     0.39854
      H   16    0.10451      0.00000     0.39347    0.00203     0.39549
      H   17    0.10395      0.00000     0.39433    0.00172     0.39605
      H   18    0.09079      0.00000     0.40774    0.00147     0.40921
      H   19    0.09320      0.00000     0.40558    0.00121     0.40680
      H   20    0.11807      0.00000     0.37981    0.00212     0.38193
      H   21    0.11223      0.00000     0.38676    0.00101     0.38777
      H   22    0.10330      0.00000     0.39573    0.00097     0.39670
      H   23    0.11053      0.00000     0.38796    0.00151     0.38947
      H   24    0.09019      0.00000     0.40804    0.00177     0.40981
      H   25    0.11037      0.00000     0.38878    0.00085     0.38963
      H   26    0.10718      0.00000     0.39097    0.00185     0.39282
      H   27    0.10880      0.00000     0.38929    0.00192     0.39120
      H   28    0.10988      0.00000     0.38873    0.00139     0.39012
      H   29    0.10343      0.00000     0.39517    0.00140     0.39657
      H   30    0.08627      0.00000     0.41201    0.00172     0.41373
      H   31    0.10762      0.00000     0.39093    0.00145     0.39238
 =======================================================================
   * Total *    0.00000     17.99463    39.81149    0.19388    58.00000

 Normal termination of Gaussian 16 at Thu Dec 10 11:01:09 2020.
