 Gaussian 16, Revision A.03,

 -----------------------------------------------------------
 # opt freq B3LYP/6-31G(d) empiricaldispersion=gd3bj scf=xqc
 -----------------------------------------------------------

 -------------------------------
 CID_128186659_JID_6635_neutraal
 -------------------------------
 Symbolic Z-matrix:
 Charge =  0 Multiplicity = 1

 SCF Done:  E(RB3LYP) =  -721.866595413     A.U. after   16 cycles
 SCF Done:  E(RB3LYP) =  -721.870360505     A.U. after   13 cycles
 SCF Done:  E(RB3LYP) =  -721.871277550     A.U. after   12 cycles
 SCF Done:  E(RB3LYP) =  -721.871606721     A.U. after   12 cycles
 SCF Done:  E(RB3LYP) =  -721.871686633     A.U. after   12 cycles
 SCF Done:  E(RB3LYP) =  -721.871706763     A.U. after   11 cycles
 SCF Done:  E(RB3LYP) =  -721.871720019     A.U. after    9 cycles
 SCF Done:  E(RB3LYP) =  -721.871728238     A.U. after   10 cycles
 SCF Done:  E(RB3LYP) =  -721.871733114     A.U. after   10 cycles
 SCF Done:  E(RB3LYP) =  -721.871740216     A.U. after   10 cycles
 SCF Done:  E(RB3LYP) =  -721.871884678     A.U. after   10 cycles
 SCF Done:  E(RB3LYP) =  -721.871885529     A.U. after    8 cycles
 SCF Done:  E(RB3LYP) =  -721.871885639     A.U. after    7 cycles
 SCF Done:  E(RB3LYP) =  -721.871885681     A.U. after    7 cycles
 SCF Done:  E(RB3LYP) =  -721.871885697     A.U. after    7 cycles
 Optimization completed.
    -- Stationary point found.
 Normal termination of Gaussian 16 at Fri Dec 11 00:06:31 2020.

 --------------------------------------------------------------------
 #N Geom=AllCheck Guess=TCheck SCRF=Check GenChk RB3LYP/6-31G(d) Freq
 --------------------------------------------------------------------

 Structure from the checkpoint file:  "JID_6635.chk"
 -------------------------------
 CID_128186659_JID_6635_neutraal
 -------------------------------
 Charge =  0 Multiplicity = 1

 SCF Done:  E(RB3LYP) =  -721.871885697     A.U. after    1 cycles

  Exact polarizability: 173.201   4.978 144.542  10.391   7.270  97.915
 Approx polarizability: 222.155  14.062 264.998  21.243  21.214 148.191

                      1                      2                      3
                      A                      A                      A
 Frequencies --     26.1192                45.2677                50.0257
 Red. masses --      4.9680                 1.2704                 2.4953
 Frc consts  --      0.0020                 0.0015                 0.0037
 IR Inten    --      0.5949                 0.4573                 0.0615

                      4                      5                      6
                      A                      A                      A
 Frequencies --     61.2310                83.8720               126.8172
 Red. masses --      4.7638                 4.4162                 6.9890
 Frc consts  --      0.0105                 0.0183                 0.0662
 IR Inten    --      2.6876                 0.7701                 1.7823

                      7                      8                      9
                      A                      A                      A
 Frequencies --    150.2240               183.1614               192.2116
 Red. masses --      4.1324                 3.5459                 5.7962
 Frc consts  --      0.0549                 0.0701                 0.1262
 IR Inten    --      4.5801                 6.1787                 3.7414

                     10                     11                     12
                      A                      A                      A
 Frequencies --    232.4005               272.0270               292.7036
 Red. masses --      3.3165                 2.9579                 3.2077
 Frc consts  --      0.1055                 0.1290                 0.1619
 IR Inten    --      1.3969                 2.5468                 6.8466

                     13                     14                     15
                      A                      A                      A
 Frequencies --    363.3324               378.6094               407.8072
 Red. masses --      2.7339                 4.0123                 3.9267
 Frc consts  --      0.2126                 0.3389                 0.3848
 IR Inten    --      1.2772                 8.1841                 2.1245

                     16                     17                     18
                      A                      A                      A
 Frequencies --    431.9704               456.1824               474.7074
 Red. masses --      2.0862                 3.5993                 4.2697
 Frc consts  --      0.2294                 0.4413                 0.5669
 IR Inten    --      8.9634                 0.9146                 5.0168

                     19                     20                     21
                      A                      A                      A
 Frequencies --    499.1420               568.0957               586.5497
 Red. masses --      6.3740                 2.3120                 3.9192
 Frc consts  --      0.9356                 0.4396                 0.7944
 IR Inten    --      1.8594                 3.9123                 2.8146

                     22                     23                     24
                      A                      A                      A
 Frequencies --    613.4597               657.0237               670.8604
 Red. masses --      7.7213                 6.2765                 5.7285
 Frc consts  --      1.7120                 1.5964                 1.5190
 IR Inten    --      2.3062                 3.7303                 4.5367

                     25                     26                     27
                      A                      A                      A
 Frequencies --    708.1033               759.3253               780.0257
 Red. masses --      7.0839                 5.8674                 5.7842
 Frc consts  --      2.0928                 1.9932                 2.0735
 IR Inten    --      9.5391                11.7716                 6.7298

                     28                     29                     30
                      A                      A                      A
 Frequencies --    824.2909               835.1334               867.2102
 Red. masses --      1.5155                 3.2246                 1.5101
 Frc consts  --      0.6067                 1.3251                 0.6691
 IR Inten    --      0.0449                 4.5569                 5.4248

                     31                     32                     33
                      A                      A                      A
 Frequencies --    882.4899               894.9292               922.7750
 Red. masses --      1.3488                 2.8467                 2.8750
 Frc consts  --      0.6189                 1.3433                 1.4424
 IR Inten    --     12.4107                17.9076                 7.0698

                     34                     35                     36
                      A                      A                      A
 Frequencies --    977.7001              1005.3136              1035.8834
 Red. masses --      1.3230                 2.8778                 2.4627
 Frc consts  --      0.7451                 1.7136                 1.5570
 IR Inten    --      3.3084                56.8739                24.9733

                     37                     38                     39
                      A                      A                      A
 Frequencies --   1046.6451              1084.5091              1089.7052
 Red. masses --      2.2352                 1.6697                 2.2595
 Frc consts  --      1.4427                 1.1571                 1.5808
 IR Inten    --     16.3556                 0.2198                24.4332

                     40                     41                     42
                      A                      A                      A
 Frequencies --   1150.5384              1160.1392              1167.8281
 Red. masses --      2.1792                 1.3182                 1.9635
 Frc consts  --      1.6996                 1.0453                 1.5778
 IR Inten    --      8.7692                 4.8339                19.0438

                     43                     44                     45
                      A                      A                      A
 Frequencies --   1197.6385              1216.4776              1224.4930
 Red. masses --      1.3081                 3.1730                 1.5873
 Frc consts  --      1.1054                 2.7665                 1.4022
 IR Inten    --      1.2254                10.0139                 2.6462

                     46                     47                     48
                      A                      A                      A
 Frequencies --   1263.7194              1287.1531              1301.0383
 Red. masses --      2.2470                 2.2090                 1.2753
 Frc consts  --      2.1142                 2.1563                 1.2718
 IR Inten    --     48.0165               149.9668                22.6101

                     49                     50                     51
                      A                      A                      A
 Frequencies --   1332.5187              1339.0957              1373.3070
 Red. masses --      1.2093                 5.7059                 1.2927
 Frc consts  --      1.2652                 6.0283                 1.4364
 IR Inten    --     20.9232                 9.0428                 0.0981

                     52                     53                     54
                      A                      A                      A
 Frequencies --   1387.0402              1396.3880              1403.3278
 Red. masses --      3.3419                 1.3422                 1.6020
 Frc consts  --      3.7881                 1.5420                 1.8588
 IR Inten    --      1.7713                 4.7181                 5.1079

                     55                     56                     57
                      A                      A                      A
 Frequencies --   1406.5835              1426.0234              1440.8018
 Red. masses --      1.4852                 1.4142                 4.0768
 Frc consts  --      1.7312                 1.6943                 4.9864
 IR Inten    --      5.2206                 4.5713                53.7426

                     58                     59                     60
                      A                      A                      A
 Frequencies --   1470.3750              1473.5204              1494.2032
 Red. masses --      2.4119                 1.9140                 1.9433
 Frc consts  --      3.0723                 2.4486                 2.5563
 IR Inten    --    150.0711                19.8292                22.8971

                     61                     62                     63
                      A                      A                      A
 Frequencies --   1503.8665              1509.2699              1510.2541
 Red. masses --      1.1119                 1.1002                 1.0699
 Frc consts  --      1.4816                 1.4766                 1.4378
 IR Inten    --     12.5996                 8.4415                 9.0229

                     64                     65                     66
                      A                      A                      A
 Frequencies --   1515.3558              1520.0729              1532.2352
 Red. masses --      1.0904                 1.1226                 1.1164
 Frc consts  --      1.4752                 1.5283                 1.5443
 IR Inten    --      3.2359                10.1544                 4.6515

                     67                     68                     69
                      A                      A                      A
 Frequencies --   1539.6080              1588.2720              1733.2936
 Red. masses --      1.2177                 6.4380                11.3334
 Frc consts  --      1.7007                 9.5686                20.0610
 IR Inten    --     18.8072                95.3943               237.5180

                     70                     71                     72
                      A                      A                      A
 Frequencies --   2357.3143              3024.7173              3034.8809
 Red. masses --     12.6607                 1.0687                 1.0717
 Frc consts  --     41.4518                 5.7609                 5.8159
 IR Inten    --     24.4006                22.6476                16.6214

                     73                     74                     75
                      A                      A                      A
 Frequencies --   3039.7047              3043.7569              3052.8393
 Red. masses --      1.0704                 1.0649                 1.0610
 Frc consts  --      5.8272                 5.8127                 5.8260
 IR Inten    --     28.7851                50.1889                20.9929

                     76                     77                     78
                      A                      A                      A
 Frequencies --   3081.4468              3083.0418              3087.8513
 Red. masses --      1.0359                 1.0934                 1.1033
 Frc consts  --      5.7953                 6.1231                 6.1983
 IR Inten    --     30.5823                48.6851                42.8594

                     79                     80                     81
                      A                      A                      A
 Frequencies --   3098.2862              3158.5856              3169.6652
 Red. masses --      1.1048                 1.1013                 1.0931
 Frc consts  --      6.2483                 6.4737                 6.4703
 IR Inten    --     61.4408                 6.9326                 1.0919

                     82                     83                     84
                      A                      A                      A
 Frequencies --   3170.6349              3189.9896              3270.7160
 Red. masses --      1.0907                 1.1068                 1.0966
 Frc consts  --      6.4602                 6.6358                 6.9117
 IR Inten    --     17.8493                 1.6370                 1.6039

 - Thermochemistry -
 -------------------
 Temperature   298.150 Kelvin.  Pressure   1.00000 Atm.
 Atom     1 has atomic number  6 and mass  12.00000

 Molecular mass:   218.11676 amu.
 Principal axes and moments of inertia in atomic units:
                           1         2         3
     Eigenvalues --  1749.602615541.164336220.33130
           X            0.99998  -0.00507  -0.00251
           Y            0.00501   0.99979  -0.01974
           Z            0.00261   0.01973   0.99980
 This molecule is an asymmetric top.
 Rotational symmetry number  1.
 Warning -- assumption of classical behavior for rotation
           may cause significant error
 Rotational temperatures (Kelvin)      0.04950     0.01563     0.01392
 Rotational constants (GHZ):           1.03151     0.32570     0.29014
 Zero-point vibrational energy     653554.1 (Joules/Mol)
                                  156.20317 (Kcal/Mol)
 Warning -- explicit consideration of  22 degrees of freedom as
           vibrations may cause significant error
 Vibrational temperatures:     37.58    65.13    71.98    88.10   120.67
          (Kelvin)            182.46   216.14   263.53   276.55   334.37
                              391.39   421.14   522.75   544.73   586.74
                              621.51   656.34   683.00   718.15   817.36
                              843.91   882.63   945.31   965.22  1018.80
                             1092.50  1122.28  1185.97  1201.57  1247.72
                             1269.71  1287.60  1327.67  1406.69  1446.42
                             1490.41  1505.89  1560.37  1567.84  1655.37
                             1669.18  1680.24  1723.13  1750.24  1761.77
                             1818.21  1851.93  1871.90  1917.20  1926.66
                             1975.88  1995.64  2009.09  2019.08  2023.76
                             2051.73  2072.99  2115.54  2120.07  2149.83
                             2163.73  2171.50  2172.92  2180.26  2187.05
                             2204.54  2215.15  2285.17  2493.82  3391.65
                             4351.89  4366.52  4373.46  4379.29  4392.35
                             4433.51  4435.81  4442.73  4457.74  4544.50
                             4560.44  4561.84  4589.68  4705.83

 Zero-point correction=                           0.248926 (Hartree/Particle)
 Thermal correction to Energy=                    0.263634
 Thermal correction to Enthalpy=                  0.264578
 Thermal correction to Gibbs Free Energy=         0.205288
 Sum of electronic and zero-point Energies=           -721.622960
 Sum of electronic and thermal Energies=              -721.608252
 Sum of electronic and thermal Enthalpies=            -721.607307
 Sum of electronic and thermal Free Energies=         -721.666597

                     E (Thermal)             CV                S
                      KCal/Mol        Cal/Mol-Kelvin    Cal/Mol-Kelvin
 Total                  165.433             54.441            124.786
 Electronic               0.000              0.000              0.000
 Translational            0.889              2.981             42.043
 Rotational               0.889              2.981             32.467
 Vibrational            163.655             48.479             50.277
 Vibration     1          0.593              1.985              6.104
 Vibration     2          0.595              1.979              5.014
 Vibration     3          0.595              1.978              4.816
 Vibration     4          0.597              1.973              4.417
 Vibration     5          0.601              1.960              3.798
 Vibration     6          0.611              1.926              2.994
 Vibration     7          0.618              1.902              2.669
 Vibration     8          0.631              1.863              2.296
 Vibration     9          0.634              1.851              2.206
 Vibration    10          0.653              1.791              1.860
 Vibration    11          0.675              1.725              1.583
 Vibration    12          0.688              1.687              1.458
 Vibration    13          0.737              1.548              1.108
 Vibration    14          0.749              1.516              1.045
 Vibration    15          0.772              1.453              0.934
 Vibration    16          0.793              1.401              0.852
 Vibration    17          0.814              1.347              0.777
 Vibration    18          0.831              1.306              0.724
 Vibration    19          0.855              1.252              0.660
 Vibration    20          0.924              1.100              0.508
 Vibration    21          0.944              1.060              0.473
 Vibration    22          0.973              1.003              0.427

                           ! Non-Optimized Parameters !
 Normal termination of Gaussian 16 at Fri Dec 11 00:15:49 2020.

 ----------------------------------------------------------------------
 # B3LYP/6-311++G(d,p) empiricaldispersion=gd3bj scf=xqc pop=npa geom=c
 heck
 ----------------------------------------------------------------------

 ---------------------------------------
 CID_128186659_JID_6635_Energie_neutraal
 ---------------------------------------
 Structure from the checkpoint file:  "JID_6635.chk"
 Charge =  0 Multiplicity = 1

 SCF Done:  E(RB3LYP) =  -722.064855703     A.U. after   16 cycles
 Normal termination of Gaussian 16 at Fri Dec 11 00:19:42 2020.

 ----------------------------------------------------------------------
 # B3LYP/6-311++G(d,p) empiricaldispersion=gd3bj scf=xqc pop=npa geom=c
 heck
 ----------------------------------------------------------------------

 -------------------------------------
 CID_128186659_JID_6635_Energie_kation
 -------------------------------------
 Structure from the checkpoint file:  "JID_6635.chk"
 Charge =  1 Multiplicity = 2

 SCF Done:  E(UB3LYP) =  -721.746326749     A.U. after   33 cycles
 SCF Done:  E(UB3LYP) =  -721.746433339     a.u. after    4 cycles
 Normal termination of Gaussian 16 at Fri Dec 11 01:01:22 2020.
 Gaussian 16:  ES64L-G16RevA.03 25-Dec-2016

 ----------------------------------------------------------------------
 # B3LYP/6-311++G(d,p) empiricaldispersion=gd3bj scf=xqc pop=npa geom=c
 heck
 ----------------------------------------------------------------------

 ------------------------------------
 CID_128186659_JID_6635_Energie_anion
 ------------------------------------
 Structure from the checkpoint file:  "JID_6635.chk"
 Charge = -1 Multiplicity = 2

                         Standard orientation:
 ---------------------------------------------------------------------
 Center     Atomic      Atomic             Coordinates (Angstroms)
 Number     Number       Type             X           Y           Z
 ---------------------------------------------------------------------
      1          6           0        4.321043   -0.436368    0.605933
      2          7           0        2.975131   -0.594533    0.081325
      3          6           0        1.977039    0.339092    0.034690
      4          6           0        0.847415   -0.300826   -0.480583
      5          6           0        1.290332   -1.619780   -0.721903
      6          7           0        2.569494   -1.789034   -0.380819
      7          6           0       -0.422228    0.400945   -0.814063
      8          8           0       -0.380906    1.564061   -1.210276
      9          7           0       -1.593171   -0.314378   -0.722201
     10          6           0       -2.828465    0.371788   -1.116690
     11          6           0       -3.554256    0.945234    0.104842
     12          6           0       -3.818776   -0.156366    1.140159
     13          6           0       -2.522079   -0.896685    1.493017
     14          6           0       -1.809404   -1.406348    0.231421
     15          6           0        2.177202    1.671945    0.470932
     16          7           0        2.405976    2.742959    0.863151
     17          1           0        5.014827   -0.946137   -0.063803
     18          1           0        4.392149   -0.873183    1.606421
     19          1           0        4.558539    0.627056    0.654018
     20          1           0        0.739204   -2.440812   -1.158978
     21          1           0       -3.465990   -0.365334   -1.623686
     22          1           0       -2.561255    1.154420   -1.825504
     23          1           0       -4.493792    1.414130   -0.211297
     24          1           0       -2.927017    1.732770    0.540713
     25          1           0       -4.274295    0.264215    2.044098
     26          1           0       -4.542092   -0.874794    0.726926
     27          1           0       -1.841281   -0.218722    2.025097
     28          1           0       -2.725142   -1.743109    2.160666
     29          1           0       -0.854838   -1.859851    0.493150
     30          1           0       -2.420720   -2.174026   -0.262328
 ---------------------------------------------------------------------

 SCF Done:  E(UB3LYP) =  -722.071843574     A.U. after   32 cycles

 The electronic state is 2-A.
 Alpha  occ. eigenvalues --  -18.94975 -14.25792 -14.21692 -14.20624 -14.15973
 Alpha  occ. eigenvalues --  -10.13661 -10.10309 -10.09894 -10.09061 -10.08654
 Alpha  occ. eigenvalues --  -10.07307 -10.07263 -10.07070 -10.06708 -10.06301
 Alpha  occ. eigenvalues --  -10.04300  -0.93135  -0.90604  -0.82056  -0.76270
 Alpha  occ. eigenvalues --   -0.72479  -0.69815  -0.67656  -0.65789  -0.59979
 Alpha  occ. eigenvalues --   -0.57019  -0.53279  -0.51338  -0.48953  -0.47947
 Alpha  occ. eigenvalues --   -0.44614  -0.41754  -0.38421  -0.36899  -0.36664
 Alpha  occ. eigenvalues --   -0.35362  -0.34922  -0.33129  -0.32237  -0.31786
 Alpha  occ. eigenvalues --   -0.30630  -0.29385  -0.28657  -0.28596  -0.27940
 Alpha  occ. eigenvalues --   -0.26392  -0.25303  -0.23859  -0.22920  -0.22700
 Alpha  occ. eigenvalues --   -0.22501  -0.22244  -0.20469  -0.17514  -0.14164
 Alpha  occ. eigenvalues --   -0.13409  -0.12461  -0.11714   0.04272
 Alpha virt. eigenvalues --    0.06242   0.07857   0.08163   0.08211   0.09712
 Alpha virt. eigenvalues --    0.10607   0.10872   0.11134   0.11774   0.12109
 Alpha virt. eigenvalues --    0.12563   0.13064   0.13308   0.14109   0.14853

  Beta  occ. eigenvalues --  -18.94821 -14.25421 -14.21678 -14.20525 -14.15604
  Beta  occ. eigenvalues --  -10.13552 -10.10327 -10.09890 -10.09059 -10.08368
  Beta  occ. eigenvalues --  -10.07372 -10.07249 -10.07062 -10.06699 -10.06303
  Beta  occ. eigenvalues --  -10.04167  -0.92698  -0.90346  -0.81951  -0.75730
  Beta  occ. eigenvalues --   -0.72174  -0.69757  -0.67189  -0.65730  -0.59776
  Beta  occ. eigenvalues --   -0.56944  -0.53218  -0.50959  -0.48657  -0.47738
  Beta  occ. eigenvalues --   -0.44460  -0.41660  -0.38250  -0.36691  -0.36082
  Beta  occ. eigenvalues --   -0.35239  -0.34856  -0.32922  -0.32164  -0.31709
  Beta  occ. eigenvalues --   -0.30566  -0.29138  -0.28495  -0.28361  -0.27685
  Beta  occ. eigenvalues --   -0.26086  -0.25257  -0.23629  -0.22645  -0.22402
  Beta  occ. eigenvalues --   -0.22155  -0.20937  -0.20241  -0.17308  -0.13464
  Beta  occ. eigenvalues --   -0.12415  -0.11961  -0.10674
  Beta virt. eigenvalues --    0.06498   0.07965   0.08233   0.08306   0.09623
  Beta virt. eigenvalues --    0.09820   0.10670   0.10961   0.11383   0.11840
  Beta virt. eigenvalues --    0.12335   0.12673   0.13076   0.13348   0.14138

 Mulliken charges and spin densities:
               1          2
     1  C   -0.288014  -0.054272
     2  N    0.263803   0.081989
     3  C    0.828694   0.421490
     4  C    0.368942   0.075060
     5  C   -0.230551  -0.025443
     6  N   -0.318676   0.074998
     7  C   -0.239263  -0.069934
     8  O   -0.331485   0.054859
     9  N    0.160574   0.022654
    10  C   -0.125440  -0.142890
    11  C   -0.204850   0.040560
    12  C    0.096610  -0.542328
    13  C   -0.233839  -0.053341
    14  C   -0.231265  -0.072481
    15  C   -1.212019  -0.171008
    16  N   -0.324622   0.186636
    17  H    0.144930   0.003457
    18  H    0.088066   0.079132
    19  H    0.160626   0.001482
    20  H    0.123230   0.034251
    21  H   -0.025762   0.177369
    22  H    0.204205  -0.009131
    23  H    0.003663   0.142261
    24  H    0.163778   0.008620
    25  H   -0.039158   0.183235
    26  H   -0.052860   0.178728
    27  H    0.186170  -0.034757
    28  H   -0.101546   0.246813
    29  H    0.150462   0.031875
    30  H    0.015597   0.130118
 Sum of Mulliken charges =  -1.00000   1.00000

 Dipole moment (field-independent basis, Debye):
    X=             -1.8913    Y=             -4.1228    Z=              0.2742  Tot=              4.5442
 Quadrupole moment (field-independent basis, Debye-Ang):
   XX=           -136.3151   YY=           -135.4629   ZZ=           -112.0770
   XY=             -8.5198   XZ=              0.4668   YZ=             -0.3257

 Summary of Natural Population Analysis:

                                       Natural Population
                Natural  -----------------------------------------------
    Atom  No    Charge         Core      Valence    Rydberg      Total
 -----------------------------------------------------------------------
      C    1   -0.17554      0.99966     2.16995    0.00594     3.17554
      N    2   -0.04883      0.99963     2.53733    0.01187     3.54883
      C    3    0.07957      0.99939     1.90969    0.01135     2.92043
      C    4   -0.08008      0.99944     2.06928    0.01136     3.08008
      C    5   -0.02900      0.99960     2.01540    0.01401     3.02900
      N    6   -0.14700      0.99973     2.63433    0.01294     3.64700
      C    7    0.35148      0.99959     1.62723    0.02170     2.64852
      O    8   -0.30634      0.99988     3.30153    0.00493     4.30634
      N    9   -0.26029      0.99966     2.75071    0.00992     3.76029
      C   10   -0.08838      0.99962     2.07709    0.01167     3.08838
      C   11   -0.19910      0.99963     2.19061    0.00886     3.19910
      C   12   -0.19167      0.99963     2.18367    0.00837     3.19167
      C   13   -0.19742      0.99963     2.18942    0.00838     3.19742
      C   14   -0.08397      0.99961     2.07378    0.01058     3.08397
      C   15    0.13174      0.99964     1.85236    0.01626     2.86826
      N   16   -0.13425      0.99979     2.62377    0.01069     3.63425
      H   17    0.09970      0.00000     0.39937    0.00092     0.40030
      H   18    0.09547      0.00000     0.40305    0.00148     0.40453
      H   19    0.10608      0.00000     0.39317    0.00075     0.39392
      H   20    0.09549      0.00000     0.40338    0.00113     0.40451
      H   21    0.08676      0.00000     0.41213    0.00111     0.41324
      H   22    0.11529      0.00000     0.38355    0.00116     0.38471
      H   23    0.09605      0.00000     0.40303    0.00091     0.40395
      H   24    0.10277      0.00000     0.39611    0.00112     0.39723
      H   25    0.09681      0.00000     0.40233    0.00085     0.40319
      H   26    0.09159      0.00000     0.40684    0.00157     0.40841
      H   27    0.09855      0.00000     0.40026    0.00119     0.40145
      H   28    0.09741      0.00000     0.40150    0.00108     0.40259
      H   29    0.11009      0.00000     0.38846    0.00145     0.38991
      H   30    0.08700      0.00000     0.41185    0.00114     0.41300
 =======================================================================
   * Total *    0.00000     15.99412    41.81120    0.19468    58.00000

 Normal termination of Gaussian 16 at Fri Dec 11 01:12:02 2020.
