 Gaussian 16, Revision A.03,

 -----------------------------------------------------------
 # opt freq B3LYP/6-31G(d) empiricaldispersion=gd3bj scf=xqc
 -----------------------------------------------------------

 ---------------------------
 CID_90704336_JID_4_neutraal
 ---------------------------
 Symbolic Z-matrix:
 Charge =  0 Multiplicity = 1

 SCF Done:  E(RB3LYP) =  -502.061577279     A.U. after   13 cycles
 SCF Done:  E(RB3LYP) =  -502.064479188     A.U. after   11 cycles
 SCF Done:  E(RB3LYP) =  -502.065008957     A.U. after   10 cycles
 SCF Done:  E(RB3LYP) =  -502.065138299     A.U. after   11 cycles
 SCF Done:  E(RB3LYP) =  -502.065255444     A.U. after   10 cycles
 SCF Done:  E(RB3LYP) =  -502.065324328     A.U. after   10 cycles
 SCF Done:  E(RB3LYP) =  -502.065346832     A.U. after    9 cycles
 SCF Done:  E(RB3LYP) =  -502.065350711     A.U. after    8 cycles
 SCF Done:  E(RB3LYP) =  -502.065352260     A.U. after    7 cycles
 SCF Done:  E(RB3LYP) =  -502.065353104     A.U. after    7 cycles
 SCF Done:  E(RB3LYP) =  -502.065353232     A.U. after    7 cycles
 SCF Done:  E(RB3LYP) =  -502.065353250     A.U. after    6 cycles
 Optimization completed.
    -- Stationary point found.

 1\1\GINC-NODE377\FOpt\RB3LYP\6-31G(d)\C7H16O3\VSC10255\08-Dec-2020\0\\
 # opt freq B3LYP/6-31G(d) empiricaldispersion=gd3bj scf=xqc\\CID_90704
 336_JID_4_neutraal\\0,1\C,1.09373404,0.0490835124,-0.0369149107\C,0.58
 35187758,1.4580106807,0.2775234214\C,1.0038064078,2.5273642779,-0.7375
 493253\C,0.5523870913,2.2457175856,-2.1892906844\C,-0.9719724378,2.195
 5031546,-2.3392916832\C,1.1523161642,3.3033786235,-3.1248397836\O,2.55
 8994315,3.1787916811,-3.0475447709\O,0.6991177799,3.2240572839,-4.4647
 108521\C,1.0214255162,2.0170818128,-5.1441089446\O,0.5708408114,3.8220

 Normal termination of Gaussian 16 at Tue Dec  8 10:15:38 2020.

 --------------------------------------------------------------------
 #N Geom=AllCheck Guess=TCheck SCRF=Check GenChk RB3LYP/6-31G(d) Freq
 --------------------------------------------------------------------

 Structure from the checkpoint file:  "JID_4.chk"
 ---------------------------
 CID_90704336_JID_4_neutraal
 ---------------------------
 Charge =  0 Multiplicity = 1

 SCF Done:  E(RB3LYP) =  -502.065353250     A.U. after    1 cycles

  Exact polarizability:  93.086   0.886  79.847  -0.495   0.242  78.824
 Approx polarizability: 112.742   1.334 113.669  -0.378  -0.252 114.173

                      1                      2                      3
                      A                      A                      A
 Frequencies --     51.9958                70.8509               112.5287
 Red. masses --      3.4965                 3.3136                 2.4277
 Frc consts  --      0.0056                 0.0098                 0.0181
 IR Inten    --      0.2557                 0.2983                 0.5270

                      4                      5                      6
                      A                      A                      A
 Frequencies --    134.3718               164.7581               187.0770
 Red. masses --      1.7439                 1.4999                 1.5316
 Frc consts  --      0.0186                 0.0240                 0.0316
 IR Inten    --      2.0875                 0.7287                 0.3078

                      7                      8                      9
                      A                      A                      A
 Frequencies --    205.4643               222.7735               245.9418
 Red. masses --      2.0564                 1.7496                 1.3762
 Frc consts  --      0.0511                 0.0512                 0.0490
 IR Inten    --      2.9983                 5.0290                 2.2012

                     10                     11                     12
                      A                      A                      A
 Frequencies --    280.2667               291.5154               322.6881
 Red. masses --      4.4396                 2.9536                 2.3234
 Frc consts  --      0.2055                 0.1479                 0.1425
 IR Inten    --      6.7777                 1.7539                 4.7033

                     13                     14                     15
                      A                      A                      A
 Frequencies --    331.3070               373.3430               414.5764
 Red. masses --      1.0830                 1.2486                 2.7006
 Frc consts  --      0.0700                 0.1025                 0.2735
 IR Inten    --    118.2605                69.6589                37.4426

                     16                     17                     18
                      A                      A                      A
 Frequencies --    459.5098               482.1275               503.2833
 Red. masses --      3.8771                 4.3790                 2.9306
 Frc consts  --      0.4823                 0.5997                 0.4374
 IR Inten    --     21.3209                20.3541                14.4443

                     19                     20                     21
                      A                      A                      A
 Frequencies --    608.6183               664.3341               788.9929
 Red. masses --      2.9091                 3.3032                 1.6874
 Frc consts  --      0.6349                 0.8589                 0.6189
 IR Inten    --      5.3901                 6.1378                 9.1661

                     22                     23                     24
                      A                      A                      A
 Frequencies --    851.9728               887.0154               949.0345
 Red. masses --      1.6105                 1.9281                 1.7065
 Frc consts  --      0.6887                 0.8938                 0.9056
 IR Inten    --      5.3053                 6.4518                26.6367

                     25                     26                     27
                      A                      A                      A
 Frequencies --    956.2582              1007.7155              1038.8470
 Red. masses --      3.1122                 2.4116                 2.2088
 Frc consts  --      1.6768                 1.4429                 1.4045
 IR Inten    --     37.8451                50.2734                27.2709

                     28                     29                     30
                      A                      A                      A
 Frequencies --   1065.0407              1071.1276              1094.0649
 Red. masses --      2.3995                 3.0526                 2.4944
 Frc consts  --      1.6036                 2.0635                 1.7591
 IR Inten    --      9.8910               115.4643                45.2614

                     31                     32                     33
                      A                      A                      A
 Frequencies --   1116.3748              1130.0315              1155.5854
 Red. masses --      1.7515                 1.6703                 3.0883
 Frc consts  --      1.2861                 1.2567                 2.4298
 IR Inten    --     49.2908                78.9857                68.1931

                     34                     35                     36
                      A                      A                      A
 Frequencies --   1177.7290              1189.7148              1227.8511
 Red. masses --      2.1330                 1.2955                 1.4465
 Frc consts  --      1.7431                 1.0804                 1.2849
 IR Inten    --     26.1713                 1.1375                 8.5558

                     37                     38                     39
                      A                      A                      A
 Frequencies --   1271.7233              1284.3772              1303.5103
 Red. masses --      1.4514                 1.3701                 1.2526
 Frc consts  --      1.3830                 1.3316                 1.2540
 IR Inten    --      8.9790                45.5692                 7.8641

                     40                     41                     42
                      A                      A                      A
 Frequencies --   1345.7213              1363.6366              1382.3708
 Red. masses --      1.2734                 1.4904                 1.3764
 Frc consts  --      1.3587                 1.6328                 1.5497
 IR Inten    --     14.3229                 6.3446                 4.9701

                     43                     44                     45
                      A                      A                      A
 Frequencies --   1403.2090              1417.9658              1438.8912
 Red. masses --      1.3726                 1.2081                 1.2651
 Frc consts  --      1.5923                 1.4311                 1.5433
 IR Inten    --      7.0914                 6.5082                 7.7402

                     46                     47                     48
                      A                      A                      A
 Frequencies --   1442.3873              1450.0356              1465.9087
 Red. masses --      1.2942                 1.2149                 1.4573
 Frc consts  --      1.5864                 1.5050                 1.8450
 IR Inten    --      5.2898                41.3931                25.0593

                     49                     50                     51
                      A                      A                      A
 Frequencies --   1490.7305              1518.6302              1522.9299
 Red. masses --      1.1527                 1.0598                 1.0576
 Frc consts  --      1.5092                 1.4401                 1.4452
 IR Inten    --      0.9073                 1.5857                 2.7500

                     52                     53                     54
                      A                      A                      A
 Frequencies --   1528.5048              1532.5901              1539.3931
 Red. masses --      1.0465                 1.0429                 1.0526
 Frc consts  --      1.4406                 1.4432                 1.4696
 IR Inten    --      7.0846                 2.4645                 5.6361

                     55                     56                     57
                      A                      A                      A
 Frequencies --   1541.9373              1548.2835              3025.7874
 Red. masses --      1.0712                 1.0554                 1.0517
 Frc consts  --      1.5006                 1.4906                 5.6729
 IR Inten    --      8.5638                 3.7345                41.5470

                     58                     59                     60
                      A                      A                      A
 Frequencies --   3025.9667              3049.6432              3053.1316
 Red. masses --      1.0564                 1.0374                 1.0442
 Frc consts  --      5.6993                 5.6843                 5.7351
 IR Inten    --     24.1283                15.3197                19.6527

                     61                     62                     63
                      A                      A                      A
 Frequencies --   3061.9933              3075.2835              3084.0758
 Red. masses --      1.0774                 1.0938                 1.0863
 Frc consts  --      5.9518                 6.0950                 6.0877
 IR Inten    --     16.7447                12.7423                47.9390

                     64                     65                     66
                      A                      A                      A
 Frequencies --   3096.2859              3108.6118              3115.5339
 Red. masses --      1.0950                 1.0896                 1.0979
 Frc consts  --      6.1853                 6.2039                 6.2788
 IR Inten    --     40.7388                 5.2541                29.9204

                     67                     68                     69
                      A                      A                      A
 Frequencies --   3117.1158              3121.1816              3143.2582
 Red. masses --      1.0997                 1.1013                 1.1035
 Frc consts  --      6.2956                 6.3213                 6.4237
 IR Inten    --     56.9309                53.0697                32.5221

                     70                     71                     72
                      A                      A                      A
 Frequencies --   3149.2442              3733.7789              3743.4782
 Red. masses --      1.0990                 1.0656                 1.0658
 Frc consts  --      6.4219                 8.7528                 8.8003
 IR Inten    --     17.3903                 6.9736                21.6819

 - Thermochemistry -
 -------------------
 Temperature   298.150 Kelvin.  Pressure   1.00000 Atm.
 Atom     1 has atomic number  6 and mass  12.00000

 Molecular mass:   148.10994 amu.
 Principal axes and moments of inertia in atomic units:
                           1         2         3
     Eigenvalues --   958.349662288.613122427.24983
           X            0.99997  -0.00714   0.00148
           Y            0.00718   0.99947  -0.03173
           Z           -0.00125   0.03174   0.99950
 This molecule is an asymmetric top.
 Rotational symmetry number  1.
 Warning -- assumption of classical behavior for rotation
           may cause significant error
 Rotational temperatures (Kelvin)      0.09038     0.03785     0.03568
 Rotational constants (GHZ):           1.88318     0.78857     0.74353
 Zero-point vibrational energy     612080.1 (Joules/Mol)
                                  146.29064 (Kcal/Mol)
 Warning -- explicit consideration of  19 degrees of freedom as
           vibrations may cause significant error
 Vibrational temperatures:     74.81   101.94   161.90   193.33   237.05
          (Kelvin)            269.16   295.62   320.52   353.86   403.24
                              419.43   464.28   476.68   537.16   596.48
                              661.13   693.67   724.11   875.67   955.83
                             1135.18  1225.80  1276.22  1365.45  1375.84
                             1449.88  1494.67  1532.36  1541.11  1574.12
                             1606.21  1625.86  1662.63  1694.49  1711.73
                             1766.60  1829.73  1847.93  1875.46  1936.19
                             1961.97  1988.92  2018.90  2040.14  2070.24
                             2075.27  2086.28  2109.12  2144.83  2184.97
                             2191.16  2199.18  2205.06  2214.84  2218.50
                             2227.63  4353.43  4353.69  4387.76  4392.78
                             4405.53  4424.65  4437.30  4454.86  4472.60
                             4482.56  4484.83  4490.68  4522.45  4531.06
                             5372.08  5386.03

 Zero-point correction=                           0.233129 (Hartree/Particle)
 Thermal correction to Energy=                    0.245709
 Thermal correction to Enthalpy=                  0.246653
 Thermal correction to Gibbs Free Energy=         0.195038
 Sum of electronic and zero-point Energies=           -501.832224
 Sum of electronic and thermal Energies=              -501.819644
 Sum of electronic and thermal Enthalpies=            -501.818700
 Sum of electronic and thermal Free Energies=         -501.870315

                     E (Thermal)             CV                S
                      KCal/Mol        Cal/Mol-Kelvin    Cal/Mol-Kelvin
 Total                  154.185             45.844            108.634
 Electronic               0.000              0.000              0.000
 Translational            0.889              2.981             40.889
 Rotational               0.889              2.981             30.055
 Vibrational            152.407             39.883             37.690
 Vibration     1          0.596              1.977              4.740
 Vibration     2          0.598              1.968              4.130
 Vibration     3          0.607              1.939              3.225
 Vibration     4          0.613              1.919              2.883
 Vibration     5          0.623              1.886              2.494
 Vibration     6          0.632              1.858              2.257
 Vibration     7          0.640              1.832              2.084
 Vibration     8          0.648              1.806              1.936
 Vibration     9          0.660              1.769              1.759
 Vibration    10          0.680              1.710              1.532
 Vibration    11          0.687              1.690              1.465
 Vibration    12          0.708              1.630              1.296
 Vibration    13          0.714              1.613              1.254
 Vibration    14          0.745              1.527              1.066
 Vibration    15          0.778              1.439              0.911
 Vibration    16          0.817              1.340              0.768
 Vibration    17          0.838              1.290              0.704
 Vibration    18          0.859              1.243              0.650
 Vibration    19          0.967              1.014              0.435

 Optimization completed.
    -- Stationary point found.

 1\1\GINC-NODE377\Freq\RB3LYP\6-31G(d)\C7H16O3\VSC10255\08-Dec-2020\0\\
 #N Geom=AllCheck Guess=TCheck SCRF=Check GenChk RB3LYP/6-31G(d) Freq\\
 CID_90704336_JID_4_neutraal\\0,1\C,1.09373404,0.0490835124,-0.03691491
 07\C,0.5835187758,1.4580106807,0.2775234214\C,1.0038064078,2.527364277
 9,-0.7375493253\C,0.5523870913,2.2457175856,-2.1892906844\C,-0.9719724
 378,2.1955031546,-2.3392916832\C,1.1523161642,3.3033786235,-3.12483978
 36\O,2.558994315,3.1787916811,-3.0475447709\O,0.6991177799,3.224057283
 9,-4.4647108521\C,1.0214255162,2.0170818128,-5.1441089446\O,0.57084081

 Normal termination of Gaussian 16 at Tue Dec  8 10:20:25 2020.

 ----------------------------------------------------------------------
 # B3LYP/6-311++G(d,p) empiricaldispersion=gd3bj scf=xqc pop=npa geom=c
 heck
 ----------------------------------------------------------------------

 -----------------------------------
 CID_90704336_JID_4_Energie_neutraal
 -----------------------------------
 Structure from the checkpoint file:  "JID_4.chk"
 Charge =  0 Multiplicity = 1

 SCF Done:  E(RB3LYP) =  -502.234221767     A.U. after   14 cycles
 Normal termination of Gaussian 16 at Tue Dec  8 10:22:10 2020.

 ----------------------------------------------------------------------
 # B3LYP/6-311++G(d,p) empiricaldispersion=gd3bj scf=xqc pop=npa geom=c
 heck
 ----------------------------------------------------------------------

 ---------------------------------
 CID_90704336_JID_4_Energie_kation
 ---------------------------------
 Structure from the checkpoint file:  "JID_4.chk"
 Charge =  1 Multiplicity = 2

 SCF Done:  E(UB3LYP) =  -501.895444806     A.U. after   22 cycles
 Normal termination of Gaussian 16 at Tue Dec  8 10:25:51 2020.
 Gaussian 16:  ES64L-G16RevA.03 25-Dec-2016

 --------------------------------
 CID_90704336_JID_4_Energie_anion
 --------------------------------
 Structure from the checkpoint file:  "JID_4.chk"
 Charge = -1 Multiplicity = 2

                         Standard orientation:
 ---------------------------------------------------------------------
 Center     Atomic      Atomic             Coordinates (Angstroms)
 Number     Number       Type             X           Y           Z
 ---------------------------------------------------------------------
      1          6           0       -2.608574    1.534997   -0.804577
      2          6           0       -2.568003    0.201042   -0.054120
      3          6           0       -1.259493   -0.580888   -0.218180
      4          6           0        0.004921    0.182176    0.239692
      5          6           0       -0.016171    0.526891    1.732816
      6          6           0        1.251928   -0.641790   -0.106528
      7          8           0        1.282318   -0.781070   -1.513623
      8          8           0        2.465474   -0.101604    0.385855
      9          6           0        2.811195    1.179604   -0.125258
     10          8           0       -1.359710   -1.855642    0.429329
     11          1           0       -1.900581    2.259352   -0.387492
     12          1           0       -3.606994    1.981908   -0.751739
     13          1           0       -2.359028    1.398539   -1.863573
     14          1           0       -2.760826    0.373867    1.014893
     15          1           0       -3.375053   -0.451104   -0.408659
     16          1           0       -1.127145   -0.825167   -1.275562
     17          1           0        0.054763    1.108616   -0.345401
     18          1           0       -0.102495   -0.379646    2.344549
     19          1           0        0.908834    1.022913    2.034826
     20          1           0       -0.854303    1.186121    1.980257
     21          1           0        1.186357   -1.620292    0.381447
     22          1           0        1.988971   -1.412789   -1.720437
     23          1           0        2.730632    1.208451   -1.217367
     24          1           0        2.184028    1.975997    0.299245
     25          1           0        3.848322    1.358153    0.168753
     26          1           0       -1.614961   -1.690585    1.350714
 ---------------------------------------------------------------------

 SCF Done:  E(UB3LYP) =  -502.217284931     A.U. after   27 cycles

 The electronic state is 2-A.
 Alpha  occ. eigenvalues --  -19.02829 -19.02379 -19.01840 -10.16065 -10.11271
 Alpha  occ. eigenvalues --  -10.10193 -10.06974 -10.06313 -10.05736 -10.05507
 Alpha  occ. eigenvalues --   -0.96551  -0.92003  -0.90044  -0.70235  -0.66051
 Alpha  occ. eigenvalues --   -0.60678  -0.57794  -0.54704  -0.49725  -0.46467
 Alpha  occ. eigenvalues --   -0.43153  -0.40357  -0.39486  -0.36964  -0.34612
 Alpha  occ. eigenvalues --   -0.34162  -0.32375  -0.31499  -0.30799  -0.29337
 Alpha  occ. eigenvalues --   -0.28366  -0.27287  -0.26258  -0.25916  -0.24287
 Alpha  occ. eigenvalues --   -0.23780  -0.21601  -0.20557  -0.19960  -0.17636
 Alpha  occ. eigenvalues --   -0.16212   0.04759
 Alpha virt. eigenvalues --    0.06680   0.07434   0.07663   0.09342   0.09866
 Alpha virt. eigenvalues --    0.10201   0.10690   0.11350   0.12209   0.13060
 Alpha virt. eigenvalues --    0.13508   0.13885   0.14691   0.15055   0.16192

  Beta  occ. eigenvalues --  -19.02806 -19.02374 -19.01822 -10.16059 -10.11266
  Beta  occ. eigenvalues --  -10.10150 -10.06966 -10.06288 -10.05702 -10.05470
  Beta  occ. eigenvalues --   -0.96524  -0.91966  -0.90011  -0.70202  -0.66010
  Beta  occ. eigenvalues --   -0.60619  -0.57732  -0.54634  -0.49648  -0.46411
  Beta  occ. eigenvalues --   -0.43090  -0.40332  -0.39455  -0.36921  -0.34578
  Beta  occ. eigenvalues --   -0.34128  -0.32341  -0.31461  -0.30766  -0.29282
  Beta  occ. eigenvalues --   -0.28328  -0.27247  -0.26213  -0.25867  -0.24246
  Beta  occ. eigenvalues --   -0.23736  -0.21571  -0.20531  -0.19930  -0.17614
  Beta  occ. eigenvalues --   -0.16190
  Beta virt. eigenvalues --    0.07093   0.07735   0.08081   0.08539   0.10029
  Beta virt. eigenvalues --    0.10400   0.10768   0.11121   0.11859   0.12832
  Beta virt. eigenvalues --    0.13376   0.13784   0.14370   0.15028   0.15335

 Mulliken charges and spin densities:
               1          2
     1  C    0.847556  -1.484634
     2  C   -0.552338   0.432598
     3  C   -0.030936  -0.331840
     4  C   -1.204349   1.319455
     5  C    0.974457  -1.517914
     6  C    0.388128  -0.873413
     7  O   -0.215129   0.006594
     8  O   -0.169279   0.071813
     9  C    0.911912  -1.200048
    10  O   -0.179726  -0.018411
    11  H   -0.383858   0.544308
    12  H   -0.602302   0.751032
    13  H   -0.006880   0.140268
    14  H   -0.167747   0.311283
    15  H   -0.153819   0.319879
    16  H    0.088615   0.170603
    17  H    0.879413  -0.688111
    18  H   -0.145166   0.290631
    19  H   -0.025224   0.176151
    20  H   -0.291490   0.437233
    21  H    0.102709   0.114859
    22  H   -0.003348   0.268108
    23  H   -0.205671   0.364649
    24  H   -0.414254   0.557941
    25  H   -0.502126   0.660555
    26  H    0.060853   0.176414
 Sum of Mulliken charges =  -1.00000   1.00000

 Dipole moment (field-independent basis, Debye):
    X=              0.4226    Y=             -3.3967    Z=             -0.6246  Tot=              3.4794
 Quadrupole moment (field-independent basis, Debye-Ang):
   XX=           -128.6716   YY=           -104.7515   ZZ=            -97.1334
   XY=              0.7713   XZ=              0.0691   YZ=             -2.8812

 Summary of Natural Population Analysis:

                                       Natural Population
                Natural  -----------------------------------------------
    Atom  No    Charge         Core      Valence    Rydberg      Total
 -----------------------------------------------------------------------
      C    1   -0.28714      0.99966     2.28190    0.00558     3.28714
      C    2   -0.20153      0.99962     2.19259    0.00933     3.20153
      C    3    0.06702      0.99952     1.91955    0.01391     2.93298
      C    4   -0.14438      0.99956     2.13285    0.01198     3.14438
      C    5   -0.29416      0.99964     2.28640    0.00812     3.29416
      C    6    0.22193      0.99955     1.75964    0.01888     2.77807
      O    7   -0.37347      0.99989     3.36743    0.00615     4.37347
      O    8   -0.30580      0.99989     3.29582    0.01010     4.30580
      C    9   -0.10746      0.99960     2.09822    0.00964     3.10746
      O   10   -0.37473      0.99990     3.36835    0.00647     4.37473
      H   11    0.09908      0.00000     0.39953    0.00138     0.40092
      H   12    0.10131      0.00000     0.39741    0.00128     0.39869
      H   13    0.09653      0.00000     0.40240    0.00107     0.40347
      H   14    0.09435      0.00000     0.40396    0.00169     0.40565
      H   15    0.09984      0.00000     0.39902    0.00114     0.40016
      H   16    0.09607      0.00000     0.40216    0.00178     0.40393
      H   17    0.10613      0.00000     0.39133    0.00254     0.39387
      H   18    0.09532      0.00000     0.40330    0.00139     0.40468
      H   19    0.10918      0.00000     0.38959    0.00123     0.39082
      H   20    0.10276      0.00000     0.39597    0.00127     0.39724
      H   21    0.08157      0.00000     0.41645    0.00198     0.41843
      H   22    0.23201      0.00000     0.26484    0.00315     0.26799
      H   23    0.08828      0.00000     0.40989    0.00183     0.41172
      H   24    0.08106      0.00000     0.41730    0.00164     0.41894
      H   25    0.09038      0.00000     0.40809    0.00153     0.40962
      H   26    0.22586      0.00000     0.27096    0.00319     0.27414
 =======================================================================
   * Total *    0.00000      9.99682    30.87494    0.12823    41.00000

 Normal termination of Gaussian 16 at Tue Dec  8 10:30:30 2020.
