 Gaussian 16, Revision A.03,

 -----------------------------------------------------------
 # opt freq B3LYP/6-31G(d) empiricaldispersion=gd3bj scf=xqc
 -----------------------------------------------------------

 -------------------------------
 CID_129108903_JID_2514_neutraal
 -------------------------------
 Symbolic Z-matrix:
 Charge =  0 Multiplicity = 1

 SCF Done:  E(RB3LYP) =  -856.616795578     A.U. after   16 cycles
 SCF Done:  E(RB3LYP) =  -856.636920828     A.U. after   13 cycles
 SCF Done:  E(RB3LYP) =  -856.640679931     A.U. after   13 cycles
 SCF Done:  E(RB3LYP) =  -856.641352278     A.U. after   12 cycles
 SCF Done:  E(RB3LYP) =  -856.641803539     A.U. after   13 cycles
 SCF Done:  E(RB3LYP) =  -856.641887710     A.U. after   11 cycles
 SCF Done:  E(RB3LYP) =  -856.641967209     A.U. after   12 cycles
 SCF Done:  E(RB3LYP) =  -856.641971073     A.U. after    9 cycles
 SCF Done:  E(RB3LYP) =  -856.641972952     A.U. after    9 cycles
 SCF Done:  E(RB3LYP) =  -856.641974051     A.U. after    8 cycles
 SCF Done:  E(RB3LYP) =  -856.641974615     A.U. after    8 cycles
 Optimization completed.
    -- Stationary point found.
 Normal termination of Gaussian 16 at Wed Dec  9 17:29:36 2020.

 --------------------------------------------------------------------
 #N Geom=AllCheck Guess=TCheck SCRF=Check GenChk RB3LYP/6-31G(d) Freq
 --------------------------------------------------------------------

 Structure from the checkpoint file:  "JID_2514.chk"
 -------------------------------
 CID_129108903_JID_2514_neutraal
 -------------------------------
 Charge =  0 Multiplicity = 1

 SCF Done:  E(RB3LYP) =  -856.641974615     A.U. after    1 cycles

  Exact polarizability: 214.239   4.012 126.257  -7.751   1.788  69.105
 Approx polarizability: 339.063   6.797 221.474 -16.078   3.852 111.994

                      1                      2                      3
                      A                      A                      A
 Frequencies --     77.1356               121.0965               171.9344
 Red. masses --      5.9788                 4.4540                 4.7731
 Frc consts  --      0.0210                 0.0385                 0.0831
 IR Inten    --      0.2106                 0.1356                 0.6599

                      4                      5                      6
                      A                      A                      A
 Frequencies --    200.7540               233.2280               249.0121
 Red. masses --      2.8802                 2.2702                 1.3970
 Frc consts  --      0.0684                 0.0728                 0.0510
 IR Inten    --      1.5179                 1.3192                 0.2954

                      7                      8                      9
                      A                      A                      A
 Frequencies --    289.4888               347.5279               377.4215
 Red. masses --      2.7881                 3.1575                 4.2077
 Frc consts  --      0.1377                 0.2247                 0.3531
 IR Inten    --      3.6484                 2.6308                 2.5504

                     10                     11                     12
                      A                      A                      A
 Frequencies --    397.0116               425.3525               460.8332
 Red. masses --      5.1703                 3.7210                 1.1738
 Frc consts  --      0.4801                 0.3966                 0.1469
 IR Inten    --      2.4064                 6.2710                 0.5355

                     13                     14                     15
                      A                      A                      A
 Frequencies --    492.9072               534.6885               552.0400
 Red. masses --      3.4675                 1.5564                 2.0616
 Frc consts  --      0.4964                 0.2622                 0.3702
 IR Inten    --      0.6755               106.9054                82.9543

                     16                     17                     18
                      A                      A                      A
 Frequencies --    569.0252               631.5585               654.0095
 Red. masses --      4.3665                 2.8649                 5.4649
 Frc consts  --      0.8330                 0.6733                 1.3772
 IR Inten    --     26.4828                 5.9438                 5.7750

                     19                     20                     21
                      A                      A                      A
 Frequencies --    708.8576               740.9729               763.8601
 Red. masses --      5.1167                 3.9232                 3.7625
 Frc consts  --      1.5148                 1.2691                 1.2935
 IR Inten    --      3.8013                 3.9908                17.3194

                     22                     23                     24
                      A                      A                      A
 Frequencies --    788.2387               814.7186               824.2689
 Red. masses --      2.2732                 1.7193                 1.5468
 Frc consts  --      0.8321                 0.6724                 0.6192
 IR Inten    --     52.2606                20.1054                 5.3663

                     25                     26                     27
                      A                      A                      A
 Frequencies --    900.1070               949.6267               993.0433
 Red. masses --      2.2414                 1.9871                 1.5181
 Frc consts  --      1.0699                 1.0558                 0.8820
 IR Inten    --     11.5768                 3.6773                26.0499

                     28                     29                     30
                      A                      A                      A
 Frequencies --   1014.6276              1074.1653              1092.1847
 Red. masses --      2.9130                 1.8890                 1.9314
 Frc consts  --      1.7668                 1.2842                 1.3574
 IR Inten    --     16.4401                 5.4776                 1.2309

                     31                     32                     33
                      A                      A                      A
 Frequencies --   1112.4585              1145.5829              1175.5704
 Red. masses --      1.6832                 1.9701                 2.6919
 Frc consts  --      1.2273                 1.5233                 2.1918
 IR Inten    --      0.9635                 9.5610                 1.7310

                     34                     35                     36
                      A                      A                      A
 Frequencies --   1187.0751              1226.7485              1258.1215
 Red. masses --      1.6334                 2.5180                 2.6155
 Frc consts  --      1.3561                 2.2327                 2.4392
 IR Inten    --    252.1289                24.3622                62.6969

                     37                     38                     39
                      A                      A                      A
 Frequencies --   1276.3654              1303.7628              1355.8017
 Red. masses --      1.4342                 1.4160                 1.3927
 Frc consts  --      1.3766                 1.4181                 1.5083
 IR Inten    --     22.4949                16.2720                 4.7305

                     40                     41                     42
                      A                      A                      A
 Frequencies --   1368.2272              1378.6122              1395.7089
 Red. masses --      2.5618                 1.4899                 1.7529
 Frc consts  --      2.8256                 1.6684                 2.0118
 IR Inten    --     70.4431                97.2263                96.8568

                     43                     44                     45
                      A                      A                      A
 Frequencies --   1424.3854              1435.5638              1524.8550
 Red. masses --      2.8357                 1.2428                 1.0491
 Frc consts  --      3.3897                 1.5090                 1.4372
 IR Inten    --     65.7756                 7.3523                 6.1520

                     46                     47                     48
                      A                      A                      A
 Frequencies --   1526.4755              1544.4167              1626.5290
 Red. masses --      1.0494                 2.7663                 6.3677
 Frc consts  --      1.4407                 3.8876                 9.9256
 IR Inten    --      1.4276               512.7379               262.5184

                     49                     50                     51
                      A                      A                      A
 Frequencies --   1659.7637              1688.1254              3017.6438
 Red. masses --      5.7689                 6.9169                 1.0822
 Frc consts  --      9.3635                11.6137                 5.8061
 IR Inten    --     17.0406                10.3148                18.7272

                     52                     53                     54
                      A                      A                      A
 Frequencies --   3048.5409              3117.2209              3119.7540
 Red. masses --      1.0346                 1.0997                 1.0919
 Frc consts  --      5.6653                 6.2961                 6.2612
 IR Inten    --     35.5269                11.4042                27.0610

                     55                     56                     57
                      A                      A                      A
 Frequencies --   3122.7027              3125.0432              3133.4723
 Red. masses --      1.1001                 1.0876                 1.0875
 Frc consts  --      6.3204                 6.2579                 6.2914
 IR Inten    --      7.1914                55.7101                19.9597

                     58                     59                     60
                      A                      A                      A
 Frequencies --   3167.2776              3665.6588              3668.8631
 Red. masses --      1.0907                 1.0782                 1.0815
 Frc consts  --      6.4464                 8.5361                 8.5774
 IR Inten    --     26.5687               103.9183                25.7462

 - Thermochemistry -
 -------------------
 Temperature   298.150 Kelvin.  Pressure   1.00000 Atm.
 Atom     1 has atomic number  6 and mass  12.00000

 Molecular mass:   178.05647 amu.
 Principal axes and moments of inertia in atomic units:
                           1         2         3
     Eigenvalues --   940.409903717.419014482.83935
           X            0.99970  -0.02417   0.00275
           Y            0.02418   0.99969  -0.00647
           Z           -0.00259   0.00654   0.99998
 This molecule is an asymmetric top.
 Rotational symmetry number  1.
 Warning -- assumption of classical behavior for rotation
           may cause significant error
 Rotational temperatures (Kelvin)      0.09210     0.02330     0.01932
 Rotational constants (GHZ):           1.91910     0.48548     0.40259
 Zero-point vibrational energy     462057.7 (Joules/Mol)
                                  110.43445 (Kcal/Mol)
 Warning -- explicit consideration of  16 degrees of freedom as
           vibrations may cause significant error
 Vibrational temperatures:    110.98   174.23   247.38   288.84   335.56
          (Kelvin)            358.27   416.51   500.02   543.03   571.21
                              611.99   663.04   709.18   769.30   794.26
                              818.70   908.67   940.97  1019.89  1066.09
                             1099.02  1134.10  1172.20  1185.94  1295.05
                             1366.30  1428.77  1459.82  1545.48  1571.41
                             1600.58  1648.24  1691.38  1707.94  1765.02
                             1810.16  1836.41  1875.82  1950.70  1968.57
                             1983.52  2008.11  2049.37  2065.46  2193.93
                             2196.26  2222.07  2340.21  2388.03  2428.84
                             4341.72  4386.17  4484.99  4488.63  4492.87
                             4496.24  4508.37  4557.01  5274.07  5278.68

 Zero-point correction=                           0.175989 (Hartree/Particle)
 Thermal correction to Energy=                    0.186460
 Thermal correction to Enthalpy=                  0.187404
 Thermal correction to Gibbs Free Energy=         0.140092
 Sum of electronic and zero-point Energies=           -856.465986
 Sum of electronic and thermal Energies=              -856.455515
 Sum of electronic and thermal Enthalpies=            -856.454570
 Sum of electronic and thermal Free Energies=         -856.501883

                     E (Thermal)             CV                S
                      KCal/Mol        Cal/Mol-Kelvin    Cal/Mol-Kelvin
 Total                  117.005             41.759             99.577
 Electronic               0.000              0.000              0.000
 Translational            0.889              2.981             41.438
 Rotational               0.889              2.981             31.128
 Vibrational            115.228             35.797             27.012
 Vibration     1          0.599              1.964              3.962
 Vibration     2          0.609              1.932              3.083
 Vibration     3          0.626              1.877              2.414
 Vibration     4          0.638              1.839              2.126
 Vibration     5          0.654              1.790              1.854
 Vibration     6          0.662              1.764              1.738
 Vibration     7          0.686              1.693              1.477
 Vibration     8          0.725              1.580              1.177
 Vibration     9          0.748              1.518              1.049
 Vibration    10          0.764              1.477              0.974
 Vibration    11          0.787              1.415              0.874
 Vibration    12          0.819              1.337              0.764
 Vibration    13          0.849              1.266              0.676
 Vibration    14          0.890              1.173              0.577
 Vibration    15          0.907              1.135              0.540
 Vibration    16          0.925              1.098              0.506

                           ! Non-Optimized Parameters !
 Normal termination of Gaussian 16 at Wed Dec  9 17:35:11 2020.

 ----------------------------------------------------------------------
 # B3LYP/6-311++G(d,p) empiricaldispersion=gd3bj scf=xqc pop=npa geom=c
 heck
 ----------------------------------------------------------------------

 ---------------------------------------
 CID_129108903_JID_2514_Energie_neutraal
 ---------------------------------------
 Structure from the checkpoint file:  "JID_2514.chk"
 Charge =  0 Multiplicity = 1

 SCF Done:  E(RB3LYP) =  -856.792684326     A.U. after   16 cycles
 Normal termination of Gaussian 16 at Wed Dec  9 17:38:12 2020.

 ----------------------------------------------------------------------
 # B3LYP/6-311++G(d,p) empiricaldispersion=gd3bj scf=xqc pop=npa geom=c
 heck
 ----------------------------------------------------------------------

 -------------------------------------
 CID_129108903_JID_2514_Energie_kation
 -------------------------------------
 Structure from the checkpoint file:  "JID_2514.chk"
 Charge =  1 Multiplicity = 2

 SCF Done:  E(UB3LYP) =  -856.510434500     A.U. after   33 cycles
 SCF Done:  E(UB3LYP) =  -856.510434500     a.u. after    1 cycles
 Normal termination of Gaussian 16 at Wed Dec  9 17:46:22 2020.
 Gaussian 16:  ES64L-G16RevA.03 25-Dec-2016

 ----------------------------------------------------------------------
 # B3LYP/6-311++G(d,p) empiricaldispersion=gd3bj scf=xqc pop=npa geom=c
 heck
 ----------------------------------------------------------------------

 ------------------------------------
 CID_129108903_JID_2514_Energie_anion
 ------------------------------------
 Structure from the checkpoint file:  "JID_2514.chk"
 Charge = -1 Multiplicity = 2

                         Standard orientation:
 ---------------------------------------------------------------------
 Center     Atomic      Atomic             Coordinates (Angstroms)
 Number     Number       Type             X           Y           Z
 ---------------------------------------------------------------------
      1          6           0        3.536962   -1.580863    0.579197
      2          6           0        2.728807   -0.595518   -0.273623
      3          6           0        2.449001    0.729568    0.363195
      4          6           0        1.980079    1.784278   -0.339028
      5          6           0        0.607112    2.140579   -0.004658
      6          6           0       -0.185226    1.034187    0.094951
      7          6           0        0.146744   -0.401589   -0.240275
      8          6           0        1.291348   -1.084350   -0.502784
      9          7           0       -1.126073   -1.003018   -0.331471
     10          6           0       -2.156010   -0.179055    0.022556
     11         16           0       -3.771077   -0.552486    0.108013
     12          7           0       -1.566885    1.028739    0.301270
     13          1           0        3.081786   -1.693675    1.569713
     14          1           0        4.562513   -1.219430    0.711692
     15          1           0        3.580225   -2.571557    0.113016
     16          1           0        3.211366   -0.482904   -1.256291
     17          1           0        2.055287    0.619202    1.375471
     18          1           0        2.356678    2.022862   -1.335956
     19          1           0        0.176062    3.139949   -0.014300
     20          1           0        1.180577   -2.093641   -0.902757
     21          1           0       -1.283814   -1.988714   -0.476834
     22          1           0       -2.125665    1.844214    0.502266
 ---------------------------------------------------------------------

 SCF Done:  E(UB3LYP) =  -856.814995629     A.U. after   26 cycles

 The electronic state is 2-A.
 Alpha  occ. eigenvalues --  -88.65319 -14.22367 -14.22161 -10.13043 -10.07676
 Alpha  occ. eigenvalues --  -10.07262 -10.05195 -10.04332 -10.01780 -10.01779
 Alpha  occ. eigenvalues --  -10.01744 -10.01024  -7.74103  -5.70514  -5.69910
 Alpha  occ. eigenvalues --   -5.69693  -0.89023  -0.77292  -0.70696  -0.65357
 Alpha  occ. eigenvalues --   -0.62968  -0.57957  -0.55851  -0.52570  -0.49377
 Alpha  occ. eigenvalues --   -0.47251  -0.41529  -0.40600  -0.36887  -0.36178
 Alpha  occ. eigenvalues --   -0.33669  -0.32685  -0.31665  -0.29130  -0.28864
 Alpha  occ. eigenvalues --   -0.26345  -0.25029  -0.24631  -0.22921  -0.22131
 Alpha  occ. eigenvalues --   -0.20087  -0.19385  -0.17225  -0.09928  -0.08540
 Alpha  occ. eigenvalues --   -0.08216  -0.06294   0.03432
 Alpha virt. eigenvalues --    0.08406   0.09578   0.09979   0.10363   0.11636
 Alpha virt. eigenvalues --    0.11850   0.12559   0.12961   0.13205   0.13799
 Alpha virt. eigenvalues --    0.14292   0.14738   0.15568   0.16445   0.17024

  Beta  occ. eigenvalues --  -88.65279 -14.22465 -14.22225 -10.12695 -10.07638
  Beta  occ. eigenvalues --  -10.07054 -10.05225 -10.04314 -10.01850 -10.01529
  Beta  occ. eigenvalues --  -10.01383 -10.00642  -7.74067  -5.70505  -5.69774
  Beta  occ. eigenvalues --   -5.69670  -0.88816  -0.77327  -0.70244  -0.64994
  Beta  occ. eigenvalues --   -0.62571  -0.57661  -0.55522  -0.52392  -0.49258
  Beta  occ. eigenvalues --   -0.46588  -0.41235  -0.40337  -0.36596  -0.36115
  Beta  occ. eigenvalues --   -0.33475  -0.32348  -0.31065  -0.28932  -0.28714
  Beta  occ. eigenvalues --   -0.25992  -0.24678  -0.24429  -0.22594  -0.21866
  Beta  occ. eigenvalues --   -0.19750  -0.19366  -0.15792  -0.09192  -0.08421
  Beta  occ. eigenvalues --   -0.07167  -0.04882
  Beta virt. eigenvalues --    0.08192   0.09253   0.09632   0.09997   0.10356
  Beta virt. eigenvalues --    0.11660   0.11891   0.12777   0.13048   0.14055
  Beta virt. eigenvalues --    0.14252   0.14377   0.14737   0.15570   0.16731

 Mulliken charges and spin densities:
               1          2
     1  C   -0.631257  -0.008388
     2  C    0.120273  -0.062127
     3  C   -0.131756   0.320813
     4  C   -0.245156  -0.073300
     5  C   -0.399457   0.220823
     6  C    0.046933   0.097439
     7  C    0.213229  -0.070077
     8  C   -0.438708   0.323361
     9  N   -0.141532  -0.035572
    10  C    0.374852   0.177267
    11  S   -0.961599   0.090684
    12  N   -0.170194  -0.051495
    13  H    0.118948   0.005705
    14  H    0.110080   0.005885
    15  H    0.098118   0.008757
    16  H    0.107157   0.035277
    17  H    0.122181  -0.016778
    18  H    0.084513   0.025422
    19  H    0.106632  -0.012037
    20  H    0.084749   0.006526
    21  H    0.253540   0.007670
    22  H    0.278455   0.004144
 Sum of Mulliken charges =  -1.00000   1.00000

 Dipole moment (field-independent basis, Debye):
    X=              2.9084    Y=             -0.6225    Z=             -0.5199  Tot=              3.0193
 Quadrupole moment (field-independent basis, Debye-Ang):
   XX=           -139.0798   YY=            -90.7550   ZZ=            -89.1024
   XY=            -10.9316   XZ=             -1.3471   YZ=              0.9481

 Summary of Natural Population Analysis:

                                       Natural Population
                Natural  -----------------------------------------------
    Atom  No    Charge         Core      Valence    Rydberg      Total
 -----------------------------------------------------------------------
      C    1   -0.27644      0.99966     2.27202    0.00476     3.27644
      C    2   -0.14241      0.99956     2.13172    0.01112     3.14241
      C    3    0.00088      0.99945     1.98709    0.01258     2.99912
      C    4   -0.14868      0.99947     2.13769    0.01153     3.14868
      C    5   -0.10370      0.99947     2.09316    0.01108     3.10370
      C    6    0.11188      0.99947     1.87826    0.01038     2.88812
      C    7    0.06490      0.99947     1.92549    0.01014     2.93510
      C    8   -0.03704      0.99950     2.02799    0.00955     3.03704
      N    9   -0.30617      0.99961     2.79661    0.00995     3.80617
      C   10    0.19164      0.99967     1.78944    0.01925     2.80836
      S   11   -0.15801      4.99959     3.14268    0.01574     8.15801
      N   12   -0.31063      0.99961     2.80064    0.01037     3.81063
      H   13    0.09569      0.00000     0.40320    0.00111     0.40431
      H   14    0.09259      0.00000     0.40642    0.00099     0.40741
      H   15    0.08931      0.00000     0.40883    0.00186     0.41069
      H   16    0.09826      0.00000     0.39943    0.00231     0.40174
      H   17    0.08158      0.00000     0.41658    0.00184     0.41842
      H   18    0.08749      0.00000     0.41082    0.00169     0.41251
      H   19    0.08514      0.00000     0.41299    0.00188     0.41486
      H   20    0.08341      0.00000     0.41478    0.00181     0.41659
      H   21    0.19960      0.00000     0.29860    0.00181     0.30040
      H   22    0.20072      0.00000     0.29777    0.00150     0.29928
 =======================================================================
   * Total *    0.00000     15.99453    30.85221    0.15326    47.00000

 Normal termination of Gaussian 16 at Wed Dec  9 17:52:40 2020.
