 Gaussian 16, Revision A.03,

 -----------------------------------------------------------
 # opt freq B3LYP/6-31G(d) empiricaldispersion=gd3bj scf=xqc
 -----------------------------------------------------------

 -------------------------------
 CID_102834156_JID_4135_neutraal
 -------------------------------
 Symbolic Z-matrix:
 Charge =  0 Multiplicity = 1

 SCF Done:  E(RB3LYP) =  -1332.75235181     A.U. after   15 cycles
 SCF Done:  E(RB3LYP) =  -1332.75841258     A.U. after   13 cycles
 SCF Done:  E(RB3LYP) =  -1332.75909908     A.U. after   13 cycles
 SCF Done:  E(RB3LYP) =  -1332.75939080     A.U. after   12 cycles
 SCF Done:  E(RB3LYP) =  -1332.75956102     A.U. after   12 cycles
 SCF Done:  E(RB3LYP) =  -1332.75959829     A.U. after   12 cycles
 SCF Done:  E(RB3LYP) =  -1332.75976115     A.U. after   11 cycles
 SCF Done:  E(RB3LYP) =  -1332.75989060     A.U. after   11 cycles
 SCF Done:  E(RB3LYP) =  -1332.75993000     A.U. after   11 cycles
 SCF Done:  E(RB3LYP) =  -1332.75993581     A.U. after   10 cycles
 SCF Done:  E(RB3LYP) =  -1332.75993755     A.U. after    8 cycles
 SCF Done:  E(RB3LYP) =  -1332.75993779     A.U. after    8 cycles
 Optimization completed.
    -- Stationary point found.
 Normal termination of Gaussian 16 at Thu Dec 10 09:15:35 2020.

 --------------------------------------------------------------------
 #N Geom=AllCheck Guess=TCheck SCRF=Check GenChk RB3LYP/6-31G(d) Freq
 --------------------------------------------------------------------

 Structure from the checkpoint file:  "JID_4135.chk"
 -------------------------------
 CID_102834156_JID_4135_neutraal
 -------------------------------
 Charge =  0 Multiplicity = 1

 SCF Done:  E(RB3LYP) =  -1332.75993779     A.U. after    1 cycles

  Exact polarizability: 239.403   0.896 141.365   1.764  -3.583  67.492
 Approx polarizability: 359.500  13.939 267.660   2.719 -14.398 112.673

                      1                      2                      3
                      A                      A                      A
 Frequencies --     39.3081                56.7390                82.2961
 Red. masses --      4.4810                 9.2230                 8.4043
 Frc consts  --      0.0041                 0.0175                 0.0335
 IR Inten    --      0.8207                 0.4513                 0.4700

                      4                      5                      6
                      A                      A                      A
 Frequencies --     93.5712               149.8791               171.3543
 Red. masses --      7.8110                 6.3514                 2.9298
 Frc consts  --      0.0403                 0.0841                 0.0507
 IR Inten    --      0.4251                 0.8456                 1.2171

                      7                      8                      9
                      A                      A                      A
 Frequencies --    188.6833               218.7958               248.6265
 Red. masses --      1.4512                 4.1517                 4.8168
 Frc consts  --      0.0304                 0.1171                 0.1754
 IR Inten    --      0.6549                 0.7519                 0.5725

                     10                     11                     12
                      A                      A                      A
 Frequencies --    305.3078               328.9248               390.2725
 Red. masses --      4.4111                 6.1077                 5.4613
 Frc consts  --      0.2423                 0.3893                 0.4901
 IR Inten    --      0.2830                 2.4269                 3.0277

                     13                     14                     15
                      A                      A                      A
 Frequencies --    418.9978               474.1762               492.1110
 Red. masses --      9.7662                 5.0181                 6.4125
 Frc consts  --      1.0102                 0.6648                 0.9150
 IR Inten    --     21.4523                 1.6776                 4.2586

                     16                     17                     18
                      A                      A                      A
 Frequencies --    495.8906               572.9886               589.8197
 Red. masses --      3.7842                 2.3702                 3.3467
 Frc consts  --      0.5483                 0.4585                 0.6860
 IR Inten    --     21.6743                18.7546                17.3483

                     19                     20                     21
                      A                      A                      A
 Frequencies --    602.7079               654.6897               659.7294
 Red. masses --      2.0620                 2.5313                 3.9768
 Frc consts  --      0.4413                 0.6392                 1.0198
 IR Inten    --     37.3820                11.3391                33.8071

                     22                     23                     24
                      A                      A                      A
 Frequencies --    702.2183               719.8685               733.8234
 Red. masses --      5.6229                 3.7316                 2.0529
 Frc consts  --      1.6336                 1.1393                 0.6513
 IR Inten    --      1.3472                34.1971                32.1581

                     25                     26                     27
                      A                      A                      A
 Frequencies --    754.8714               755.8511               787.6547
 Red. masses --      6.1619                 5.3524                 6.3448
 Frc consts  --      2.0688                 1.8016                 2.3192
 IR Inten    --      3.8937                61.4287                 4.1017

                     28                     29                     30
                      A                      A                      A
 Frequencies --    830.7516               865.0595               892.4547
 Red. masses --      1.3666                 4.0720                 1.3090
 Frc consts  --      0.5557                 1.7954                 0.6143
 IR Inten    --     15.9276                25.3932                 0.7629

                     31                     32                     33
                      A                      A                      A
 Frequencies --    918.5949               982.5539              1047.8982
 Red. masses --      1.4109                 2.2806                 2.7904
 Frc consts  --      0.7014                 1.2972                 1.8054
 IR Inten    --      0.2833                 6.8516                54.3784

                     34                     35                     36
                      A                      A                      A
 Frequencies --   1063.4559              1104.3863              1113.2170
 Red. masses --      1.3911                 1.5839                 1.6686
 Frc consts  --      0.9270                 1.1382                 1.2183
 IR Inten    --      5.8072                61.5396                87.9106

                     37                     38                     39
                      A                      A                      A
 Frequencies --   1174.6076              1183.0676              1226.4639
 Red. masses --      2.0235                 2.7221                 1.8654
 Frc consts  --      1.6449                 2.2448                 1.6533
 IR Inten    --     45.4528                17.1847               340.7249

                     40                     41                     42
                      A                      A                      A
 Frequencies --   1231.8043              1282.8843              1354.1899
 Red. masses --      2.2246                 1.9632                 2.4828
 Frc consts  --      1.9888                 1.9037                 2.6825
 IR Inten    --      1.2584                 2.7147                 5.2949

                     43                     44                     45
                      A                      A                      A
 Frequencies --   1403.9845              1423.9188              1444.3245
 Red. masses --      3.1076                 3.4419                 1.2298
 Frc consts  --      3.6091                 4.1117                 1.5116
 IR Inten    --    195.7114                 5.8607                 0.2588

                     46                     47                     48
                      A                      A                      A
 Frequencies --   1492.7895              1512.2768              1519.4739
 Red. masses --      4.4345                 1.2042                 2.1869
 Frc consts  --      5.8223                 1.6226                 2.9749
 IR Inten    --     13.8949                24.7592               185.2563

                     49                     50                     51
                      A                      A                      A
 Frequencies --   1526.1398              1588.5717              1601.0629
 Red. masses --      1.5783                 5.6428                 5.9062
 Frc consts  --      2.1659                 8.3900                 8.9202
 IR Inten    --     43.0462                21.5239                 3.0511

                     52                     53                     54
                      A                      A                      A
 Frequencies --   1808.7971              3041.0247              3101.7680
 Red. masses --      9.6925                 1.0421                 1.0937
 Frc consts  --     18.6838                 5.6780                 6.1994
 IR Inten    --    412.4108                23.7595                13.9001

                     55                     56                     57
                      A                      A                      A
 Frequencies --   3133.2187              3224.7682              3238.5410
 Red. masses --      1.1027                 1.0911                 1.0893
 Frc consts  --      6.3782                 6.6853                 6.7313
 IR Inten    --      9.1981                 1.1616                 4.7729

                     58                     59                     60
                      A                      A                      A
 Frequencies --   3252.1116              3276.2138              3702.4241
 Red. masses --      1.0973                 1.0971                 1.0642
 Frc consts  --      6.8375                 6.9381                 8.5947
 IR Inten    --      1.9749                 0.3968                97.9753

 - Thermochemistry -
 -------------------
 Temperature   298.150 Kelvin.  Pressure   1.00000 Atm.
 Atom     1 has atomic number  6 and mass  12.00000

 Molecular mass:   223.99657 amu.
 Principal axes and moments of inertia in atomic units:
                           1         2         3
     Eigenvalues --  1087.784076923.057047833.80126
           X            1.00000  -0.00109   0.00190
           Y            0.00106   0.99989   0.01491
           Z           -0.00191  -0.01491   0.99989
 This molecule is an asymmetric top.
 Rotational symmetry number  1.
 Warning -- assumption of classical behavior for rotation
           may cause significant error
 Rotational temperatures (Kelvin)      0.07962     0.01251     0.01106
 Rotational constants (GHZ):           1.65910     0.26069     0.23038
 Zero-point vibrational energy     414218.7 (Joules/Mol)
                                   99.00064 (Kcal/Mol)
 Warning -- explicit consideration of  19 degrees of freedom as
           vibrations may cause significant error
 Vibrational temperatures:     56.56    81.63   118.41   134.63   215.64
          (Kelvin)            246.54   271.47   314.80   357.72   439.27
                              473.25   561.52   602.84   682.23   708.04
                              713.48   824.40   848.62   867.16   941.95
                              949.20  1010.34  1035.73  1055.81  1086.09
                             1087.50  1133.26  1195.27  1244.63  1284.04
                             1321.65  1413.68  1507.69  1530.08  1588.97
                             1601.67  1690.00  1702.17  1764.61  1772.29
                             1845.78  1948.38  2020.02  2048.70  2078.06
                             2147.79  2175.83  2186.18  2195.77  2285.60
                             2303.57  2602.46  4375.36  4462.75  4508.00
                             4639.72  4659.54  4679.06  4713.74  5326.96

 Zero-point correction=                           0.157768 (Hartree/Particle)
 Thermal correction to Energy=                    0.170618
 Thermal correction to Enthalpy=                  0.171562
 Thermal correction to Gibbs Free Energy=         0.117147
 Sum of electronic and zero-point Energies=          -1332.602170
 Sum of electronic and thermal Energies=             -1332.589320
 Sum of electronic and thermal Enthalpies=           -1332.588376
 Sum of electronic and thermal Free Energies=        -1332.642791

                     E (Thermal)             CV                S
                      KCal/Mol        Cal/Mol-Kelvin    Cal/Mol-Kelvin
 Total                  107.064             48.108            114.526
 Electronic               0.000              0.000              0.000
 Translational            0.889              2.981             42.122
 Rotational               0.889              2.981             32.445
 Vibrational            105.287             42.146             39.959
 Vibration     1          0.594              1.981              5.294
 Vibration     2          0.596              1.975              4.568
 Vibration     3          0.600              1.961              3.835
 Vibration     4          0.603              1.954              3.584
 Vibration     5          0.618              1.903              2.674
 Vibration     6          0.626              1.878              2.421
 Vibration     7          0.633              1.855              2.241
 Vibration     8          0.647              1.812              1.969
 Vibration     9          0.662              1.765              1.740
 Vibration    10          0.696              1.664              1.388
 Vibration    11          0.712              1.618              1.265
 Vibration    12          0.758              1.491              0.999
 Vibration    13          0.782              1.429              0.895
 Vibration    14          0.831              1.307              0.726
 Vibration    15          0.848              1.268              0.678
 Vibration    16          0.851              1.259              0.668
 Vibration    17          0.929              1.090              0.499
 Vibration    18          0.947              1.053              0.467
 Vibration    19          0.961              1.026              0.445

 Optimization completed.
    -- Stationary point found.
 Normal termination of Gaussian 16 at Thu Dec 10 09:20:44 2020.

 ----------------------------------------------------------------------
 # B3LYP/6-311++G(d,p) empiricaldispersion=gd3bj scf=xqc pop=npa geom=c
 heck
 ----------------------------------------------------------------------

 ---------------------------------------
 CID_102834156_JID_4135_Energie_neutraal
 ---------------------------------------
 Structure from the checkpoint file:  "JID_4135.chk"
 Charge =  0 Multiplicity = 1

 SCF Done:  E(RB3LYP) =  -1332.96626008     A.U. after   17 cycles
 Normal termination of Gaussian 16 at Thu Dec 10 09:22:58 2020.

 ----------------------------------------------------------------------
 # B3LYP/6-311++G(d,p) empiricaldispersion=gd3bj scf=xqc pop=npa geom=c
 heck
 ----------------------------------------------------------------------

 -------------------------------------
 CID_102834156_JID_4135_Energie_kation
 -------------------------------------
 Structure from the checkpoint file:  "JID_4135.chk"
 Charge =  1 Multiplicity = 2

 SCF Done:  E(UB3LYP) =  -1332.67681334     A.U. after   27 cycles
 Normal termination of Gaussian 16 at Thu Dec 10 09:27:34 2020.
 Gaussian 16:  ES64L-G16RevA.03 25-Dec-2016

 ----------------------------------------------------------------------
 # B3LYP/6-311++G(d,p) empiricaldispersion=gd3bj scf=xqc pop=npa geom=c
 heck
 ----------------------------------------------------------------------

 ------------------------------------
 CID_102834156_JID_4135_Energie_anion
 ------------------------------------
 Structure from the checkpoint file:  "JID_4135.chk"
 Charge = -1 Multiplicity = 2

                         Standard orientation:
 ---------------------------------------------------------------------
 Center     Atomic      Atomic             Coordinates (Angstroms)
 Number     Number       Type             X           Y           Z
 ---------------------------------------------------------------------
      1          6           0        2.450352    2.150478    0.551882
      2          6           0        2.521484    0.703484    0.169678
      3          6           0        1.495389   -0.169679   -0.146407
      4          6           0        1.972551   -1.501804   -0.415439
      5          6           0        3.324866   -1.620975   -0.313904
      6         16           0        4.061620   -0.109606    0.120727
      7          6           0        0.083461    0.193934   -0.185688
      8          6           0       -0.497843    1.402374   -0.529965
      9          6           0       -1.910834    1.384383   -0.457566
     10          6           0       -2.411583    0.164181   -0.061407
     11         16           0       -1.136448   -0.983009    0.240642
     12          6           0       -3.799198   -0.252018    0.120303
     13          8           0       -4.157136   -1.362283    0.466376
     14          8           0       -4.677286    0.752827   -0.142110
     15          1           0        3.288015    2.433259    1.196721
     16          1           0        2.476288    2.807977   -0.326941
     17          1           0        1.519692    2.354372    1.090794
     18          1           0        1.317857   -2.319882   -0.694340
     19          1           0        3.934492   -2.498381   -0.478870
     20          1           0        0.075362    2.258302   -0.862713
     21          1           0       -2.549847    2.225473   -0.697829
     22          1           0       -5.561104    0.370205    0.008222
 ---------------------------------------------------------------------

 SCF Done:  E(UB3LYP) =  -1332.98613833     A.U. after   27 cycles

 The electronic state is 2-A.
 Alpha  occ. eigenvalues --  -88.75173 -88.71498 -19.02566 -18.95010 -10.13902
 Alpha  occ. eigenvalues --  -10.07999 -10.06987 -10.06478 -10.05819 -10.05561
 Alpha  occ. eigenvalues --  -10.04999 -10.03902 -10.02884 -10.02656  -7.83829
 Alpha  occ. eigenvalues --   -7.80173  -5.80117  -5.79759  -5.79437  -5.76472
 Alpha  occ. eigenvalues --   -5.76113  -5.75778  -0.96026  -0.86592  -0.76437
 Alpha  occ. eigenvalues --   -0.73048  -0.64988  -0.63526  -0.59084  -0.58284
 Alpha  occ. eigenvalues --   -0.56101  -0.50275  -0.44663  -0.43650  -0.41060
 Alpha  occ. eigenvalues --   -0.39310  -0.38162  -0.34294  -0.33255  -0.31781
 Alpha  occ. eigenvalues --   -0.31734  -0.30761  -0.29521  -0.27686  -0.26352
 Alpha  occ. eigenvalues --   -0.25962  -0.25236  -0.24871  -0.23563  -0.22893
 Alpha  occ. eigenvalues --   -0.21724  -0.19492  -0.18463  -0.14634  -0.13446
 Alpha  occ. eigenvalues --   -0.12298  -0.11253  -0.08271   0.03675
 Alpha virt. eigenvalues --    0.08167   0.08498   0.09172   0.09402   0.10686
 Alpha virt. eigenvalues --    0.11418   0.12101   0.12638   0.13203   0.13933
 Alpha virt. eigenvalues --    0.14282   0.14488   0.14992   0.15192   0.16053

  Beta  occ. eigenvalues --  -88.75151 -88.71426 -19.02508 -18.94754 -10.13682
  Beta  occ. eigenvalues --  -10.08020 -10.06650 -10.06502 -10.05807 -10.05604
  Beta  occ. eigenvalues --  -10.04646 -10.03703 -10.02935 -10.02515  -7.83810
  Beta  occ. eigenvalues --   -7.80108  -5.80106  -5.79753  -5.79361  -5.76442
  Beta  occ. eigenvalues --   -5.76083  -5.75539  -0.95771  -0.86204  -0.76225
  Beta  occ. eigenvalues --   -0.72713  -0.64755  -0.63196  -0.58735  -0.57962
  Beta  occ. eigenvalues --   -0.55931  -0.49821  -0.44553  -0.43374  -0.40711
  Beta  occ. eigenvalues --   -0.39089  -0.37968  -0.34097  -0.32993  -0.31657
  Beta  occ. eigenvalues --   -0.31404  -0.29631  -0.29354  -0.27533  -0.26186
  Beta  occ. eigenvalues --   -0.25631  -0.25073  -0.24687  -0.23438  -0.22104
  Beta  occ. eigenvalues --   -0.21484  -0.19174  -0.17389  -0.13949  -0.13182
  Beta  occ. eigenvalues --   -0.11551  -0.10194  -0.06704
  Beta virt. eigenvalues --    0.08117   0.08464   0.08908   0.09195   0.10257
  Beta virt. eigenvalues --    0.10767   0.11469   0.12177   0.12610   0.13253
  Beta virt. eigenvalues --    0.13947   0.14355   0.14950   0.15111   0.15328

 Mulliken charges and spin densities:
               1          2
     1  C   -0.248675  -0.023914
     2  C    1.301525   0.206506
     3  C   -1.044358  -0.047208
     4  C    0.318099   0.002349
     5  C   -0.291347  -0.011604
     6  S   -0.702701   0.049107
     7  C   -0.203378   0.175937
     8  C   -0.256767  -0.006815
     9  C    0.273304   0.180079
    10  C   -0.229167   0.035049
    11  S   -0.729420   0.137702
    12  C    0.203563   0.164130
    13  O   -0.422974   0.089778
    14  O   -0.228469   0.013348
    15  H    0.104507   0.004094
    16  H    0.147327   0.031575
    17  H    0.168914   0.005644
    18  H    0.127317   0.004537
    19  H    0.209826   0.002388
    20  H    0.078820  -0.003169
    21  H    0.164800  -0.008890
    22  H    0.259255  -0.000621
 Sum of Mulliken charges =  -1.00000   1.00000

 Dipole moment (field-independent basis, Debye):
    X=              4.2529    Y=              1.9399    Z=             -0.5890  Tot=              4.7114
 Quadrupole moment (field-independent basis, Debye-Ang):
   XX=           -144.5392   YY=           -107.2158   ZZ=           -106.3547
   XY=             -8.8308   XZ=              2.4039   YZ=              3.1144

 Summary of Natural Population Analysis:

                                       Natural Population
                Natural  -----------------------------------------------
    Atom  No    Charge         Core      Valence    Rydberg      Total
 -----------------------------------------------------------------------
      C    1   -0.30362      0.99962     2.29830    0.00569     3.30362
      C    2   -0.02729      0.99948     2.01723    0.01058     3.02729
      C    3   -0.07234      0.99935     2.06301    0.00998     3.07234
      C    4   -0.11039      0.99952     2.10140    0.00946     3.11039
      C    5   -0.21476      0.99955     2.20424    0.01098     3.21476
      S    6    0.18607      4.99942     2.79104    0.02348     7.81393
      C    7   -0.03376      0.99947     2.02203    0.01226     3.03376
      C    8   -0.15035      0.99950     2.14173    0.00912     3.15035
      C    9   -0.08112      0.99951     2.07158    0.01003     3.08112
      C   10   -0.12844      0.99944     2.11624    0.01276     3.12844
      S   11    0.23630      4.99942     2.74316    0.02113     7.76370
      C   12    0.40611      0.99960     1.56981    0.02448     2.59389
      O   13   -0.30887      0.99987     3.30119    0.00781     4.30887
      O   14   -0.35273      0.99988     3.34700    0.00585     4.35273
      H   15    0.09840      0.00000     0.40062    0.00097     0.40160
      H   16    0.10242      0.00000     0.39656    0.00101     0.39758
      H   17    0.11405      0.00000     0.38470    0.00125     0.38595
      H   18    0.10784      0.00000     0.39096    0.00120     0.39216
      H   19    0.10253      0.00000     0.39643    0.00104     0.39747
      H   20    0.09818      0.00000     0.40043    0.00139     0.40182
      H   21    0.10190      0.00000     0.39701    0.00109     0.39810
      H   22    0.22986      0.00000     0.26683    0.00331     0.27014
 =======================================================================
   * Total *    0.00000     21.99363    35.82151    0.18486    58.00000

 Normal termination of Gaussian 16 at Thu Dec 10 09:32:09 2020.
