 Gaussian 16, Revision A.03,

 -----------------------------------------------------------
 # opt freq B3LYP/6-31G(d) empiricaldispersion=gd3bj scf=xqc
 -----------------------------------------------------------

 ----------------------------
 CID_241378_JID_6940_neutraal
 ----------------------------
 Symbolic Z-matrix:
 Charge =  0 Multiplicity = 1

 SCF Done:  E(RB3LYP) =  -697.249016441     A.U. after   14 cycles
 SCF Done:  E(RB3LYP) =  -697.251318046     A.U. after   11 cycles
 SCF Done:  E(RB3LYP) =  -697.251643647     A.U. after   11 cycles
 SCF Done:  E(RB3LYP) =  -697.251910974     A.U. after   11 cycles
 SCF Done:  E(RB3LYP) =  -697.252007964     A.U. after   11 cycles
 SCF Done:  E(RB3LYP) =  -697.252064305     A.U. after   11 cycles
 SCF Done:  E(RB3LYP) =  -697.252100789     A.U. after   10 cycles
 SCF Done:  E(RB3LYP) =  -697.252200794     A.U. after   11 cycles
 SCF Done:  E(RB3LYP) =  -697.252297715     A.U. after   11 cycles
 SCF Done:  E(RB3LYP) =  -697.252321321     A.U. after   12 cycles
 SCF Done:  E(RB3LYP) =  -697.252372093     A.U. after   10 cycles
 SCF Done:  E(RB3LYP) =  -697.252372986     A.U. after    8 cycles
 SCF Done:  E(RB3LYP) =  -697.252373182     A.U. after    7 cycles
 SCF Done:  E(RB3LYP) =  -697.252373221     A.U. after    7 cycles
 SCF Done:  E(RB3LYP) =  -697.252373269     A.U. after    7 cycles
 Optimization completed.
    -- Stationary point found.
 Normal termination of Gaussian 16 at Fri Dec 11 01:18:04 2020.

 --------------------------------------------------------------------
 #N Geom=AllCheck Guess=TCheck SCRF=Check GenChk RB3LYP/6-31G(d) Freq
 --------------------------------------------------------------------

 Structure from the checkpoint file:  "JID_6940.chk"
 ----------------------------
 CID_241378_JID_6940_neutraal
 ----------------------------
 Charge =  0 Multiplicity = 1

 SCF Done:  E(RB3LYP) =  -697.252373269     A.U. after    1 cycles

  Exact polarizability: 185.085   6.404 159.951  -8.232   7.222 111.070
 Approx polarizability: 252.386  13.287 245.223 -18.505  20.762 166.869

                      1                      2                      3
                      A                      A                      A
 Frequencies --     24.9860                35.4323                51.5044
 Red. masses --      3.0524                 3.0952                 3.1346
 Frc consts  --      0.0011                 0.0023                 0.0049
 IR Inten    --      0.1925                 0.0916                 0.2660

                      4                      5                      6
                      A                      A                      A
 Frequencies --     65.0092                94.4961               146.6882
 Red. masses --      3.0300                 4.3461                 3.8581
 Frc consts  --      0.0075                 0.0229                 0.0489
 IR Inten    --      0.4197                 0.0948                 2.6383

                      7                      8                      9
                      A                      A                      A
 Frequencies --    180.3477               223.6695               231.6612
 Red. masses --      3.4076                 1.8346                 1.2118
 Frc consts  --      0.0653                 0.0541                 0.0383
 IR Inten    --      2.9464                 0.4615                 0.5381

                     10                     11                     12
                      A                      A                      A
 Frequencies --    237.2314               257.4956               264.4603
 Red. masses --      1.4965                 2.8607                 1.8283
 Frc consts  --      0.0496                 0.1118                 0.0753
 IR Inten    --      0.3349                 2.2806                 1.4018

                     13                     14                     15
                      A                      A                      A
 Frequencies --    270.7813               277.6001               305.8949
 Red. masses --      1.1731                 1.1472                 3.0199
 Frc consts  --      0.0507                 0.0521                 0.1665
 IR Inten    --      1.5536                 0.0068                 0.8937

                     16                     17                     18
                      A                      A                      A
 Frequencies --    328.6017               335.3788               346.1053
 Red. masses --      2.5400                 1.0518                 2.6343
 Frc consts  --      0.1616                 0.0697                 0.1859
 IR Inten    --      0.8126                 1.1290                 2.6789

                     19                     20                     21
                      A                      A                      A
 Frequencies --    350.9332               368.3813               376.7833
 Red. masses --      1.1482                 2.4577                 2.1518
 Frc consts  --      0.0833                 0.1965                 0.1800
 IR Inten    --     93.5110                 5.8986                 1.9334

                     22                     23                     24
                      A                      A                      A
 Frequencies --    420.8939               445.0433               449.5557
 Red. masses --      3.1187                 3.5622                 3.2780
 Frc consts  --      0.3255                 0.4157                 0.3903
 IR Inten    --      4.6921                 0.6109                 2.5973

                     25                     26                     27
                      A                      A                      A
 Frequencies --    471.9449               512.8954               532.2348
 Red. masses --      3.4068                 3.2377                 2.8986
 Frc consts  --      0.4471                 0.5018                 0.4838
 IR Inten    --      1.6574                 6.7696                 3.9800

                     28                     29                     30
                      A                      A                      A
 Frequencies --    571.6200               588.8854               623.5756
 Red. masses --      2.9009                 4.0335                 3.2820
 Frc consts  --      0.5585                 0.8241                 0.7519
 IR Inten    --      7.2643                 9.5039                 7.1035

                     31                     32                     33
                      A                      A                      A
 Frequencies --    676.7360               737.3417               796.0896
 Red. masses --      5.5643                 4.5346                 3.0422
 Frc consts  --      1.5014                 1.4526                 1.1359
 IR Inten    --      3.8337                 2.9951                 7.9803

                     34                     35                     36
                      A                      A                      A
 Frequencies --    812.1146               821.1037               836.4519
 Red. masses --      1.4890                 3.9070                 3.9151
 Frc consts  --      0.5786                 1.5520                 1.6139
 IR Inten    --     20.1205                 1.5528                15.6598

                     37                     38                     39
                      A                      A                      A
 Frequencies --    919.7798               927.6688               933.1630
 Red. masses --      2.0551                 1.3918                 1.3904
 Frc consts  --      1.0244                 0.7057                 0.7134
 IR Inten    --      2.9785                 2.0263                 0.2593

                     40                     41                     42
                      A                      A                      A
 Frequencies --    940.4989               941.7535               948.2346
 Red. masses --      2.2260                 2.0855                 1.2963
 Frc consts  --      1.1601                 1.0898                 0.6868
 IR Inten    --      4.7805                 2.6709                 2.4753

                     43                     44                     45
                      A                      A                      A
 Frequencies --    952.7257               953.2648               974.3343
 Red. masses --      1.5180                 1.6653                 1.1967
 Frc consts  --      0.8118                 0.8916                 0.6693
 IR Inten    --      8.7701                 3.3172                 0.1368

                     46                     47                     48
                      A                      A                      A
 Frequencies --   1037.1108              1059.2729              1064.5172
 Red. masses --      2.2677                 1.4105                 1.3892
 Frc consts  --      1.4371                 0.9325                 0.9275
 IR Inten    --     15.4853                 2.8257                 0.0383

                     49                     50                     51
                      A                      A                      A
 Frequencies --   1079.6172              1124.6384              1155.4182
 Red. masses --      2.4004                 2.1705                 2.1229
 Frc consts  --      1.6485                 1.6175                 1.6698
 IR Inten    --     61.6338                32.4575                13.2472

                     52                     53                     54
                      A                      A                      A
 Frequencies --   1156.3788              1194.8205              1208.4298
 Red. masses --      1.9710                 2.2736                 1.2950
 Frc consts  --      1.5529                 1.9123                 1.1142
 IR Inten    --     53.4730               154.9804                48.5879

                     55                     56                     57
                      A                      A                      A
 Frequencies --   1210.1766              1233.1138              1243.6487
 Red. masses --      2.0477                 2.0850                 2.7080
 Frc consts  --      1.7669                 1.8679                 2.4677
 IR Inten    --     17.4625                16.3631                 3.6023

                     58                     59                     60
                      A                      A                      A
 Frequencies --   1248.9433              1295.7832              1313.2244
 Red. masses --      2.2370                 2.1079                 2.3707
 Frc consts  --      2.0559                 2.0853                 2.4088
 IR Inten    --      9.8436                10.2459               103.8889

                     61                     62                     63
                      A                      A                      A
 Frequencies --   1319.9624              1331.4804              1379.6117
 Red. masses --      1.6579                 1.8746                 1.4031
 Frc consts  --      1.7019                 1.9581                 1.5734
 IR Inten    --     34.5505                34.3611                10.7227

                     64                     65                     66
                      A                      A                      A
 Frequencies --   1382.6035              1407.5087              1419.0023
 Red. masses --      2.0563                 1.2788                 1.5071
 Frc consts  --      2.3160                 1.4926                 1.7880
 IR Inten    --     37.2272                19.4915                15.4069

                     67                     68                     69
                      A                      A                      A
 Frequencies --   1426.2588              1427.3878              1428.5917
 Red. masses --      1.2157                 1.2787                 1.2633
 Frc consts  --      1.4570                 1.5349                 1.5190
 IR Inten    --      3.9149                13.1017                 6.3428

                     70                     71                     72
                      A                      A                      A
 Frequencies --   1445.3150              1458.3588              1475.1603
 Red. masses --      1.2580                 1.2231                 2.9447
 Frc consts  --      1.5483                 1.5327                 3.7755
 IR Inten    --     22.7436                 2.4548                30.0685

                     73                     74                     75
                      A                      A                      A
 Frequencies --   1512.4656              1512.8137              1515.1799
 Red. masses --      1.0500                 1.0489                 1.0713
 Frc consts  --      1.4151                 1.4143                 1.4490
 IR Inten    --      0.3057                 1.1547                 0.6794

                     76                     77                     78
                      A                      A                      A
 Frequencies --   1516.5212              1519.6352              1520.0927
 Red. masses --      1.0458                 1.0578                 1.0579
 Frc consts  --      1.4171                 1.4392                 1.4402
 IR Inten    --      0.1063                 2.6354                 0.7821

                     79                     80                     81
                      A                      A                      A
 Frequencies --   1532.9069              1534.2051              1537.3601
 Red. masses --      1.0915                 1.0573                 1.0565
 Frc consts  --      1.5112                 1.4662                 1.4713
 IR Inten    --     15.2680                12.2910                 6.2038

                     82                     83                     84
                      A                      A                      A
 Frequencies --   1538.0152              1549.7400              1558.2904
 Red. masses --      1.0512                 1.1104                 2.2497
 Frc consts  --      1.4651                 1.5713                 3.2186
 IR Inten    --      3.7273                 0.5916                72.3856

                     85                     86                     87
                      A                      A                      A
 Frequencies --   1659.4280              1673.2058              3040.1705
 Red. masses --      5.9915                 6.2013                 1.0607
 Frc consts  --      9.7208                10.2289                 5.7761
 IR Inten    --      1.2088                15.9268                33.0813

                     88                     89                     90
                      A                      A                      A
 Frequencies --   3042.4430              3044.1665              3051.7952
 Red. masses --      1.0352                 1.0349                 1.0373
 Frc consts  --      5.6459                 5.6507                 5.6919
 IR Inten    --     27.9852                28.6189                26.3901

                     91                     92                     93
                      A                      A                      A
 Frequencies --   3052.0278              3058.3214              3060.0204
 Red. masses --      1.0361                 1.0396                 1.0852
 Frc consts  --      5.6863                 5.7293                 5.9871
 IR Inten    --     19.5075                 6.2390                23.4623

                     94                     95                     96
                      A                      A                      A
 Frequencies --   3083.0718              3108.2853              3109.9332
 Red. masses --      1.0985                 1.1017                 1.1021
 Frc consts  --      6.1520                 6.2714                 6.2801
 IR Inten    --     25.6891                 6.0225                 8.6833

                     97                     98                     99
                      A                      A                      A
 Frequencies --   3114.8807              3117.4256              3118.8085
 Red. masses --      1.1017                 1.1020                 1.1026
 Frc consts  --      6.2977                 6.3099                 6.3189
 IR Inten    --      2.4605                69.8827                38.8226

                    100                    101                    102
                      A                      A                      A
 Frequencies --   3122.0819              3123.7074              3124.1919
 Red. masses --      1.1019                 1.1017                 1.1008
 Frc consts  --      6.3282                 6.3336                 6.3306
 IR Inten    --     32.1949                28.0938               100.0780

                    103                    104                    105
                      A                      A                      A
 Frequencies --   3133.6805              3144.5523              3159.9097
 Red. masses --      1.1029                 1.1016                 1.0887
 Frc consts  --      6.3812                 6.4181                 6.4046
 IR Inten    --     26.3711                23.6419                24.0505

                    106                    107                    108
                      A                      A                      A
 Frequencies --   3197.8623              3243.0638              3754.9577
 Red. masses --      1.0914                 1.0880                 1.0659
 Frc consts  --      6.5757                 6.7421                 8.8551
 IR Inten    --     20.4914                 1.2359                42.5053

 - Thermochemistry -
 -------------------
 Temperature   298.150 Kelvin.  Pressure   1.00000 Atm.
 Atom     1 has atomic number  6 and mass  12.00000

 Molecular mass:   222.16198 amu.
 Principal axes and moments of inertia in atomic units:
                           1         2         3
     Eigenvalues --  2417.826905380.274426817.24708
           X            0.99998   0.00176   0.00610
           Y           -0.00173   0.99999  -0.00493
           Z           -0.00611   0.00492   0.99997
 This molecule is an asymmetric top.
 Rotational symmetry number  1.
 Warning -- assumption of classical behavior for rotation
           may cause significant error
 Rotational temperatures (Kelvin)      0.03582     0.01610     0.01271
 Rotational constants (GHZ):           0.74643     0.33544     0.26473
 Zero-point vibrational energy     883878.3 (Joules/Mol)
                                  211.25197 (Kcal/Mol)
 Warning -- explicit consideration of  29 degrees of freedom as
           vibrations may cause significant error
 Vibrational temperatures:     35.95    50.98    74.10    93.53   135.96
          (Kelvin)            211.05   259.48   321.81   333.31   341.32
                              370.48   380.50   389.59   399.40   440.11
                              472.78   482.54   497.97   504.91   530.02
                              542.11   605.57   640.32   646.81   679.02
                              737.94   765.77   822.43   847.27   897.19
                              973.67  1060.87  1145.40  1168.45  1181.39
                             1203.47  1323.36  1334.71  1342.61  1353.17
                             1354.97  1364.30  1370.76  1371.54  1401.85
                             1492.17  1524.06  1531.60  1553.33  1618.10
                             1662.39  1663.77  1719.08  1738.66  1741.17
                             1774.18  1789.33  1796.95  1864.34  1889.44
                             1899.13  1915.70  1984.95  1989.26  2025.09
                             2041.63  2052.07  2053.69  2055.42  2079.49
                             2098.25  2122.43  2176.10  2176.60  2180.01
                             2181.94  2186.42  2187.07  2205.51  2207.38
                             2211.92  2212.86  2229.73  2242.03  2387.55
                             2407.37  4374.13  4377.40  4379.88  4390.85
                             4391.19  4400.24  4402.69  4435.85  4472.13
                             4474.50  4481.62  4485.28  4487.27  4491.98
                             4494.32  4495.02  4508.67  4524.31  4546.41
                             4601.01  4666.05  5402.55

 Zero-point correction=                           0.336651 (Hartree/Particle)
 Thermal correction to Energy=                    0.354169
 Thermal correction to Enthalpy=                  0.355113
 Thermal correction to Gibbs Free Energy=         0.291410
 Sum of electronic and zero-point Energies=           -696.915722
 Sum of electronic and thermal Energies=              -696.898205
 Sum of electronic and thermal Enthalpies=            -696.897260
 Sum of electronic and thermal Free Energies=         -696.960963

                     E (Thermal)             CV                S
                      KCal/Mol        Cal/Mol-Kelvin    Cal/Mol-Kelvin
 Total                  222.244             67.715            134.074
 Electronic               0.000              0.000              0.000
 Translational            0.889              2.981             42.097
 Rotational               0.889              2.981             32.850
 Vibrational            220.467             61.753             59.127
 Vibration     1          0.593              1.985              6.192
 Vibration     2          0.594              1.982              5.499
 Vibration     3          0.596              1.977              4.759
 Vibration     4          0.597              1.971              4.299
 Vibration     5          0.603              1.953              3.565
 Vibration     6          0.617              1.906              2.715
 Vibration     7          0.629              1.866              2.325
 Vibration     8          0.649              1.805              1.929
 Vibration     9          0.653              1.793              1.866
 Vibration    10          0.656              1.784              1.824
 Vibration    11          0.667              1.750              1.679
 Vibration    12          0.671              1.738              1.632
 Vibration    13          0.674              1.727              1.591
 Vibration    14          0.679              1.715              1.548
 Vibration    15          0.696              1.663              1.384
 Vibration    16          0.712              1.618              1.267
 Vibration    17          0.716              1.605              1.234
 Vibration    18          0.724              1.583              1.184
 Vibration    19          0.728              1.573              1.162
 Vibration    20          0.741              1.537              1.087
 Vibration    21          0.747              1.520              1.052
 Vibration    22          0.783              1.425              0.889
 Vibration    23          0.804              1.372              0.811
 Vibration    24          0.808              1.362              0.797
 Vibration    25          0.829              1.312              0.732
 Vibration    26          0.868              1.221              0.627
 Vibration    27          0.887              1.179              0.582
 Vibration    28          0.928              1.093              0.501
 Vibration    29          0.946              1.055              0.469

 Optimization completed.
    -- Stationary point found.
 Normal termination of Gaussian 16 at Fri Dec 11 01:31:02 2020.

 ----------------------------------------------------------------------
 # B3LYP/6-311++G(d,p) empiricaldispersion=gd3bj scf=xqc pop=npa geom=c
 heck
 ----------------------------------------------------------------------

 ------------------------------------
 CID_241378_JID_6940_Energie_neutraal
 ------------------------------------
 Structure from the checkpoint file:  "JID_6940.chk"
 Charge =  0 Multiplicity = 1

 SCF Done:  E(RB3LYP) =  -697.451810633     A.U. after   14 cycles
 Normal termination of Gaussian 16 at Fri Dec 11 01:36:48 2020.

 ----------------------------------------------------------------------
 # B3LYP/6-311++G(d,p) empiricaldispersion=gd3bj scf=xqc pop=npa geom=c
 heck
 ----------------------------------------------------------------------

 ----------------------------------
 CID_241378_JID_6940_Energie_kation
 ----------------------------------
 Structure from the checkpoint file:  "JID_6940.chk"
 Charge =  1 Multiplicity = 2

 SCF Done:  E(UB3LYP) =  -697.164939482     A.U. after   24 cycles
 Normal termination of Gaussian 16 at Fri Dec 11 01:50:07 2020.
 Gaussian 16:  ES64L-G16RevA.03 25-Dec-2016

 ----------------------------------------------------------------------
 # B3LYP/6-311++G(d,p) empiricaldispersion=gd3bj scf=xqc pop=npa geom=c
 heck
 ----------------------------------------------------------------------

 ---------------------------------
 CID_241378_JID_6940_Energie_anion
 ---------------------------------
 Structure from the checkpoint file:  "JID_6940.chk"
 Charge = -1 Multiplicity = 2

                         Standard orientation:
 ---------------------------------------------------------------------
 Center     Atomic      Atomic             Coordinates (Angstroms)
 Number     Number       Type             X           Y           Z
 ---------------------------------------------------------------------
      1          6           0        4.437351   -1.153296    0.167209
      2          6           0        2.954098   -1.531740    0.137410
      3          6           0        2.255119   -1.246283    1.468583
      4          8           0        2.292173   -0.951246   -0.996442
      5          6           0        2.068271    0.449996   -0.955045
      6          6           0        0.682385    0.813919   -0.459585
      7          6           0        0.422855    2.104701    0.011734
      8          6           0       -0.854726    2.441832    0.462051
      9          6           0       -1.874163    1.494513    0.437549
     10          6           0       -1.651695    0.193754   -0.036251
     11          6           0       -0.361156   -0.112224   -0.482391
     12          6           0       -2.797051   -0.827269   -0.043573
     13          6           0       -3.307100   -1.035032    1.398961
     14          6           0       -3.951139   -0.300288   -0.923356
     15          6           0       -2.354424   -2.191466   -0.597216
     16          8           0        1.466169    2.999770    0.011343
     17          1           0        4.580827   -0.092610    0.402197
     18          1           0        4.898107   -1.356885   -0.804279
     19          1           0        4.963805   -1.734751    0.932490
     20          1           0        2.880161   -2.606265   -0.066728
     21          1           0        2.290654   -0.181648    1.723487
     22          1           0        1.205340   -1.549259    1.434331
     23          1           0        2.753288   -1.799619    2.272869
     24          1           0        2.823001    0.968476   -0.353138
     25          1           0        2.197613    0.808244   -1.984648
     26          1           0       -1.050201    3.446183    0.834717
     27          1           0       -2.857381    1.783222    0.797089
     28          1           0       -0.120756   -1.100892   -0.851390
     29          1           0       -3.676554   -0.101629    1.835975
     30          1           0       -4.128909   -1.761176    1.414989
     31          1           0       -2.504604   -1.411224    2.043190
     32          1           0       -3.614337   -0.148891   -1.954783
     33          1           0       -4.782354   -1.015719   -0.935205
     34          1           0       -4.337477    0.655260   -0.554015
     35          1           0       -2.000321   -2.113771   -1.630776
     36          1           0       -1.552932   -2.632453    0.005626
     37          1           0       -3.200990   -2.886788   -0.585529
     38          1           0        1.155525    3.837294    0.387839
 ---------------------------------------------------------------------

 SCF Done:  E(UB3LYP) =  -697.440121231     A.U. after   33 cycles
 SCF Done:  E(UB3LYP) =  -697.440121231     a.u. after    1 cycles

 The electronic state is 2-A.
 Alpha  occ. eigenvalues --  -19.05075 -19.02723 -10.13285 -10.13213 -10.12236
 Alpha  occ. eigenvalues --  -10.09745 -10.07605 -10.07597 -10.07357 -10.07253
 Alpha  occ. eigenvalues --  -10.07211 -10.06869 -10.06808 -10.06781 -10.06686
 Alpha  occ. eigenvalues --  -10.06632  -0.95994  -0.93903  -0.76438  -0.72334
 Alpha  occ. eigenvalues --   -0.69415  -0.66297  -0.63359  -0.60147  -0.60029
 Alpha  occ. eigenvalues --   -0.59536  -0.58296  -0.53135  -0.50736  -0.47576
 Alpha  occ. eigenvalues --   -0.44993  -0.44363  -0.41061  -0.39478  -0.38259
 Alpha  occ. eigenvalues --   -0.36592  -0.35821  -0.35045  -0.34005  -0.33605
 Alpha  occ. eigenvalues --   -0.33024  -0.32370  -0.31617  -0.31003  -0.30551
 Alpha  occ. eigenvalues --   -0.29797  -0.29769  -0.28783  -0.28465  -0.27652
 Alpha  occ. eigenvalues --   -0.26783  -0.26374  -0.25403  -0.24957  -0.23451
 Alpha  occ. eigenvalues --   -0.22713  -0.22584  -0.21047  -0.16853  -0.15067
 Alpha  occ. eigenvalues --   -0.12152   0.04100
 Alpha virt. eigenvalues --    0.05788   0.05939   0.07821   0.07847   0.08114
 Alpha virt. eigenvalues --    0.08369   0.08814   0.09168   0.09716   0.09899
 Alpha virt. eigenvalues --    0.10726   0.10875   0.11012   0.11534   0.12220

  Beta  occ. eigenvalues --  -19.05022 -19.02723 -10.13278 -10.13213 -10.12227
  Beta  occ. eigenvalues --  -10.09743 -10.07605 -10.07593 -10.07348 -10.07235
  Beta  occ. eigenvalues --  -10.07180 -10.06866 -10.06792 -10.06766 -10.06668
  Beta  occ. eigenvalues --  -10.06614  -0.95894  -0.93898  -0.76421  -0.72316
  Beta  occ. eigenvalues --   -0.69395  -0.66271  -0.63327  -0.60112  -0.60001
  Beta  occ. eigenvalues --   -0.59503  -0.58268  -0.53075  -0.50708  -0.47530
  Beta  occ. eigenvalues --   -0.44942  -0.44300  -0.41042  -0.39451  -0.38229
  Beta  occ. eigenvalues --   -0.36570  -0.35799  -0.35022  -0.33951  -0.33577
  Beta  occ. eigenvalues --   -0.33005  -0.32327  -0.31594  -0.30979  -0.30531
  Beta  occ. eigenvalues --   -0.29770  -0.29746  -0.28758  -0.28430  -0.27633
  Beta  occ. eigenvalues --   -0.26761  -0.26351  -0.25372  -0.24937  -0.23433
  Beta  occ. eigenvalues --   -0.22694  -0.22561  -0.21032  -0.16846  -0.15055
  Beta  occ. eigenvalues --   -0.12135
  Beta virt. eigenvalues --    0.05930   0.06432   0.07472   0.07911   0.08225
  Beta virt. eigenvalues --    0.08392   0.08562   0.08955   0.09460   0.09809
  Beta virt. eigenvalues --    0.10042   0.10945   0.11056   0.11121   0.11601

 Mulliken charges and spin densities:
               1          2
     1  C    0.259444  -0.802018
     2  C   -0.585915   0.637035
     3  C    0.057488  -0.632153
     4  O   -0.048934  -0.010942
     5  C    0.822994  -1.268443
     6  C    3.085832  -2.046330
     7  C   -0.251171  -0.622735
     8  C   -0.558186   0.257847
     9  C   -0.104845  -0.180867
    10  C   -1.594991   1.856779
    11  C   -0.334073  -0.001096
    12  C    0.009000   0.592063
    13  C    0.012124  -0.702674
    14  C   -0.003219  -0.689077
    15  C   -0.470837  -0.057427
    16  O   -0.245708   0.027555
    17  H   -0.127752   0.263148
    18  H    0.069538   0.081378
    19  H   -0.050613   0.179167
    20  H   -0.204472   0.376886
    21  H    0.010522   0.179461
    22  H    0.227149  -0.095661
    23  H   -0.127920   0.271135
    24  H    0.422275  -0.192704
    25  H    0.089487   0.104071
    26  H   -1.243392   1.413488
    27  H    0.384516  -0.251738
    28  H    0.335332  -0.107062
    29  H   -0.158876   0.307306
    30  H   -0.036937   0.178845
    31  H    0.033568   0.117208
    32  H    0.101839   0.036254
    33  H   -0.033101   0.176622
    34  H   -0.169560   0.315050
    35  H    0.021592   0.112714
    36  H   -0.038027   0.172409
    37  H   -0.096589   0.258903
    38  H   -0.457583   0.745605
 Sum of Mulliken charges =  -1.00000   1.00000

 Dipole moment (field-independent basis, Debye):
    X=              0.0561    Y=             -4.9843    Z=             -2.2333  Tot=              5.4620
 Quadrupole moment (field-independent basis, Debye-Ang):
   XX=           -164.9487   YY=           -172.9680   ZZ=           -131.8635
   XY=             -1.0295   XZ=             -1.1752   YZ=             -5.5497

 Summary of Natural Population Analysis:

                                       Natural Population
                Natural  -----------------------------------------------
    Atom  No    Charge         Core      Valence    Rydberg      Total
 -----------------------------------------------------------------------
      C    1   -0.29873      0.99964     2.29448    0.00461     3.29873
      C    2    0.06621      0.99957     1.91951    0.01471     2.93379
      C    3   -0.30339      0.99964     2.29815    0.00559     3.30339
      O    4   -0.30687      0.99989     3.29782    0.00916     4.30687
      C    5   -0.01805      0.99952     2.00644    0.01208     3.01805
      C    6   -0.05146      0.99946     2.04155    0.01045     3.05146
      C    7    0.15612      0.99933     1.83098    0.01358     2.84388
      C    8   -0.12863      0.99952     2.11819    0.01092     3.12863
      C    9   -0.09267      0.99952     2.08387    0.00928     3.09267
      C   10   -0.02347      0.99948     2.01159    0.01240     3.02347
      C   11   -0.09776      0.99947     2.09045    0.00784     3.09776
      C   12   -0.05262      0.99956     2.04101    0.01205     3.05262
      C   13   -0.27871      0.99963     2.27329    0.00579     3.27871
      C   14   -0.27871      0.99963     2.27337    0.00572     3.27871
      C   15   -0.28492      0.99964     2.27927    0.00601     3.28492
      O   16   -0.34496      0.99988     3.33817    0.00691     4.34496
      H   17    0.09821      0.00000     0.40064    0.00115     0.40179
      H   18    0.10135      0.00000     0.39759    0.00106     0.39865
      H   19    0.10049      0.00000     0.39842    0.00109     0.39951
      H   20    0.08700      0.00000     0.41164    0.00136     0.41300
      H   21    0.10247      0.00000     0.39650    0.00104     0.39753
      H   22    0.10653      0.00000     0.39241    0.00106     0.39347
      H   23    0.10098      0.00000     0.39812    0.00090     0.39902
      H   24    0.09402      0.00000     0.40421    0.00176     0.40598
      H   25    0.09506      0.00000     0.40378    0.00116     0.40494
      H   26    0.10490      0.00000     0.39179    0.00331     0.39510
      H   27    0.09939      0.00000     0.39897    0.00165     0.40061
      H   28    0.10906      0.00000     0.38870    0.00224     0.39094
      H   29    0.10023      0.00000     0.39870    0.00106     0.39977
      H   30    0.09612      0.00000     0.40289    0.00099     0.40388
      H   31    0.10153      0.00000     0.39748    0.00099     0.39847
      H   32    0.10055      0.00000     0.39862    0.00083     0.39945
      H   33    0.09615      0.00000     0.40291    0.00094     0.40385
      H   34    0.10036      0.00000     0.39864    0.00101     0.39964
      H   35    0.10094      0.00000     0.39812    0.00094     0.39906
      H   36    0.10169      0.00000     0.39722    0.00109     0.39831
      H   37    0.09942      0.00000     0.39973    0.00085     0.40058
      H   38    0.24217      0.00000     0.24191    0.01592     0.25783
 =======================================================================
   * Total *    0.00000     15.99337    44.81712    0.18952    61.00000

 Normal termination of Gaussian 16 at Fri Dec 11 02:07:52 2020.
