 Gaussian 16, Revision A.03,

 -----------------------------------------------------------
 # opt freq B3LYP/6-31G(d) empiricaldispersion=gd3bj scf=xqc
 -----------------------------------------------------------

 ------------------------------
 CID_90464537_JID_2347_neutraal
 ------------------------------
 Symbolic Z-matrix:
 Charge =  0 Multiplicity = 1

 SCF Done:  E(RB3LYP) =  -594.284489147     A.U. after   13 cycles
 SCF Done:  E(RB3LYP) =  -594.288370494     A.U. after   13 cycles
 SCF Done:  E(RB3LYP) =  -594.289333012     A.U. after   13 cycles
 SCF Done:  E(RB3LYP) =  -594.289157947     A.U. after   13 cycles
 SCF Done:  E(RB3LYP) =  -594.288225361     A.U. after   13 cycles
 SCF Done:  E(RB3LYP) =  -594.287757860     A.U. after   13 cycles
 SCF Done:  E(RB3LYP) =  -594.289789599     A.U. after   10 cycles
 SCF Done:  E(RB3LYP) =  -594.290515997     A.U. after   12 cycles
 SCF Done:  E(RB3LYP) =  -594.290640040     A.U. after   13 cycles
 SCF Done:  E(RB3LYP) =  -594.290729058     A.U. after   11 cycles
 SCF Done:  E(RB3LYP) =  -594.290751795     A.U. after   12 cycles
 SCF Done:  E(RB3LYP) =  -594.290761743     A.U. after   11 cycles
 SCF Done:  E(RB3LYP) =  -594.290763991     A.U. after    8 cycles
 SCF Done:  E(RB3LYP) =  -594.290764242     A.U. after    8 cycles
 SCF Done:  E(RB3LYP) =  -594.290764283     A.U. after    8 cycles
 Optimization completed.
    -- Stationary point found.
 Normal termination of Gaussian 16 at Wed Dec  9 17:12:14 2020.

 --------------------------------------------------------------------
 #N Geom=AllCheck Guess=TCheck SCRF=Check GenChk RB3LYP/6-31G(d) Freq
 --------------------------------------------------------------------

 Structure from the checkpoint file:  "JID_2347.chk"
 ------------------------------
 CID_90464537_JID_2347_neutraal
 ------------------------------
 Charge =  0 Multiplicity = 1

 SCF Done:  E(RB3LYP) =  -594.290764283     A.U. after    1 cycles

  Exact polarizability: 104.223  -1.602  99.284  -2.768  -1.046  88.566
 Approx polarizability: 136.638  -6.691 142.376   0.864  -3.364 131.023

                      1                      2                      3
                      A                      A                      A
 Frequencies --     38.5903                59.5125                72.1616
 Red. masses --      5.1451                 5.8785                 3.6447
 Frc consts  --      0.0045                 0.0123                 0.0112
 IR Inten    --      0.5542                 3.0727                 0.0353

                      4                      5                      6
                      A                      A                      A
 Frequencies --     81.0038               153.5789               188.7917
 Red. masses --      4.8188                 2.8371                 3.1743
 Frc consts  --      0.0186                 0.0394                 0.0667
 IR Inten    --      8.1140                 2.6978                 3.5964

                      7                      8                      9
                      A                      A                      A
 Frequencies --    244.4832               269.1240               292.5758
 Red. masses --      2.4038                 1.9817                 2.5715
 Frc consts  --      0.0847                 0.0846                 0.1297
 IR Inten    --      3.0032                 7.5337                11.8358

                     10                     11                     12
                      A                      A                      A
 Frequencies --    339.0894               344.6517               406.8234
 Red. masses --      2.5969                 2.6248                 2.6047
 Frc consts  --      0.1759                 0.1837                 0.2540
 IR Inten    --      8.7121                 3.7384                16.5853

                     13                     14                     15
                      A                      A                      A
 Frequencies --    432.4398               436.6237               498.1247
 Red. masses --      3.1258                 2.3462                 2.7409
 Frc consts  --      0.3444                 0.2635                 0.4007
 IR Inten    --      1.8167                 3.3359                 1.0428

                     16                     17                     18
                      A                      A                      A
 Frequencies --    527.0986               548.7381               614.1009
 Red. masses --      4.4195                 2.3109                 1.9334
 Frc consts  --      0.7234                 0.4100                 0.4296
 IR Inten    --      2.3996                11.3794                 5.0721

                     19                     20                     21
                      A                      A                      A
 Frequencies --    757.6531               783.8308               858.7681
 Red. masses --      1.4822                 2.7054                 2.5130
 Frc consts  --      0.5013                 0.9793                 1.0919
 IR Inten    --      3.3316                13.1997                12.3753

                     22                     23                     24
                      A                      A                      A
 Frequencies --    878.6588               884.7606               932.1916
 Red. masses --      1.5993                 3.0082                 2.2374
 Frc consts  --      0.7275                 1.3874                 1.1455
 IR Inten    --      0.7263                 4.0538                 9.9108

                     25                     26                     27
                      A                      A                      A
 Frequencies --    966.1976               999.6439              1042.7816
 Red. masses --      2.2275                 2.8005                 2.2249
 Frc consts  --      1.2252                 1.6488                 1.4255
 IR Inten    --     59.1049                16.7974                11.5885

                     28                     29                     30
                      A                      A                      A
 Frequencies --   1054.3699              1062.7285              1090.6796
 Red. masses --      3.3334                 2.2161                 2.1909
 Frc consts  --      2.1833                 1.4746                 1.5356
 IR Inten    --     14.2548                 2.8849                 8.3669

                     31                     32                     33
                      A                      A                      A
 Frequencies --   1109.9364              1131.3934              1152.5853
 Red. masses --      1.7528                 2.2682                 3.3321
 Frc consts  --      1.2723                 1.7107                 2.6080
 IR Inten    --      3.7570                31.2626                55.7243

                     34                     35                     36
                      A                      A                      A
 Frequencies --   1157.2318              1163.8080              1182.2817
 Red. masses --      3.5368                 3.5225                 2.6884
 Frc consts  --      2.7906                 2.8110                 2.2141
 IR Inten    --     67.6320                45.5656                60.9175

                     37                     38                     39
                      A                      A                      A
 Frequencies --   1216.6107              1246.3977              1278.8525
 Red. masses --      2.7865                 1.0718                 1.1931
 Frc consts  --      2.4301                 0.9810                 1.1497
 IR Inten    --      3.0043                 5.2109                 6.1334

                     40                     41                     42
                      A                      A                      A
 Frequencies --   1298.9935              1320.6772              1342.0970
 Red. masses --      1.2027                 1.2906                 1.3436
 Frc consts  --      1.1957                 1.3262                 1.4259
 IR Inten    --     17.3293                16.8601                21.5220

                     43                     44                     45
                      A                      A                      A
 Frequencies --   1345.7468              1353.9213              1369.0311
 Red. masses --      1.1980                 1.2011                 1.2209
 Frc consts  --      1.2783                 1.2972                 1.3482
 IR Inten    --     14.2288                 3.4452                 6.5643

                     46                     47                     48
                      A                      A                      A
 Frequencies --   1379.0094              1407.8131              1415.5231
 Red. masses --      1.2811                 1.3210                 1.2914
 Frc consts  --      1.4354                 1.5426                 1.5245
 IR Inten    --      2.6931                21.2217                 7.9730

                     49                     50                     51
                      A                      A                      A
 Frequencies --   1424.1496              1439.5668              1443.4664
 Red. masses --      1.3512                 1.3085                 1.3627
 Frc consts  --      1.6146                 1.5977                 1.6729
 IR Inten    --     21.1296                 3.2744                 4.4955

                     52                     53                     54
                      A                      A                      A
 Frequencies --   1451.0328              1489.0209              1505.5291
 Red. masses --      1.4636                 1.0812                 1.0931
 Frc consts  --      1.8156                 1.4124                 1.4598
 IR Inten    --      3.9615                16.2095                 7.1238

                     55                     56                     57
                      A                      A                      A
 Frequencies --   1513.4608              1514.7505              1522.8365
 Red. masses --      1.0839                 1.0857                 1.0920
 Frc consts  --      1.4628                 1.4677                 1.4920
 IR Inten    --      0.9974                 0.3482                 6.2337

                     58                     59                     60
                      A                      A                      A
 Frequencies --   1527.8770              1535.4117              1828.5213
 Red. masses --      1.1096                 1.1141                10.0918
 Frc consts  --      1.5261                 1.5475                19.8801
 IR Inten    --      8.5379                 3.7140               116.2297

                     61                     62                     63
                      A                      A                      A
 Frequencies --   2905.0636              2912.2656              2935.3144
 Red. masses --      1.0844                 1.0731                 1.0729
 Frc consts  --      5.3921                 5.3622                 5.4467
 IR Inten    --    107.8094                58.4806                27.1857

                     64                     65                     66
                      A                      A                      A
 Frequencies --   2944.6356              2996.7300              3014.9471
 Red. masses --      1.0719                 1.0699                 1.0700
 Frc consts  --      5.4762                 5.6611                 5.7303
 IR Inten    --    128.4013                51.4579                35.3794

                     67                     68                     69
                      A                      A                      A
 Frequencies --   3018.7050              3047.2060              3077.9594
 Red. masses --      1.0692                 1.0638                 1.0899
 Frc consts  --      5.7407                 5.8197                 6.0835
 IR Inten    --     51.4230                32.6078                14.1617

                     70                     71                     72
                      A                      A                      A
 Frequencies --   3085.6097              3107.2883              3113.8879
 Red. masses --      1.0866                 1.0938                 1.0942
 Frc consts  --      6.0954                 6.2225                 6.2511
 IR Inten    --     40.6806                40.5996                48.2207

                     73                     74                     75
                      A                      A                      A
 Frequencies --   3116.9448              3121.7808              3128.5024
 Red. masses --      1.0896                 1.0948                 1.0995
 Frc consts  --      6.2369                 6.2860                 6.3403
 IR Inten    --     24.5207                36.7612                 4.4919

 - Thermochemistry -
 -------------------
 Temperature   298.150 Kelvin.  Pressure   1.00000 Atm.
 Atom     1 has atomic number  6 and mass  12.00000

 Molecular mass:   173.10519 amu.
 Principal axes and moments of inertia in atomic units:
                           1         2         3
     Eigenvalues --  1345.395402770.446303496.46035
           X            0.99996   0.00119  -0.00879
           Y           -0.00113   0.99998   0.00660
           Z            0.00880  -0.00659   0.99994
 This molecule is an asymmetric top.
 Rotational symmetry number  1.
 Warning -- assumption of classical behavior for rotation
           may cause significant error
 Rotational temperatures (Kelvin)      0.06438     0.03126     0.02477
 Rotational constants (GHZ):           1.34142     0.65143     0.51616
 Zero-point vibrational energy     618793.2 (Joules/Mol)
                                  147.89513 (Kcal/Mol)
 Warning -- explicit consideration of  18 degrees of freedom as
           vibrations may cause significant error
 Vibrational temperatures:     55.52    85.63   103.82   116.55   220.97
          (Kelvin)            271.63   351.76   387.21   420.95   487.87
                              495.88   585.33   622.18   628.20   716.69
                              758.38   789.51   883.55  1090.09  1127.76
                             1235.58  1264.19  1272.97  1341.22  1390.14
                             1438.26  1500.33  1517.00  1529.03  1569.24
                             1596.95  1627.82  1658.31  1665.00  1674.46
                             1701.04  1750.43  1793.29  1839.98  1868.96
                             1900.16  1930.98  1936.23  1947.99  1969.73
                             1984.09  2025.53  2036.62  2049.03  2071.22
                             2076.83  2087.71  2142.37  2166.12  2177.53
                             2179.39  2191.02  2198.27  2209.12  2630.83
                             4179.74  4190.10  4223.26  4236.67  4311.63
                             4337.84  4343.24  4384.25  4428.50  4439.50
                             4470.69  4480.19  4484.59  4491.55  4501.22

 Zero-point correction=                           0.235686 (Hartree/Particle)
 Thermal correction to Energy=                    0.247624
 Thermal correction to Enthalpy=                  0.248568
 Thermal correction to Gibbs Free Energy=         0.196631
 Sum of electronic and zero-point Energies=           -594.055078
 Sum of electronic and thermal Energies=              -594.043140
 Sum of electronic and thermal Enthalpies=            -594.042196
 Sum of electronic and thermal Free Energies=         -594.094133

                     E (Thermal)             CV                S
                      KCal/Mol        Cal/Mol-Kelvin    Cal/Mol-Kelvin
 Total                  155.387             44.291            109.311
 Electronic               0.000              0.000              0.000
 Translational            0.889              2.981             41.354
 Rotational               0.889              2.981             30.945
 Vibrational            153.609             38.330             37.013
 Vibration     1          0.594              1.981              5.330
 Vibration     2          0.597              1.974              4.473
 Vibration     3          0.598              1.967              4.094
 Vibration     4          0.600              1.962              3.866
 Vibration     5          0.619              1.899              2.627
 Vibration     6          0.633              1.855              2.240
 Vibration     7          0.660              1.772              1.770
 Vibration     8          0.674              1.730              1.602
 Vibration     9          0.688              1.688              1.459
 Vibration    10          0.719              1.597              1.216
 Vibration    11          0.723              1.586              1.191
 Vibration    12          0.772              1.455              0.938
 Vibration    13          0.793              1.400              0.851
 Vibration    14          0.797              1.390              0.837
 Vibration    15          0.854              1.254              0.663
 Vibration    16          0.882              1.190              0.594
 Vibration    17          0.904              1.142              0.547
 Vibration    18          0.974              1.002              0.426

 Optimization completed.
    -- Stationary point found.
 Normal termination of Gaussian 16 at Wed Dec  9 17:18:59 2020.

 ----------------------------------------------------------------------
 # B3LYP/6-311++G(d,p) empiricaldispersion=gd3bj scf=xqc pop=npa geom=c
 heck
 ----------------------------------------------------------------------

 --------------------------------------
 CID_90464537_JID_2347_Energie_neutraal
 --------------------------------------
 Structure from the checkpoint file:  "JID_2347.chk"
 Charge =  0 Multiplicity = 1

 SCF Done:  E(RB3LYP) =  -594.466664041     A.U. after   13 cycles
 Normal termination of Gaussian 16 at Wed Dec  9 17:21:03 2020.

 ----------------------------------------------------------------------
 # B3LYP/6-311++G(d,p) empiricaldispersion=gd3bj scf=xqc pop=npa geom=c
 heck
 ----------------------------------------------------------------------

 ------------------------------------
 CID_90464537_JID_2347_Energie_kation
 ------------------------------------
 Structure from the checkpoint file:  "JID_2347.chk"
 Charge =  1 Multiplicity = 2

 SCF Done:  E(UB3LYP) =  -594.165669524     A.U. after   20 cycles
 Normal termination of Gaussian 16 at Wed Dec  9 17:26:07 2020.
 Gaussian 16:  ES64L-G16RevA.03 25-Dec-2016

 ----------------------------------------------------------------------
 # B3LYP/6-311++G(d,p) empiricaldispersion=gd3bj scf=xqc pop=npa geom=c
 heck
 ----------------------------------------------------------------------

 -----------------------------------
 CID_90464537_JID_2347_Energie_anion
 -----------------------------------
 Structure from the checkpoint file:  "JID_2347.chk"
 Charge = -1 Multiplicity = 2

                         Standard orientation:
 ---------------------------------------------------------------------
 Center     Atomic      Atomic             Coordinates (Angstroms)
 Number     Number       Type             X           Y           Z
 ---------------------------------------------------------------------
      1          6           0       -0.885808    0.220510   -1.138397
      2          6           0       -1.725216    1.372215   -0.596215
      3          8           0       -2.937642    0.903152   -0.020986
      4          6           0       -2.672315   -0.020823    1.022129
      5          6           0       -1.855188   -1.207845    0.519652
      6          7           0       -0.602005   -0.728616   -0.060522
      7          6           0        0.278746   -1.821487   -0.462358
      8          6           0        1.727017   -1.402151   -0.713824
      9          8           0        2.452918   -1.041004    0.457946
     10          6           0        2.097191    0.215419    1.014640
     11          6           0        2.465226    1.364173    0.090833
     12          8           0        1.812977    2.379113   -0.024678
     13          1           0       -1.422301   -0.272289   -1.972703
     14          1           0        0.049634    0.627373   -1.531899
     15          1           0       -1.132408    1.928044    0.146851
     16          1           0       -2.008048    2.054644   -1.402301
     17          1           0       -3.643697   -0.352563    1.400218
     18          1           0       -2.123232    0.475746    1.839146
     19          1           0       -2.454646   -1.776854   -0.217586
     20          1           0       -1.625600   -1.878444    1.356175
     21          1           0        0.283772   -2.562939    0.344594
     22          1           0       -0.094577   -2.334282   -1.373208
     23          1           0        2.265845   -2.260285   -1.127281
     24          1           0        1.777882   -0.599025   -1.464514
     25          1           0        1.034479    0.276194    1.263329
     26          1           0        2.696447    0.316906    1.929869
     27          1           0        3.406537    1.207932   -0.484044
 ---------------------------------------------------------------------

 SCF Done:  E(UB3LYP) =  -594.456447710     A.U. after   33 cycles
 SCF Done:  E(UB3LYP) =  -594.456447710     a.u. after    1 cycles

 The electronic state is 2-A.
 Alpha  occ. eigenvalues --  -19.02403 -19.01022 -18.97290 -14.20326 -10.11439
 Alpha  occ. eigenvalues --  -10.11081 -10.10323 -10.09974 -10.09014 -10.08968
 Alpha  occ. eigenvalues --  -10.08785 -10.08606  -0.94119  -0.92245  -0.90404
 Alpha  occ. eigenvalues --   -0.82236  -0.67042  -0.65554  -0.60499  -0.56160
 Alpha  occ. eigenvalues --   -0.55117  -0.50030  -0.46248  -0.44256  -0.40778
 Alpha  occ. eigenvalues --   -0.39062  -0.37478  -0.37360  -0.36420  -0.35046
 Alpha  occ. eigenvalues --   -0.34791  -0.31868  -0.31672  -0.30484  -0.29500
 Alpha  occ. eigenvalues --   -0.28575  -0.27508  -0.26785  -0.25600  -0.24239
 Alpha  occ. eigenvalues --   -0.23971  -0.21164  -0.20678  -0.17109  -0.15582
 Alpha  occ. eigenvalues --   -0.12121  -0.10841   0.05106
 Alpha virt. eigenvalues --    0.06955   0.07689   0.08706   0.09204   0.09795
 Alpha virt. eigenvalues --    0.10422   0.10871   0.11155   0.12146   0.12940
 Alpha virt. eigenvalues --    0.13201   0.13798   0.14569   0.15058   0.16182

  Beta  occ. eigenvalues --  -19.02401 -19.00997 -18.96926 -14.20319 -10.11428
  Beta  occ. eigenvalues --  -10.11079 -10.10277 -10.09649 -10.08994 -10.08994
  Beta  occ. eigenvalues --  -10.08775 -10.08584  -0.94111  -0.92123  -0.89773
  Beta  occ. eigenvalues --   -0.82214  -0.67020  -0.65477  -0.60347  -0.55996
  Beta  occ. eigenvalues --   -0.55067  -0.49795  -0.46199  -0.43739  -0.40714
  Beta  occ. eigenvalues --   -0.38971  -0.37451  -0.37246  -0.36373  -0.34981
  Beta  occ. eigenvalues --   -0.34646  -0.31738  -0.31496  -0.30185  -0.29398
  Beta  occ. eigenvalues --   -0.28423  -0.27276  -0.26566  -0.25573  -0.24188
  Beta  occ. eigenvalues --   -0.22466  -0.21125  -0.20546  -0.17041  -0.15532
  Beta  occ. eigenvalues --   -0.11947  -0.10691
  Beta virt. eigenvalues --    0.07643   0.08397   0.08948   0.09339   0.10239
  Beta virt. eigenvalues --    0.10584   0.10720   0.11332   0.11386   0.12380
  Beta virt. eigenvalues --    0.13225   0.13483   0.14123   0.14712   0.15215

 Mulliken charges and spin densities:
               1          2
     1  C    0.114640  -0.208137
     2  C   -0.322804  -0.213108
     3  O   -0.154246   0.027758
     4  C   -0.092024  -0.341643
     5  C    0.518527  -0.602989
     6  N   -0.012245   0.145582
     7  C    0.294442  -0.430578
     8  C    0.250239  -0.683350
     9  O   -0.084500   0.001083
    10  C   -0.340043  -0.101284
    11  C    0.159802   0.069118
    12  O   -0.308378   0.107614
    13  H   -0.102594   0.245249
    14  H    0.235815  -0.137205
    15  H    0.161730   0.012671
    16  H    0.166869  -0.007568
    17  H   -0.314672   0.495085
    18  H    0.159204  -0.039772
    19  H   -0.067567   0.204370
    20  H   -0.400455   0.545247
    21  H   -0.177973   0.364447
    22  H   -0.144464   0.238957
    23  H   -0.792032   0.975465
    24  H   -0.049376   0.186295
    25  H    0.269259  -0.035645
    26  H   -0.000334   0.162704
    27  H    0.033182   0.019633
 Sum of Mulliken charges =  -1.00000   1.00000

 Dipole moment (field-independent basis, Debye):
    X=             -1.1634    Y=              3.0314    Z=             -0.3834  Tot=              3.2695
 Quadrupole moment (field-independent basis, Debye-Ang):
   XX=           -125.1824   YY=           -121.4618   ZZ=            -96.4019
   XY=             -2.0411   XZ=              2.7404   YZ=             -0.6521

 Summary of Natural Population Analysis:

                                       Natural Population
                Natural  -----------------------------------------------
    Atom  No    Charge         Core      Valence    Rydberg      Total
 -----------------------------------------------------------------------
      C    1   -0.10157      0.99961     2.09135    0.01061     3.10157
      C    2   -0.01488      0.99958     2.00418    0.01112     3.01488
      O    3   -0.30027      0.99989     3.29169    0.00869     4.30027
      C    4   -0.01447      0.99958     2.00071    0.01418     3.01447
      C    5   -0.09675      0.99961     2.08510    0.01203     3.09675
      N    6   -0.28970      0.99971     2.77636    0.01363     3.78970
      C    7   -0.09657      0.99960     2.08475    0.01222     3.09657
      C    8   -0.01256      0.99956     1.99853    0.01448     3.01256
      O    9   -0.29882      0.99989     3.28860    0.01033     4.29882
      C   10   -0.06606      0.99956     2.05307    0.01343     3.06606
      C   11    0.24524      0.99976     1.73481    0.02019     2.75476
      O   12   -0.25830      0.99988     3.25122    0.00720     4.25830
      H   13    0.08053      0.00000     0.41788    0.00159     0.41947
      H   14    0.10624      0.00000     0.39245    0.00130     0.39376
      H   15    0.08975      0.00000     0.40875    0.00151     0.41025
      H   16    0.08831      0.00000     0.41079    0.00090     0.41169
      H   17    0.09098      0.00000     0.40771    0.00131     0.40902
      H   18    0.07885      0.00000     0.41963    0.00152     0.42115
      H   19    0.08246      0.00000     0.41562    0.00192     0.41754
      H   20    0.10079      0.00000     0.39744    0.00176     0.39921
      H   21    0.10026      0.00000     0.39793    0.00181     0.39974
      H   22    0.08436      0.00000     0.41324    0.00240     0.41564
      H   23    0.09326      0.00000     0.40478    0.00197     0.40674
      H   24    0.08064      0.00000     0.41775    0.00160     0.41936
      H   25    0.09887      0.00000     0.39863    0.00250     0.40113
      H   26    0.09505      0.00000     0.40351    0.00144     0.40495
      H   27    0.03437      0.00000     0.46315    0.00249     0.46563
 =======================================================================
   * Total *    0.00000     11.99621    34.82964    0.17414    47.00000

 Normal termination of Gaussian 16 at Wed Dec  9 17:34:06 2020.
