 Gaussian 16, Revision A.03,

 -----------------------------------------------------------
 # opt freq B3LYP/6-31G(d) empiricaldispersion=gd3bj scf=xqc
 -----------------------------------------------------------

 ------------------------------
 CID_15055621_JID_9515_neutraal
 ------------------------------
 Symbolic Z-matrix:
 Charge =  0 Multiplicity = 1

 SCF Done:  E(RB3LYP) =  -804.152129316     A.U. after   15 cycles
 SCF Done:  E(RB3LYP) =  -804.155223624     A.U. after   13 cycles
 SCF Done:  E(RB3LYP) =  -804.155347930     A.U. after   13 cycles
 SCF Done:  E(RB3LYP) =  -804.156795839     A.U. after   12 cycles
 SCF Done:  E(RB3LYP) =  -804.156932677     A.U. after   12 cycles
 SCF Done:  E(RB3LYP) =  -804.157086916     A.U. after   11 cycles
 SCF Done:  E(RB3LYP) =  -804.157156133     A.U. after   11 cycles
 SCF Done:  E(RB3LYP) =  -804.157205307     A.U. after   11 cycles
 SCF Done:  E(RB3LYP) =  -804.157257998     A.U. after   12 cycles
 SCF Done:  E(RB3LYP) =  -804.157348179     A.U. after   12 cycles
 SCF Done:  E(RB3LYP) =  -804.157469691     A.U. after   10 cycles
 SCF Done:  E(RB3LYP) =  -804.157470094     A.U. after   10 cycles
 SCF Done:  E(RB3LYP) =  -804.157470183     A.U. after    8 cycles
 SCF Done:  E(RB3LYP) =  -804.157470215     A.U. after    8 cycles
 Optimization completed.
    -- Stationary point found.
 Normal termination of Gaussian 16 at Sun Dec 13 20:30:16 2020.

 --------------------------------------------------------------------
 #N Geom=AllCheck Guess=TCheck SCRF=Check GenChk RB3LYP/6-31G(d) Freq
 --------------------------------------------------------------------

 Structure from the checkpoint file:  "JID_9515.chk"
 ------------------------------
 CID_15055621_JID_9515_neutraal
 ------------------------------
 Charge =  0 Multiplicity = 1

 SCF Done:  E(RB3LYP) =  -804.157470215     A.U. after    1 cycles

  Exact polarizability: 219.018 -10.735 152.219 -12.349  12.662 140.741
 Approx polarizability: 285.564 -20.500 261.926 -23.910  30.538 242.330

                      1                      2                      3
                      A                      A                      A
 Frequencies --     12.4555                19.3803                47.1281
 Red. masses --      4.5798                 4.7207                 3.9146
 Frc consts  --      0.0004                 0.0010                 0.0051
 IR Inten    --      0.9387                 0.0294                 0.0645

                      4                      5                      6
                      A                      A                      A
 Frequencies --     66.2441                90.5285               131.3948
 Red. masses --      4.7391                 4.7117                 4.6756
 Frc consts  --      0.0123                 0.0228                 0.0476
 IR Inten    --      2.1539                 1.2498                 0.6197

                      7                      8                      9
                      A                      A                      A
 Frequencies --    162.2873               176.7913               219.7763
 Red. masses --      3.0731                 4.3775                 4.1766
 Frc consts  --      0.0477                 0.0806                 0.1189
 IR Inten    --      0.0827                 1.6984                 3.5269

                     10                     11                     12
                      A                      A                      A
 Frequencies --    243.6771               275.4333               338.1688
 Red. masses --      2.6351                 3.4476                 2.4363
 Frc consts  --      0.0922                 0.1541                 0.1642
 IR Inten    --      4.3902                 3.7882                 1.4983

                     13                     14                     15
                      A                      A                      A
 Frequencies --    344.7699               366.9370               416.2902
 Red. masses --      6.1282                 3.3408                 3.4758
 Frc consts  --      0.4292                 0.2650                 0.3549
 IR Inten    --      6.6100                 0.9326                 3.4774

                     16                     17                     18
                      A                      A                      A
 Frequencies --    440.5437               464.2314               475.3589
 Red. masses --      2.6872                 2.7499                 2.9485
 Frc consts  --      0.3073                 0.3492                 0.3926
 IR Inten    --      2.3542                 4.0926                 3.6476

                     19                     20                     21
                      A                      A                      A
 Frequencies --    499.7913               515.4448               549.1817
 Red. masses --      4.0568                 3.9181                 5.6109
 Frc consts  --      0.5971                 0.6133                 0.9970
 IR Inten    --      4.9638                 1.8043                 7.4532

                     22                     23                     24
                      A                      A                      A
 Frequencies --    585.2514               600.0702               631.1288
 Red. masses --      4.3273                 4.9785                 6.2849
 Frc consts  --      0.8733                 1.0562                 1.4750
 IR Inten    --      6.6936                11.3611                 2.3344

                     25                     26                     27
                      A                      A                      A
 Frequencies --    659.7012               718.1383               725.1196
 Red. masses --      4.2992                 4.3258                 3.6516
 Frc consts  --      1.1024                 1.3144                 1.1312
 IR Inten    --      2.1145                 4.0964                 6.2178

                     28                     29                     30
                      A                      A                      A
 Frequencies --    743.5563               757.4523               762.3492
 Red. masses --      2.7369                 4.3670                 1.4847
 Frc consts  --      0.8915                 1.4762                 0.5084
 IR Inten    --     17.9105                 0.2501                26.7663

                     31                     32                     33
                      A                      A                      A
 Frequencies --    768.1440               795.0831               853.2561
 Red. masses --      1.2689                 2.4994                 3.9063
 Frc consts  --      0.4411                 0.9309                 1.6756
 IR Inten    --     37.5091                 4.5614                 1.4870

                     34                     35                     36
                      A                      A                      A
 Frequencies --    857.8530               878.6426               903.6407
 Red. masses --      4.2163                 1.3118                 1.2981
 Frc consts  --      1.8281                 0.5967                 0.6245
 IR Inten    --      3.9300                 0.0396                 0.0353

                     37                     38                     39
                      A                      A                      A
 Frequencies --    940.9195               953.7343               958.6630
 Red. masses --      1.3499                 2.4212                 2.0755
 Frc consts  --      0.7041                 1.2976                 1.1239
 IR Inten    --      0.2416                 9.3970                 2.6282

                     40                     41                     42
                      A                      A                      A
 Frequencies --    980.5430               982.4468               990.9557
 Red. masses --      1.5717                 1.2559                 2.5031
 Frc consts  --      0.8903                 0.7142                 1.4482
 IR Inten    --      0.1435                 0.1337                 0.6150

                     43                     44                     45
                      A                      A                      A
 Frequencies --   1005.4671              1006.5845              1015.2077
 Red. masses --      1.2984                 1.7938                 7.1346
 Frc consts  --      0.7734                 1.0708                 4.3324
 IR Inten    --      0.0456                 4.0003                 8.1989

                     46                     47                     48
                      A                      A                      A
 Frequencies --   1047.8671              1073.7130              1079.9098
 Red. masses --      2.5535                 2.2948                 2.2883
 Frc consts  --      1.6520                 1.5588                 1.5723
 IR Inten    --      6.6808                 2.4052                 3.1015

                     49                     50                     51
                      A                      A                      A
 Frequencies --   1091.2534              1128.3768              1145.2161
 Red. masses --      2.2134                 1.5563                 1.8230
 Frc consts  --      1.5530                 1.1675                 1.4087
 IR Inten    --      6.3877                 1.3712                11.0472

                     52                     53                     54
                      A                      A                      A
 Frequencies --   1185.7084              1193.9931              1195.8408
 Red. masses --      1.1531                 1.2479                 1.0998
 Frc consts  --      0.9552                 1.0482                 0.9266
 IR Inten    --      6.0806                69.1318                 0.5673

                     55                     56                     57
                      A                      A                      A
 Frequencies --   1206.9909              1222.5669              1231.1871
 Red. masses --      2.2221                 1.9496                 1.3230
 Frc consts  --      1.9073                 1.7169                 1.1816
 IR Inten    --      3.7559                 2.0201                 4.5580

                     58                     59                     60
                      A                      A                      A
 Frequencies --   1235.1947              1259.8774              1279.3271
 Red. masses --      1.6549                 1.7841                 1.5401
 Frc consts  --      1.4877                 1.6685                 1.4851
 IR Inten    --     14.4659                 2.7710                56.4558

                     61                     62                     63
                      A                      A                      A
 Frequencies --   1284.2931              1300.6897              1323.8220
 Red. masses --      1.8686                 4.5043                 1.8374
 Frc consts  --      1.8159                 4.4898                 1.8972
 IR Inten    --     74.7981                 0.3539                13.4579

                     64                     65                     66
                      A                      A                      A
 Frequencies --   1329.0551              1353.3343              1368.9527
 Red. masses --      1.8132                 3.6207                 1.7549
 Frc consts  --      1.8870                 3.9071                 1.9377
 IR Inten    --      5.9248                12.3451                 5.2328

                     67                     68                     69
                      A                      A                      A
 Frequencies --   1388.9933              1393.6990              1422.0470
 Red. masses --      1.4448                 1.6480                 1.5013
 Frc consts  --      1.6424                 1.8860                 1.7887
 IR Inten    --      0.7468                 7.2071                 8.2138

                     70                     71                     72
                      A                      A                      A
 Frequencies --   1470.9665              1481.1707              1495.1884
 Red. masses --      2.6471                 2.3537                 1.1925
 Frc consts  --      3.3747                 3.0424                 1.5707
 IR Inten    --    177.7571                58.2638                50.3986

                     73                     74                     75
                      A                      A                      A
 Frequencies --   1502.1777              1504.5185              1518.1952
 Red. masses --      1.5174                 1.5128                 1.2073
 Frc consts  --      2.0175                 2.0175                 1.6396
 IR Inten    --      0.2824                 6.9318                 9.3634

                     76                     77                     78
                      A                      A                      A
 Frequencies --   1524.8637              1534.4534              1549.2744
 Red. masses --      1.5654                 1.2579                 2.3025
 Frc consts  --      2.1445                 1.7450                 3.2562
 IR Inten    --     19.2572                 9.6766                12.0249

                     79                     80                     81
                      A                      A                      A
 Frequencies --   1632.3489              1644.4567              1650.7915
 Red. masses --      5.7817                 6.3256                 5.4619
 Frc consts  --      9.0768                10.0785                 8.7695
 IR Inten    --     16.6326                 4.1584                57.5680

                     82                     83                     84
                      A                      A                      A
 Frequencies --   1670.8011              1766.3288              2993.4818
 Red. masses --      5.8655                10.5312                 1.0746
 Frc consts  --      9.6473                19.3585                 5.6735
 IR Inten    --      0.0689               312.0246                27.8301

                     85                     86                     87
                      A                      A                      A
 Frequencies --   3022.9997              3033.5699              3055.8279
 Red. masses --      1.0740                 1.0642                 1.0653
 Frc consts  --      5.7829                 5.7699                 5.8610
 IR Inten    --     21.3013                34.3888                 9.0639

                     88                     89                     90
                      A                      A                      A
 Frequencies --   3076.8763              3108.0272              3126.8493
 Red. masses --      1.0990                 1.0974                 1.0868
 Frc consts  --      6.1299                 6.2455                 6.2605
 IR Inten    --     32.8244                 7.0999                 6.3851

                     91                     92                     93
                      A                      A                      A
 Frequencies --   3170.6367              3172.0964              3175.1065
 Red. masses --      1.0893                 1.0864                 1.0891
 Frc consts  --      6.4522                 6.4410                 6.4689
 IR Inten    --     22.6527                14.5366                21.1198

                     94                     95                     96
                      A                      A                      A
 Frequencies --   3175.7387              3189.8825              3193.0530
 Red. masses --      1.0888                 1.0876                 1.0913
 Frc consts  --      6.4695                 6.5206                 6.5557
 IR Inten    --      1.1093                 3.9445                25.8054

                     97                     98                     99
                      A                      A                      A
 Frequencies --   3204.1300              3208.4375              3218.4391
 Red. masses --      1.0932                 1.0972                 1.0975
 Frc consts  --      6.6124                 6.6548                 6.6978
 IR Inten    --     20.1948                33.4205                18.8145

 - Thermochemistry -
 -------------------
 Temperature   298.150 Kelvin.  Pressure   1.00000 Atm.
 Atom     1 has atomic number  6 and mass  12.00000

 Molecular mass:   252.12626 amu.
 Principal axes and moments of inertia in atomic units:
                           1         2         3
     Eigenvalues --  1971.153619506.59789**********
           X            0.99999  -0.00355  -0.00322
           Y            0.00366   0.99938   0.03512
           Z            0.00310  -0.03513   0.99938
 This molecule is an asymmetric top.
 Rotational symmetry number  1.
 Warning -- assumption of classical behavior for rotation
           may cause significant error
 Rotational temperatures (Kelvin)      0.04394     0.00911     0.00854
 Rotational constants (GHZ):           0.91558     0.18984     0.17788
 Zero-point vibrational energy     764068.8 (Joules/Mol)
                                  182.61681 (Kcal/Mol)
 Warning -- explicit consideration of  23 degrees of freedom as
           vibrations may cause significant error
 Vibrational temperatures:     17.92    27.88    67.81    95.31   130.25
          (Kelvin)            189.05   233.50   254.36   316.21   350.60
                              396.29   486.55   496.05   527.94   598.95
                              633.84   667.93   683.94   719.09   741.61
                              790.15   842.05   863.37   908.05   949.16
                             1033.24  1043.29  1069.81  1089.80  1096.85
                             1105.19  1143.95  1227.65  1234.26  1264.17
                             1300.14  1353.77  1372.21  1379.30  1410.78
                             1413.52  1425.76  1446.64  1448.25  1460.66
                             1507.65  1544.83  1553.75  1570.07  1623.48
                             1647.71  1705.97  1717.89  1720.55  1736.59
                             1759.00  1771.40  1777.17  1812.68  1840.67
                             1847.81  1871.40  1904.68  1912.21  1947.15
                             1969.62  1998.45  2005.22  2046.01  2116.39
                             2131.07  2151.24  2161.30  2164.67  2184.34
                             2193.94  2207.74  2229.06  2348.59  2366.01
                             2375.12  2403.91  2541.35  4306.95  4349.42
                             4364.63  4396.65  4426.94  4471.76  4498.84
                             4561.84  4563.94  4568.27  4569.18  4589.53
                             4594.09  4610.03  4616.23  4630.62

 Zero-point correction=                           0.291018 (Hartree/Particle)
 Thermal correction to Energy=                    0.306493
 Thermal correction to Enthalpy=                  0.307437
 Thermal correction to Gibbs Free Energy=         0.245257
 Sum of electronic and zero-point Energies=           -803.866452
 Sum of electronic and thermal Energies=              -803.850977
 Sum of electronic and thermal Enthalpies=            -803.850033
 Sum of electronic and thermal Free Energies=         -803.912214

                     E (Thermal)             CV                S
                      KCal/Mol        Cal/Mol-Kelvin    Cal/Mol-Kelvin
 Total                  192.327             60.871            130.870
 Electronic               0.000              0.000              0.000
 Translational            0.889              2.981             42.475
 Rotational               0.889              2.981             33.608
 Vibrational            190.550             54.910             54.787
 Vibration     1          0.593              1.987              7.575
 Vibration     2          0.593              1.986              6.697
 Vibration     3          0.595              1.979              4.934
 Vibration     4          0.598              1.970              4.262
 Vibration     5          0.602              1.956              3.649
 Vibration     6          0.612              1.922              2.926
 Vibration     7          0.622              1.889              2.523
 Vibration     8          0.628              1.871              2.362
 Vibration     9          0.647              1.811              1.961
 Vibration    10          0.659              1.773              1.776
 Vibration    11          0.677              1.719              1.562
 Vibration    12          0.718              1.599              1.221
 Vibration    13          0.723              1.586              1.190
 Vibration    14          0.740              1.540              1.093
 Vibration    15          0.780              1.435              0.905
 Vibration    16          0.800              1.382              0.825
 Vibration    17          0.822              1.329              0.754
 Vibration    18          0.832              1.305              0.723
 Vibration    19          0.855              1.250              0.659
 Vibration    20          0.870              1.216              0.621
 Vibration    21          0.904              1.141              0.546
 Vibration    22          0.942              1.063              0.476
 Vibration    23          0.958              1.032              0.450

                           ! Non-Optimized Parameters !
 Normal termination of Gaussian 16 at Sun Dec 13 20:45:35 2020.

 ----------------------------------------------------------------------
 # B3LYP/6-311++G(d,p) empiricaldispersion=gd3bj scf=xqc pop=npa geom=c
 heck
 ----------------------------------------------------------------------

 --------------------------------------
 CID_15055621_JID_9515_Energie_neutraal
 --------------------------------------
 Structure from the checkpoint file:  "JID_9515.chk"
 Charge =  0 Multiplicity = 1

 SCF Done:  E(RB3LYP) =  -804.367441598     A.U. after   16 cycles
 Normal termination of Gaussian 16 at Sun Dec 13 20:51:34 2020.

 ----------------------------------------------------------------------
 # B3LYP/6-311++G(d,p) empiricaldispersion=gd3bj scf=xqc pop=npa geom=c
 heck
 ----------------------------------------------------------------------

 ------------------------------------
 CID_15055621_JID_9515_Energie_kation
 ------------------------------------
 Structure from the checkpoint file:  "JID_9515.chk"
 Charge =  1 Multiplicity = 2

 SCF Done:  E(UB3LYP) =  -804.071422411     A.U. after   33 cycles
 SCF Done:  E(UB3LYP) =  -804.071422411     a.u. after    1 cycles
 Normal termination of Gaussian 16 at Sun Dec 13 21:08:22 2020.
 Gaussian 16:  ES64L-G16RevA.03 25-Dec-2016

 ----------------------------------------------------------------------
 # B3LYP/6-311++G(d,p) empiricaldispersion=gd3bj scf=xqc pop=npa geom=c
 heck
 ----------------------------------------------------------------------

 -----------------------------------
 CID_15055621_JID_9515_Energie_anion
 -----------------------------------
 Structure from the checkpoint file:  "JID_9515.chk"
 Charge = -1 Multiplicity = 2

                         Standard orientation:
 ---------------------------------------------------------------------
 Center     Atomic      Atomic             Coordinates (Angstroms)
 Number     Number       Type             X           Y           Z
 ---------------------------------------------------------------------
      1          6           0       -1.360090   -1.338515   -1.046734
      2          6           0       -0.125973   -0.760306   -0.354727
      3          7           0       -0.243009    0.688851   -0.282177
      4          6           0       -1.371358    1.186952    0.496797
      5          6           0       -2.627079    0.360958    0.320773
      6          6           0       -3.812148    0.809729    0.916727
      7          6           0       -4.994242    0.086067    0.795579
      8          6           0       -5.002354   -1.109517    0.072634
      9          6           0       -3.826460   -1.563942   -0.516427
     10          6           0       -2.633218   -0.839890   -0.402260
     11          6           0        0.748918    1.585531   -0.584871
     12          8           0        0.634028    2.782687   -0.347251
     13          6           0        1.999415    1.055534   -1.287612
     14          6           0        2.902998    0.224794   -0.397631
     15          6           0        3.944768   -0.533625   -0.947360
     16          6           0        4.769285   -1.264541   -0.097401
     17          6           0        4.528113   -1.220057    1.275732
     18          6           0        3.464389   -0.442173    1.728412
     19          7           0        2.665097    0.265168    0.921035
     20          1           0       -1.336290   -1.048202   -2.106512
     21          1           0       -1.323617   -2.434468   -1.016549
     22          1           0        0.776549   -1.034274   -0.898050
     23          1           0       -0.027488   -1.171443    0.660546
     24          1           0       -1.094695    1.219555    1.563418
     25          1           0       -1.540507    2.222446    0.194238
     26          1           0       -3.801750    1.740731    1.479426
     27          1           0       -5.905114    0.451174    1.261531
     28          1           0       -5.918594   -1.684857   -0.025531
     29          1           0       -3.824864   -2.497831   -1.074312
     30          1           0        1.736396    0.488277   -2.189243
     31          1           0        2.537284    1.949051   -1.619665
     32          1           0        4.101410   -0.545003   -2.022266
     33          1           0        5.584346   -1.860123   -0.499091
     34          1           0        5.143293   -1.774657    1.977131
     35          1           0        3.237019   -0.382005    2.791152
 ---------------------------------------------------------------------

 SCF Done:  E(UB3LYP) =  -804.361155607     A.U. after   33 cycles
 SCF Done:  E(UB3LYP) =  -804.361155608     a.u. after    3 cycles

 The electronic state is 2-A.
 Alpha  occ. eigenvalues --  -18.98300 -14.24180 -14.19319 -10.16917 -10.11286
 Alpha  occ. eigenvalues --  -10.11184 -10.11025 -10.09727 -10.09526 -10.09320
 Alpha  occ. eigenvalues --  -10.09041 -10.08969 -10.08871 -10.08696 -10.08414
 Alpha  occ. eigenvalues --  -10.08013 -10.07505 -10.07427 -10.06815  -0.93714
 Alpha  occ. eigenvalues --   -0.84585  -0.83611  -0.77495  -0.70051  -0.69703
 Alpha  occ. eigenvalues --   -0.69226  -0.67831  -0.64692  -0.62178  -0.58268
 Alpha  occ. eigenvalues --   -0.55593  -0.52607  -0.51957  -0.51019  -0.49019
 Alpha  occ. eigenvalues --   -0.44629  -0.42729  -0.41519  -0.39978  -0.39331
 Alpha  occ. eigenvalues --   -0.38332  -0.36907  -0.36197  -0.35912  -0.34937
 Alpha  occ. eigenvalues --   -0.33991  -0.32788  -0.32559  -0.32180  -0.31587
 Alpha  occ. eigenvalues --   -0.30437  -0.29728  -0.29417  -0.28177  -0.27781
 Alpha  occ. eigenvalues --   -0.27136  -0.26248  -0.25559  -0.24769  -0.24371
 Alpha  occ. eigenvalues --   -0.18491  -0.16843  -0.16095  -0.15771  -0.15468
 Alpha  occ. eigenvalues --   -0.15095  -0.14075   0.04008
 Alpha virt. eigenvalues --    0.05426   0.06397   0.06555   0.06793   0.07177
 Alpha virt. eigenvalues --    0.07553   0.07853   0.08121   0.08844   0.09347
 Alpha virt. eigenvalues --    0.09516   0.10425   0.10789   0.11134   0.11580

  Beta  occ. eigenvalues --  -18.98285 -14.24184 -14.19158 -10.16907 -10.11283
  Beta  occ. eigenvalues --  -10.11212 -10.11013 -10.09723 -10.09524 -10.09199
  Beta  occ. eigenvalues --  -10.09033 -10.08965 -10.08861 -10.08685 -10.08393
  Beta  occ. eigenvalues --  -10.07998 -10.07485 -10.07309 -10.06729  -0.93689
  Beta  occ. eigenvalues --   -0.84566  -0.83377  -0.77480  -0.70018  -0.69566
  Beta  occ. eigenvalues --   -0.69024  -0.67767  -0.64669  -0.62080  -0.58234
  Beta  occ. eigenvalues --   -0.55560  -0.52287  -0.51930  -0.50943  -0.48959
  Beta  occ. eigenvalues --   -0.44602  -0.42685  -0.41423  -0.39920  -0.39293
  Beta  occ. eigenvalues --   -0.38311  -0.36801  -0.36159  -0.35867  -0.34862
  Beta  occ. eigenvalues --   -0.33949  -0.32740  -0.32469  -0.32126  -0.31540
  Beta  occ. eigenvalues --   -0.30407  -0.29642  -0.29347  -0.28140  -0.27405
  Beta  occ. eigenvalues --   -0.27022  -0.26203  -0.25515  -0.24717  -0.24336
  Beta  occ. eigenvalues --   -0.17580  -0.16818  -0.16050  -0.15721  -0.15103
  Beta  occ. eigenvalues --   -0.14929  -0.14029
  Beta virt. eigenvalues --    0.05857   0.06427   0.06553   0.07223   0.07358
  Beta virt. eigenvalues --    0.07794   0.07926   0.08027   0.08366   0.09174
  Beta virt. eigenvalues --    0.09558   0.09739   0.10632   0.10880   0.11391

 Mulliken charges and spin densities:
               1          2
     1  C    1.528494  -2.576655
     2  C   -1.000706   0.510825
     3  N    0.349931   0.040968
     4  C   -0.052945  -0.422088
     5  C   -0.796959   0.468973
     6  C   -0.344023  -0.146036
     7  C    0.085313  -0.513003
     8  C    0.420720  -0.652370
     9  C    0.040266  -0.240575
    10  C   -0.498718   2.210494
    11  C   -0.247290   0.092098
    12  O   -0.325904   0.004567
    13  C    1.129381  -1.606974
    14  C   -0.249557   0.133805
    15  C   -0.649284   0.920323
    16  C    0.284535  -0.657980
    17  C    0.482938  -0.641133
    18  C   -0.577522   0.554189
    19  N    0.045006   0.108801
    20  H   -0.052265   0.238556
    21  H   -0.206566   0.389628
    22  H    0.336388  -0.142947
    23  H    0.123714   0.031736
    24  H    0.204244   0.001622
    25  H    0.195316   0.021557
    26  H    0.093415   0.060704
    27  H   -0.077643   0.223550
    28  H   -0.405305   0.566175
    29  H   -0.220752   0.379062
    30  H   -0.072001   0.254561
    31  H    0.229823  -0.010481
    32  H   -0.416445   0.589666
    33  H   -0.355428   0.509752
    34  H   -0.044020   0.192549
    35  H    0.043849   0.106079
 Sum of Mulliken charges =  -1.00000   1.00000

 Dipole moment (field-independent basis, Debye):
    X=             -2.1423    Y=              1.3640    Z=              1.8224  Tot=              3.1259
 Quadrupole moment (field-independent basis, Debye-Ang):
   XX=           -206.4628   YY=           -154.0670   ZZ=           -138.8338
   XY=             -4.8088   XZ=              0.1750   YZ=             -3.5242

 Summary of Natural Population Analysis:

                                       Natural Population
                Natural  -----------------------------------------------
    Atom  No    Charge         Core      Valence    Rydberg      Total
 -----------------------------------------------------------------------
      C    1   -0.19945      0.99959     2.19033    0.00953     3.19945
      C    2   -0.08157      0.99961     2.07081    0.01115     3.08157
      N    3   -0.25457      0.99962     2.74517    0.00979     3.75457
      C    4   -0.09187      0.99958     2.08265    0.00964     3.09187
      C    5   -0.01910      0.99946     2.01056    0.00908     3.01910
      C    6   -0.09771      0.99952     2.08986    0.00833     3.09771
      C    7   -0.10298      0.99956     2.09402    0.00940     3.10298
      C    8   -0.10359      0.99956     2.09379    0.01024     3.10359
      C    9   -0.09437      0.99952     2.08526    0.00959     3.09437
      C   10   -0.01426      0.99947     2.00504    0.00974     3.01426
      C   11    0.36197      0.99965     1.61418    0.02420     2.63803
      O   12   -0.32647      0.99988     3.32149    0.00510     4.32647
      C   13   -0.24564      0.99955     2.23702    0.00906     3.24564
      C   14    0.10326      0.99954     1.88293    0.01427     2.89674
      C   15   -0.11121      0.99950     2.10214    0.00957     3.11121
      C   16   -0.05217      0.99956     2.04241    0.01020     3.05217
      C   17   -0.13776      0.99956     2.12910    0.00910     3.13776
      C   18    0.04739      0.99959     1.93861    0.01442     2.95261
      N   19   -0.22884      0.99967     2.71903    0.01014     3.72884
      H   20    0.10582      0.00000     0.39271    0.00146     0.39418
      H   21    0.10559      0.00000     0.39322    0.00118     0.39441
      H   22    0.11094      0.00000     0.38723    0.00182     0.38906
      H   23    0.09478      0.00000     0.40389    0.00133     0.40522
      H   24    0.09944      0.00000     0.39938    0.00119     0.40056
      H   25    0.11863      0.00000     0.38004    0.00133     0.38137
      H   26    0.09842      0.00000     0.40048    0.00109     0.40158
      H   27    0.09947      0.00000     0.39972    0.00081     0.40053
      H   28    0.10112      0.00000     0.39781    0.00107     0.39888
      H   29    0.10076      0.00000     0.39773    0.00151     0.39924
      H   30    0.11121      0.00000     0.38746    0.00134     0.38879
      H   31    0.11772      0.00000     0.38126    0.00101     0.38228
      H   32    0.10182      0.00000     0.39701    0.00117     0.39818
      H   33    0.09787      0.00000     0.40103    0.00110     0.40213
      H   34    0.10005      0.00000     0.39915    0.00080     0.39995
      H   35    0.08528      0.00000     0.41381    0.00091     0.41472
 =======================================================================
   * Total *   -0.00000     18.99201    47.78631    0.22168    67.00000

 Normal termination of Gaussian 16 at Sun Dec 13 22:53:31 2020.
