 Gaussian 16, Revision A.03,

 -----------------------------------------------------------
 # opt freq B3LYP/6-31G(d) empiricaldispersion=gd3bj scf=xqc
 -----------------------------------------------------------

 ----------------------------
 CID_937624_JID_9789_neutraal
 ----------------------------
 Symbolic Z-matrix:
 Charge =  0 Multiplicity = 1

 SCF Done:  E(RB3LYP) =  -898.235865383     A.U. after   15 cycles
 SCF Done:  E(RB3LYP) =  -898.241118339     A.U. after   13 cycles
 SCF Done:  E(RB3LYP) =  -898.241912525     A.U. after   13 cycles
 SCF Done:  E(RB3LYP) =  -898.244838891     A.U. after   13 cycles
 SCF Done:  E(RB3LYP) =  -898.245844658     A.U. after   14 cycles
 SCF Done:  E(RB3LYP) =  -898.245833794     A.U. after   16 cycles
 SCF Done:  E(RB3LYP) =  -898.246594547     A.U. after   13 cycles
 SCF Done:  E(RB3LYP) =  -898.246643990     A.U. after   12 cycles
 SCF Done:  E(RB3LYP) =  -898.246662995     A.U. after   11 cycles
 SCF Done:  E(RB3LYP) =  -898.246668432     A.U. after   10 cycles
 SCF Done:  E(RB3LYP) =  -898.246672866     A.U. after    9 cycles
 SCF Done:  E(RB3LYP) =  -898.246673852     A.U. after    9 cycles
 SCF Done:  E(RB3LYP) =  -898.246674928     A.U. after    9 cycles
 SCF Done:  E(RB3LYP) =  -898.246675181     A.U. after    8 cycles
 SCF Done:  E(RB3LYP) =  -898.246675238     A.U. after    7 cycles
 SCF Done:  E(RB3LYP) =  -898.246675267     A.U. after    7 cycles
 Optimization completed.
    -- Stationary point found.
 Normal termination of Gaussian 16 at Mon Dec 14 17:21:07 2020.

 --------------------------------------------------------------------
 #N Geom=AllCheck Guess=TCheck SCRF=Check GenChk RB3LYP/6-31G(d) Freq
 --------------------------------------------------------------------

 Structure from the checkpoint file:  "JID_9789.chk"
 ----------------------------
 CID_937624_JID_9789_neutraal
 ----------------------------
 Charge =  0 Multiplicity = 1

 SCF Done:  E(RB3LYP) =  -898.246675267     A.U. after    1 cycles

  Exact polarizability: 331.944  -9.574 166.871  -0.242   2.175  79.262
 Approx polarizability: 425.570 -22.350 290.710  -0.333   5.141 124.729

                      1                      2                      3
                      A                      A                      A
 Frequencies --     14.4989                26.7996                47.3860
 Red. masses --      5.3138                 5.0642                 8.1676
 Frc consts  --      0.0007                 0.0021                 0.0108
 IR Inten    --      2.6555                 0.1997                 0.8844

                      4                      5                      6
                      A                      A                      A
 Frequencies --     53.0905                70.3729               108.9152
 Red. masses --      5.8534                 3.9375                 3.2414
 Frc consts  --      0.0097                 0.0115                 0.0227
 IR Inten    --      1.5172                 1.0415                 2.8856

                      7                      8                      9
                      A                      A                      A
 Frequencies --    124.8131               161.8909               190.6188
 Red. masses --      3.4923                 5.4546                 8.7033
 Frc consts  --      0.0321                 0.0842                 0.1863
 IR Inten    --      0.1131                 0.7656                 0.1606

                     10                     11                     12
                      A                      A                      A
 Frequencies --    211.9614               244.8602               259.0777
 Red. masses --      4.7857                 4.0839                 6.6523
 Frc consts  --      0.1267                 0.1443                 0.2631
 IR Inten    --      0.5098                 2.6933                 2.8337

                     13                     14                     15
                      A                      A                      A
 Frequencies --    302.1402               306.5532               367.0548
 Red. masses --      3.9033                 1.7978                 7.0785
 Frc consts  --      0.2099                 0.0995                 0.5619
 IR Inten    --      7.0764                 0.4604                11.3200

                     16                     17                     18
                      A                      A                      A
 Frequencies --    376.7144               404.8382               416.5635
 Red. masses --      7.2558                 1.7194                 1.1897
 Frc consts  --      0.6067                 0.1660                 0.1216
 IR Inten    --      1.7544                 1.2633                89.7539

                     19                     20                     21
                      A                      A                      A
 Frequencies --    436.1587               457.2221               463.8774
 Red. masses --      4.1739                 3.3303                 3.0748
 Frc consts  --      0.4678                 0.4102                 0.3898
 IR Inten    --      7.6737                 5.1856                 8.6711

                     22                     23                     24
                      A                      A                      A
 Frequencies --    485.2868               519.5668               561.9885
 Red. masses --      3.8737                 5.0406                 4.7529
 Frc consts  --      0.5375                 0.8017                 0.8844
 IR Inten    --      1.1396                 9.1400                 4.6046

                     25                     26                     27
                      A                      A                      A
 Frequencies --    576.9992               602.5176               607.6007
 Red. masses --      2.1872                 4.5595                 1.6626
 Frc consts  --      0.4290                 0.9752                 0.3616
 IR Inten    --     23.9129                30.0017                41.4965

                     28                     29                     30
                      A                      A                      A
 Frequencies --    616.5822               635.2181               644.4093
 Red. masses --      2.0885                 3.6556                 2.8975
 Frc consts  --      0.4678                 0.8691                 0.7089
 IR Inten    --     50.6601                63.4860                 1.6620

                     31                     32                     33
                      A                      A                      A
 Frequencies --    654.1866               704.1248               728.0350
 Red. masses --      2.8569                 2.2391                 4.8004
 Frc consts  --      0.7204                 0.6541                 1.4991
 IR Inten    --      2.1958                42.6463                 8.6763

                     34                     35                     36
                      A                      A                      A
 Frequencies --    761.1109               770.8149               803.9939
 Red. masses --      4.6477                 2.3692                 2.2847
 Frc consts  --      1.5863                 0.8294                 0.8701
 IR Inten    --     37.6707                44.3889                46.6672

                     37                     38                     39
                      A                      A                      A
 Frequencies --    812.4867               821.9050               839.4543
 Red. masses --      4.1845                 1.8940                 1.5558
 Frc consts  --      1.6275                 0.7538                 0.6460
 IR Inten    --     15.4443                 9.7302                40.3778

                     40                     41                     42
                      A                      A                      A
 Frequencies --    889.9987               917.7253               933.0610
 Red. masses --      2.4195                 2.0299                 1.7115
 Frc consts  --      1.1291                 1.0073                 0.8779
 IR Inten    --      8.7293                 7.9721                23.5149

                     43                     44                     45
                      A                      A                      A
 Frequencies --    967.1709               984.5170               992.2443
 Red. masses --      1.3190                 1.2990                 2.6568
 Frc consts  --      0.7269                 0.7419                 1.5411
 IR Inten    --     14.9408                 0.8714                 2.7748

                     46                     47                     48
                      A                      A                      A
 Frequencies --   1020.6251              1090.2899              1102.1868
 Red. masses --      2.9077                 1.7448                 2.2965
 Frc consts  --      1.7846                 1.2220                 1.6437
 IR Inten    --     17.0406                 1.1498                35.0868

                     49                     50                     51
                      A                      A                      A
 Frequencies --   1107.9373              1125.4249              1157.1223
 Red. masses --      2.4752                 3.8309                 1.9606
 Frc consts  --      1.7902                 2.8588                 1.5466
 IR Inten    --      0.6639                18.2006               515.8639

                     52                     53                     54
                      A                      A                      A
 Frequencies --   1163.7536              1181.9016              1219.9880
 Red. masses --      1.1759                 1.7517                 1.3117
 Frc consts  --      0.9383                 1.4417                 1.1503
 IR Inten    --      2.1380               153.3334                59.8741

                     55                     56                     57
                      A                      A                      A
 Frequencies --   1228.5610              1234.3019              1279.5005
 Red. masses --      2.3847                 1.6635                 1.7158
 Frc consts  --      2.1207                 1.4932                 1.6550
 IR Inten    --     91.3065               214.6345               331.4699

                     58                     59                     60
                      A                      A                      A
 Frequencies --   1286.6659              1301.5694              1310.9870
 Red. masses --      1.4372                 1.5808                 2.1339
 Frc consts  --      1.4018                 1.5779                 2.1608
 IR Inten    --     33.1557               104.3907               307.5544

                     61                     62                     63
                      A                      A                      A
 Frequencies --   1331.3944              1346.4393              1370.7422
 Red. masses --      1.8902                 1.3788                 1.5828
 Frc consts  --      1.9741                 1.4728                 1.7522
 IR Inten    --    186.9582                91.0584                 9.6625

                     64                     65                     66
                      A                      A                      A
 Frequencies --   1380.8900              1388.3153              1397.2274
 Red. masses --      1.6568                 1.4644                 1.5682
 Frc consts  --      1.8614                 1.6630                 1.8038
 IR Inten    --      5.9202                 4.6349                 9.6008

                     67                     68                     69
                      A                      A                      A
 Frequencies --   1408.6741              1411.5259              1427.9012
 Red. masses --      2.5419                 2.1231                 2.4799
 Frc consts  --      2.9719                 2.4923                 2.9791
 IR Inten    --     99.4928                17.6862                58.2696

                     70                     71                     72
                      A                      A                      A
 Frequencies --   1483.1670              1486.3224              1514.8623
 Red. masses --      2.1989                 1.3731                 1.1147
 Frc consts  --      2.8499                 1.7872                 1.5071
 IR Inten    --     54.8339                27.6929                36.4337

                     73                     74                     75
                      A                      A                      A
 Frequencies --   1522.4227              1529.6541              1535.2270
 Red. masses --      1.1253                 1.6159                 1.3793
 Frc consts  --      1.5367                 2.2276                 1.9153
 IR Inten    --     10.1408                48.9186                28.9814

                     76                     77                     78
                      A                      A                      A
 Frequencies --   1584.1384              1638.6581              1657.3714
 Red. masses --      3.1218                 6.5117                 4.3014
 Frc consts  --      4.6157                10.3021                 6.9614
 IR Inten    --     19.7145               606.1113              1038.8585

                     79                     80                     81
                      A                      A                      A
 Frequencies --   1686.9084              1763.1291              1796.9031
 Red. masses --      5.3417                 8.3616                 9.2329
 Frc consts  --      8.9560                15.3147                17.5646
 IR Inten    --    122.1010               196.6270               368.6684

                     82                     83                     84
                      A                      A                      A
 Frequencies --   2989.9765              3014.6158              3026.7330
 Red. masses --      1.0609                 1.0969                 1.0714
 Frc consts  --      5.5883                 5.8734                 5.7831
 IR Inten    --     25.6400                22.2284                 5.7837

                     85                     86                     87
                      A                      A                      A
 Frequencies --   3035.4257              3043.9968              3084.7177
 Red. masses --      1.0670                 1.0641                 1.0973
 Frc consts  --      5.7926                 5.8092                 6.1520
 IR Inten    --     23.9517                54.2463                67.6667

                     88                     89                     90
                      A                      A                      A
 Frequencies --   3089.2934              3106.6188              3189.4989
 Red. masses --      1.1020                 1.0930                 1.0900
 Frc consts  --      6.1966                 6.2148                 6.5334
 IR Inten    --     49.8753                20.9034                10.2346

                     91                     92                     93
                      A                      A                      A
 Frequencies --   3199.7581              3234.5235              3247.8251
 Red. masses --      1.0902                 1.0921                 1.0887
 Frc consts  --      6.5762                 6.7315                 6.7660
 IR Inten    --      7.6967                 1.3244                 0.0162

                     94                     95                     96
                      A                      A                      A
 Frequencies --   3604.0982              3687.3964              3738.7954
 Red. masses --      1.0753                 1.0638                 1.0658
 Frc consts  --      8.2296                 8.5218                 8.7779
 IR Inten    --     18.5285                78.7965                37.5901

 - Thermochemistry -
 -------------------
 Temperature   298.150 Kelvin.  Pressure   1.00000 Atm.
 Atom     1 has atomic number  6 and mass  12.00000

 Molecular mass:   261.10011 amu.
 Principal axes and moments of inertia in atomic units:
                           1         2         3
     Eigenvalues --  1536.32250********************
           X            0.99997   0.00721  -0.00058
           Y           -0.00721   0.99997   0.00080
           Z            0.00059  -0.00079   1.00000
 This molecule is an asymmetric top.
 Rotational symmetry number  1.
 Warning -- assumption of classical behavior for rotation
           may cause significant error
 Rotational temperatures (Kelvin)      0.05638     0.00624     0.00565
 Rotational constants (GHZ):           1.17472     0.13000     0.11772
 Zero-point vibrational energy     721601.6 (Joules/Mol)
                                  172.46692 (Kcal/Mol)
 Warning -- explicit consideration of  28 degrees of freedom as
           vibrations may cause significant error
 Vibrational temperatures:     20.86    38.56    68.18    76.39   101.25
          (Kelvin)            156.70   179.58   232.92   274.26   304.97
                              352.30   372.76   434.71   441.06   528.11
                              542.01   582.47   599.34   627.54   657.84
                              667.42   698.22   747.54   808.58   830.17
                              866.89   874.20   887.12   913.94   927.16
                              941.23  1013.08  1047.48  1095.07  1109.03
                             1156.77  1168.99  1182.54  1207.79  1280.51
                             1320.40  1342.47  1391.54  1416.50  1427.62
                             1468.45  1568.68  1585.80  1594.07  1619.24
                             1664.84  1674.38  1700.49  1755.29  1767.63
                             1775.89  1840.92  1851.23  1872.67  1886.22
                             1915.58  1937.23  1972.19  1986.79  1997.48
                             2010.30  2026.77  2030.87  2054.43  2133.95
                             2138.49  2179.55  2190.43  2200.83  2208.85
                             2279.22  2357.66  2384.59  2427.08  2536.75
                             2585.34  4301.91  4337.36  4354.79  4367.30
                             4379.63  4438.22  4444.80  4469.73  4588.98
                             4603.74  4653.76  4672.90  5185.49  5305.34
                             5379.29

 Zero-point correction=                           0.274844 (Hartree/Particle)
 Thermal correction to Energy=                    0.291963
 Thermal correction to Enthalpy=                  0.292908
 Thermal correction to Gibbs Free Energy=         0.227465
 Sum of electronic and zero-point Energies=           -897.971832
 Sum of electronic and thermal Energies=              -897.954712
 Sum of electronic and thermal Enthalpies=            -897.953768
 Sum of electronic and thermal Free Energies=         -898.019210

                     E (Thermal)             CV                S
                      KCal/Mol        Cal/Mol-Kelvin    Cal/Mol-Kelvin
 Total                  183.210             65.814            137.734
 Electronic               0.000              0.000              0.000
 Translational            0.889              2.981             42.579
 Rotational               0.889              2.981             34.146
 Vibrational            181.432             59.852             61.009
 Vibration     1          0.593              1.986              7.273
 Vibration     2          0.593              1.984              6.053
 Vibration     3          0.595              1.979              4.924
 Vibration     4          0.596              1.976              4.699
 Vibration     5          0.598              1.968              4.143
 Vibration     6          0.606              1.942              3.288
 Vibration     7          0.610              1.928              3.024
 Vibration     8          0.622              1.889              2.528
 Vibration     9          0.634              1.853              2.222
 Vibration    10          0.643              1.823              2.027
 Vibration    11          0.660              1.771              1.767
 Vibration    12          0.668              1.747              1.668
 Vibration    13          0.694              1.670              1.405
 Vibration    14          0.697              1.661              1.381
 Vibration    15          0.740              1.540              1.092
 Vibration    16          0.747              1.520              1.052
 Vibration    17          0.770              1.460              0.945
 Vibration    18          0.780              1.434              0.904
 Vibration    19          0.797              1.391              0.839
 Vibration    20          0.815              1.345              0.774
 Vibration    21          0.821              1.330              0.755
 Vibration    22          0.841              1.283              0.696
 Vibration    23          0.875              1.207              0.611
 Vibration    24          0.918              1.114              0.520
 Vibration    25          0.933              1.081              0.491
 Vibration    26          0.961              1.026              0.445
 Vibration    27          0.966              1.016              0.437
 Vibration    28          0.976              0.997              0.422

 Optimization completed.
    -- Stationary point found.
 Normal termination of Gaussian 16 at Mon Dec 14 17:34:28 2020.

 ----------------------------------------------------------------------
 # B3LYP/6-311++G(d,p) empiricaldispersion=gd3bj scf=xqc pop=npa geom=c
 heck
 ----------------------------------------------------------------------

 ------------------------------------
 CID_937624_JID_9789_Energie_neutraal
 ------------------------------------
 Structure from the checkpoint file:  "JID_9789.chk"
 Charge =  0 Multiplicity = 1

 SCF Done:  E(RB3LYP) =  -898.513079279     A.U. after   16 cycles
 Normal termination of Gaussian 16 at Mon Dec 14 17:40:58 2020.

 ----------------------------------------------------------------------
 # B3LYP/6-311++G(d,p) empiricaldispersion=gd3bj scf=xqc pop=npa geom=c
 heck
 ----------------------------------------------------------------------

 ----------------------------------
 CID_937624_JID_9789_Energie_kation
 ----------------------------------
 Structure from the checkpoint file:  "JID_9789.chk"
 Charge =  1 Multiplicity = 2

 SCF Done:  E(UB3LYP) =  -898.234786792     A.U. after   24 cycles
 Normal termination of Gaussian 16 at Mon Dec 14 17:54:48 2020.
 Gaussian 16:  ES64L-G16RevA.03 25-Dec-2016

 ----------------------------------------------------------------------
 # B3LYP/6-311++G(d,p) empiricaldispersion=gd3bj scf=xqc pop=npa geom=c
 heck
 ----------------------------------------------------------------------

 ---------------------------------
 CID_937624_JID_9789_Energie_anion
 ---------------------------------
 Structure from the checkpoint file:  "JID_9789.chk"
 Charge = -1 Multiplicity = 2

                         Standard orientation:
 ---------------------------------------------------------------------
 Center     Atomic      Atomic             Coordinates (Angstroms)
 Number     Number       Type             X           Y           Z
 ---------------------------------------------------------------------
      1          6           0       -4.955385   -1.480900    0.463925
      2          6           0       -5.775946   -0.442779   -0.304183
      3          6           0       -5.297024    0.968779    0.047505
      4          6           0       -3.788434    1.172051   -0.059483
      5          8           0       -3.334985    2.311167   -0.149927
      6          6           0       -2.921368   -0.024329   -0.012469
      7          6           0       -1.586299    0.220012   -0.044755
      8          7           0       -0.609726   -0.734225   -0.047770
      9          6           0        0.770081   -0.540620   -0.031293
     10          6           0        1.350919    0.728599    0.050572
     11          6           0        2.741491    0.880501    0.058699
     12          6           0        3.584174   -0.251299   -0.010413
     13          6           0        2.972575   -1.513711   -0.086796
     14          6           0        1.600915   -1.673696   -0.098613
     15          6           0        5.064204   -0.246611   -0.009839
     16          8           0        5.740463   -1.259815   -0.068592
     17          8           0        5.635062    0.977570    0.060929
     18          8           0        3.287055    2.119067    0.137539
     19          6           0       -3.484667   -1.430179    0.029669
     20          1           0       -5.349693   -2.490952    0.304905
     21          1           0       -5.029060   -1.274453    1.540393
     22          1           0       -5.667270   -0.617871   -1.383765
     23          1           0       -6.843168   -0.543670   -0.075350
     24          1           0       -5.776298    1.738929   -0.565173
     25          1           0       -5.565660    1.195119    1.090421
     26          1           0       -1.263109    1.253183   -0.081455
     27          1           0       -0.910250   -1.699923   -0.068280
     28          1           0        0.732610    1.617941    0.116551
     29          1           0        3.628371   -2.375373   -0.139016
     30          1           0        1.161992   -2.665557   -0.162932
     31          1           0        6.594765    0.802423    0.050483
     32          1           0        2.570254    2.772437    0.172757
     33          1           0       -3.399884   -1.892098   -0.967446
     34          1           0       -2.887708   -2.059392    0.707552
 ---------------------------------------------------------------------

 SCF Done:  E(UB3LYP) =  -898.538345779     A.U. after   24 cycles

 The electronic state is 2-A.
 Alpha  occ. eigenvalues --  -19.04906 -19.04434 -18.97543 -18.94270 -14.24209
 Alpha  occ. eigenvalues --  -10.16847 -10.13014 -10.09722 -10.09587 -10.07485
 Alpha  occ. eigenvalues --  -10.07279 -10.07183 -10.07078 -10.05633 -10.05297
 Alpha  occ. eigenvalues --  -10.05161 -10.05035 -10.05000 -10.03179  -0.98468
 Alpha  occ. eigenvalues --   -0.96254  -0.88729  -0.88093  -0.84695  -0.73506
 Alpha  occ. eigenvalues --   -0.71999  -0.66468  -0.63497  -0.63005  -0.61376
 Alpha  occ. eigenvalues --   -0.56375  -0.53493  -0.52142  -0.49120  -0.48612
 Alpha  occ. eigenvalues --   -0.47321  -0.44832  -0.41522  -0.39886  -0.38548
 Alpha  occ. eigenvalues --   -0.37599  -0.36650  -0.34770  -0.34185  -0.33778
 Alpha  occ. eigenvalues --   -0.33331  -0.33114  -0.31515  -0.30785  -0.30331
 Alpha  occ. eigenvalues --   -0.29497  -0.29138  -0.28429  -0.27774  -0.27596
 Alpha  occ. eigenvalues --   -0.27071  -0.24894  -0.24256  -0.23939  -0.22971
 Alpha  occ. eigenvalues --   -0.22243  -0.21767  -0.21184  -0.19751  -0.15803
 Alpha  occ. eigenvalues --   -0.14366  -0.12332  -0.10555  -0.08294   0.02548
 Alpha virt. eigenvalues --    0.06600   0.07852   0.08184   0.08548   0.09042
 Alpha virt. eigenvalues --    0.09128   0.09345   0.10409   0.10886   0.11360
 Alpha virt. eigenvalues --    0.11601   0.11928   0.13388   0.13403   0.13842

  Beta  occ. eigenvalues --  -19.04898 -19.04384 -18.97409 -18.94000 -14.24333
  Beta  occ. eigenvalues --  -10.16716 -10.13009 -10.09509 -10.09276 -10.07486
  Beta  occ. eigenvalues --  -10.07276 -10.07189 -10.06741 -10.05654 -10.05374
  Beta  occ. eigenvalues --  -10.04993 -10.04990 -10.04892 -10.03152  -0.98306
  Beta  occ. eigenvalues --   -0.96229  -0.88517  -0.87582  -0.84557  -0.73263
  Beta  occ. eigenvalues --   -0.71907  -0.66151  -0.63306  -0.62828  -0.61129
  Beta  occ. eigenvalues --   -0.56007  -0.53218  -0.52064  -0.48970  -0.48413
  Beta  occ. eigenvalues --   -0.47134  -0.44642  -0.41341  -0.39759  -0.38387
  Beta  occ. eigenvalues --   -0.37498  -0.36506  -0.34628  -0.34084  -0.33620
  Beta  occ. eigenvalues --   -0.33024  -0.32689  -0.31415  -0.30423  -0.29993
  Beta  occ. eigenvalues --   -0.29248  -0.28907  -0.28296  -0.27462  -0.27273
  Beta  occ. eigenvalues --   -0.26948  -0.24805  -0.24110  -0.23828  -0.22883
  Beta  occ. eigenvalues --   -0.21669  -0.21427  -0.20354  -0.19084  -0.15661
  Beta  occ. eigenvalues --   -0.12971  -0.11803  -0.10307  -0.07596
  Beta virt. eigenvalues --    0.06562   0.07369   0.07862   0.08200   0.08948
  Beta virt. eigenvalues --    0.09024   0.09270   0.10357   0.10508   0.11331
  Beta virt. eigenvalues --    0.11448   0.11668   0.11983   0.13372   0.13478

 Mulliken charges and spin densities:
               1          2
     1  C   -0.449331  -0.002412
     2  C   -0.225535   0.021633
     3  C   -0.139094  -0.004078
     4  C   -1.076503   0.093642
     5  O   -0.376610   0.107948
     6  C    0.962110   0.029638
     7  C   -0.183129   0.271527
     8  N    0.165694  -0.065160
     9  C   -0.210352   0.136925
    10  C    0.162148   0.074676
    11  C    0.021565   0.010636
    12  C    0.436232   0.042516
    13  C   -0.992928   0.179815
    14  C   -0.531573  -0.052612
    15  C    0.346604   0.076194
    16  O   -0.390516   0.049065
    17  O   -0.234326   0.010193
    18  O   -0.204391   0.004504
    19  C   -0.565851  -0.019749
    20  H    0.132585   0.000317
    21  H    0.126487   0.001153
    22  H    0.110852  -0.000780
    23  H    0.137289   0.009517
    24  H    0.149439   0.001136
    25  H    0.117822   0.038764
    26  H    0.250532  -0.020993
    27  H    0.366634  -0.000770
    28  H    0.077307  -0.003647
    29  H    0.191860  -0.010497
    30  H    0.067845   0.004821
    31  H    0.290245  -0.000996
    32  H    0.259591  -0.000005
    33  H    0.149596   0.010199
    34  H    0.057702   0.006880
 Sum of Mulliken charges =  -1.00000   1.00000

 Dipole moment (field-independent basis, Debye):
    X=             -3.1770    Y=             -2.4790    Z=              0.3565  Tot=              4.0455
 Quadrupole moment (field-independent basis, Debye-Ang):
   XX=           -200.5395   YY=           -130.3542   ZZ=           -121.0066
   XY=             27.3040   XZ=             -0.0367   YZ=              0.9823

 Summary of Natural Population Analysis:

                                       Natural Population
                Natural  -----------------------------------------------
    Atom  No    Charge         Core      Valence    Rydberg      Total
 -----------------------------------------------------------------------
      C    1   -0.18361      0.99964     2.17689    0.00708     3.18361
      C    2   -0.18915      0.99964     2.18257    0.00695     3.18915
      C    3   -0.22844      0.99960     2.22009    0.00875     3.22844
      C    4    0.29589      0.99960     1.68401    0.02050     2.70411
      O    5   -0.29917      0.99988     3.29179    0.00750     4.29917
      C    6   -0.11706      0.99948     2.10789    0.00968     3.11706
      C    7    0.11367      0.99941     1.87552    0.01139     2.88633
      N    8   -0.29276      0.99966     2.78423    0.00887     3.79276
      C    9    0.15152      0.99950     1.83897    0.01001     2.84848
      C   10   -0.16567      0.99950     2.15799    0.00818     3.16567
      C   11    0.19081      0.99940     1.79747    0.01232     2.80919
      C   12   -0.11323      0.99941     2.10387    0.00995     3.11323
      C   13   -0.02947      0.99957     2.02116    0.00874     3.02947
      C   14   -0.15663      0.99954     2.14900    0.00809     3.15663
      C   15    0.41132      0.99967     1.56430    0.02471     2.58868
      O   16   -0.32557      0.99987     3.31796    0.00774     4.32557
      O   17   -0.33875      0.99988     3.33272    0.00615     4.33875
      O   18   -0.33013      0.99987     3.32377    0.00649     4.33013
      C   19   -0.19700      0.99962     2.19007    0.00731     3.19700
      H   20    0.09109      0.00000     0.40771    0.00120     0.40891
      H   21    0.09155      0.00000     0.40708    0.00138     0.40845
      H   22    0.09123      0.00000     0.40749    0.00128     0.40877
      H   23    0.09141      0.00000     0.40719    0.00141     0.40859
      H   24    0.10448      0.00000     0.39423    0.00129     0.39552
      H   25    0.10095      0.00000     0.39658    0.00247     0.39905
      H   26    0.10357      0.00000     0.39440    0.00203     0.39643
      H   27    0.18879      0.00000     0.30926    0.00195     0.31121
      H   28    0.09876      0.00000     0.39987    0.00137     0.40124
      H   29    0.10678      0.00000     0.39213    0.00109     0.39322
      H   30    0.09341      0.00000     0.40556    0.00103     0.40659
      H   31    0.23019      0.00000     0.26664    0.00317     0.26981
      H   32    0.22900      0.00000     0.26850    0.00249     0.27100
      H   33    0.09139      0.00000     0.40693    0.00168     0.40861
      H   34    0.09085      0.00000     0.40731    0.00184     0.40915
 =======================================================================
   * Total *    0.00000     18.99275    49.79113    0.21612    69.00000

 Normal termination of Gaussian 16 at Mon Dec 14 18:08:09 2020.
