 Gaussian 16, Revision A.03,

 -----------------------------------------------------------
 # opt freq B3LYP/6-31G(d) empiricaldispersion=gd3bj scf=xqc
 -----------------------------------------------------------

 -------------------------------
 CID_130932730_JID_2989_neutraal
 -------------------------------
 Symbolic Z-matrix:
 Charge =  0 Multiplicity = 1

 SCF Done:  E(RB3LYP) =  -554.555081068     A.U. after   14 cycles
 SCF Done:  E(RB3LYP) =  -554.564314581     A.U. after   12 cycles
 SCF Done:  E(RB3LYP) =  -554.565189574     A.U. after   11 cycles
 SCF Done:  E(RB3LYP) =  -554.565709419     A.U. after   11 cycles
 SCF Done:  E(RB3LYP) =  -554.565547236     A.U. after   11 cycles
 SCF Done:  E(RB3LYP) =  -554.565926930     A.U. after   11 cycles
 SCF Done:  E(RB3LYP) =  -554.565985334     A.U. after   10 cycles
 SCF Done:  E(RB3LYP) =  -554.566007718     A.U. after   10 cycles
 SCF Done:  E(RB3LYP) =  -554.566022656     A.U. after    9 cycles
 SCF Done:  E(RB3LYP) =  -554.566039669     A.U. after   10 cycles
 SCF Done:  E(RB3LYP) =  -554.566064124     A.U. after    8 cycles
 SCF Done:  E(RB3LYP) =  -554.566065307     A.U. after    7 cycles
 SCF Done:  E(RB3LYP) =  -554.566066366     A.U. after    8 cycles
 SCF Done:  E(RB3LYP) =  -554.566066502     A.U. after    7 cycles
 SCF Done:  E(RB3LYP) =  -554.566066552     A.U. after    6 cycles
 SCF Done:  E(RB3LYP) =  -554.566066567     A.U. after    6 cycles
 Optimization completed.
    -- Stationary point found.
 Normal termination of Gaussian 16 at Wed Dec  9 18:30:12 2020.

 --------------------------------------------------------------------
 #N Geom=AllCheck Guess=TCheck SCRF=Check GenChk RB3LYP/6-31G(d) Freq
 --------------------------------------------------------------------

 Structure from the checkpoint file:  "JID_2989.chk"
 -------------------------------
 CID_130932730_JID_2989_neutraal
 -------------------------------
 Charge =  0 Multiplicity = 1

 SCF Done:  E(RB3LYP) =  -554.566066567     A.U. after    1 cycles

  Exact polarizability: 120.650  -3.167 104.024  -0.526  -0.177  89.344
 Approx polarizability: 150.954 -10.256 154.612  -1.932   0.384 132.073

                      1                      2                      3
                      A                      A                      A
 Frequencies --     48.1875                64.3516                86.4094
 Red. masses --      3.9132                 5.1089                 3.3757
 Frc consts  --      0.0054                 0.0125                 0.0149
 IR Inten    --      1.7813                 0.6665                 0.3344

                      4                      5                      6
                      A                      A                      A
 Frequencies --    113.6437               126.2355               166.5537
 Red. masses --      3.3436                 2.9836                 1.1421
 Frc consts  --      0.0254                 0.0280                 0.0187
 IR Inten    --      2.0774                 2.2832                 2.7737

                      7                      8                      9
                      A                      A                      A
 Frequencies --    184.2514               213.5273               236.1833
 Red. masses --      2.5215                 1.6337                 1.8087
 Frc consts  --      0.0504                 0.0439                 0.0594
 IR Inten    --      6.9687                18.5438                 7.0222

                     10                     11                     12
                      A                      A                      A
 Frequencies --    249.5097               288.9525               294.9411
 Red. masses --      2.0245                 1.3988                 2.6295
 Frc consts  --      0.0743                 0.0688                 0.1348
 IR Inten    --      6.0395                 2.3473                 4.1719

                     13                     14                     15
                      A                      A                      A
 Frequencies --    302.8243               329.0393               362.1765
 Red. masses --      2.0673                 3.4927                 2.3843
 Frc consts  --      0.1117                 0.2228                 0.1843
 IR Inten    --      8.8043                 1.0874                 3.0978

                     16                     17                     18
                      A                      A                      A
 Frequencies --    427.6467               455.8462               581.4814
 Red. masses --      4.1722                 2.6984                 1.7899
 Frc consts  --      0.4496                 0.3304                 0.3566
 IR Inten    --      7.9729                10.7976                54.9212

                     19                     20                     21
                      A                      A                      A
 Frequencies --    587.2713               647.4311               665.5795
 Red. masses --      2.3841                 3.1446                 2.0853
 Frc consts  --      0.4844                 0.7766                 0.5443
 IR Inten    --     23.1381                13.4005                18.4401

                     22                     23                     24
                      A                      A                      A
 Frequencies --    719.3993               741.2524               842.1754
 Red. masses --      2.9091                 3.7928                 2.5909
 Frc consts  --      0.8870                 1.2278                 1.0827
 IR Inten    --      6.9998                24.4059                 6.3712

                     25                     26                     27
                      A                      A                      A
 Frequencies --    859.7233               913.0102               920.0015
 Red. masses --      1.2751                 2.4498                 1.4205
 Frc consts  --      0.5553                 1.2032                 0.7084
 IR Inten    --     76.8560                 5.3826                 1.2746

                     28                     29                     30
                      A                      A                      A
 Frequencies --    940.0630               988.3920              1009.9029
 Red. masses --      1.8981                 1.9493                 3.6692
 Frc consts  --      0.9883                 1.1220                 2.2048
 IR Inten    --     30.9887                11.4955                 8.6423

                     31                     32                     33
                      A                      A                      A
 Frequencies --   1022.8464              1031.5787              1068.5973
 Red. masses --      1.7624                 1.8088                 1.8408
 Frc consts  --      1.0864                 1.1341                 1.2385
 IR Inten    --     25.9188                15.9310                11.4576

                     34                     35                     36
                      A                      A                      A
 Frequencies --   1096.6416              1130.4906              1136.7414
 Red. masses --      1.9627                 2.1746                 1.1083
 Frc consts  --      1.3907                 1.6374                 0.8438
 IR Inten    --     21.3425                11.9970                 2.7046

                     37                     38                     39
                      A                      A                      A
 Frequencies --   1151.3174              1153.1327              1160.2000
 Red. masses --      2.0805                 1.3102                 2.5594
 Frc consts  --      1.6248                 1.0265                 2.0298
 IR Inten    --      7.8177                12.8922                11.1390

                     40                     41                     42
                      A                      A                      A
 Frequencies --   1190.9552              1206.7565              1215.3466
 Red. masses --      1.5340                 1.9847                 1.6251
 Frc consts  --      1.2820                 1.7029                 1.4143
 IR Inten    --      9.9259                 6.9896                 2.6081

                     43                     44                     45
                      A                      A                      A
 Frequencies --   1263.2899              1283.5700              1296.8079
 Red. masses --      1.9752                 1.3494                 1.2389
 Frc consts  --      1.8572                 1.3098                 1.2276
 IR Inten    --     27.6942                 3.1407                 2.2297

                     46                     47                     48
                      A                      A                      A
 Frequencies --   1337.5408              1357.0573              1371.5348
 Red. masses --      1.5706                 1.3281                 1.4078
 Frc consts  --      1.6555                 1.4411                 1.5603
 IR Inten    --     27.5050                12.1951                 3.8100

                     49                     50                     51
                      A                      A                      A
 Frequencies --   1375.2323              1395.1767              1410.9186
 Red. masses --      1.6467                 2.4904                 1.3470
 Frc consts  --      1.8350                 2.8562                 1.5799
 IR Inten    --     13.9036               124.0915                25.6757

                     52                     53                     54
                      A                      A                      A
 Frequencies --   1418.6555              1442.5434              1490.0884
 Red. masses --      1.2937                 1.3872                 1.4825
 Frc consts  --      1.5340                 1.7008                 1.9394
 IR Inten    --     16.2992                 7.9758                13.0004

                     55                     56                     57
                      A                      A                      A
 Frequencies --   1501.3901              1520.2496              1524.9486
 Red. masses --      1.3176                 1.0790                 1.0541
 Frc consts  --      1.7499                 1.4692                 1.4442
 IR Inten    --     21.1901                 5.0551                 6.8471

                     58                     59                     60
                      A                      A                      A
 Frequencies --   1528.3613              1538.0000              1538.8057
 Red. masses --      1.0602                 1.1216                 1.0615
 Frc consts  --      1.4590                 1.5632                 1.4809
 IR Inten    --      5.3328                23.3626                 3.3691

                     61                     62                     63
                      A                      A                      A
 Frequencies --   1561.1057              1570.3428              1699.7259
 Red. masses --      1.0774                 1.1088                 1.0881
 Frc consts  --      1.5471                 1.6110                 1.8521
 IR Inten    --     15.3322                11.3700                31.4059

                     64                     65                     66
                      A                      A                      A
 Frequencies --   1771.0216              2961.3628              3001.4329
 Red. masses --      7.0925                 1.0733                 1.0656
 Frc consts  --     13.1069                 5.5458                 5.6559
 IR Inten    --    316.9523                89.4339                55.9824

                     67                     68                     69
                      A                      A                      A
 Frequencies --   3024.3426              3026.5523              3049.2956
 Red. masses --      1.0841                 1.0545                 1.0378
 Frc consts  --      5.8423                 5.6909                 5.6854
 IR Inten    --     45.2419                45.7758                16.2472

                     70                     71                     72
                      A                      A                      A
 Frequencies --   3065.2078              3067.7607              3103.6702
 Red. masses --      1.0691                 1.0882                 1.0898
 Frc consts  --      5.9179                 6.0338                 6.1851
 IR Inten    --     93.9827                14.9630                22.1971

                     73                     74                     75
                      A                      A                      A
 Frequencies --   3109.7189              3111.1288              3115.6264
 Red. masses --      1.0894                 1.0994                 1.1008
 Frc consts  --      6.2071                 6.2697                 6.2960
 IR Inten    --     37.9428                48.3487                30.8847

                     76                     77                     78
                      A                      A                      A
 Frequencies --   3126.6651              3143.1187              3186.8284
 Red. masses --      1.1021                 1.0874                 1.0948
 Frc consts  --      6.3481                 6.3294                 6.5508
 IR Inten    --     26.3732                19.3422                10.3054

                     79                     80                     81
                      A                      A                      A
 Frequencies --   3480.4452              3562.9613              3590.4133
 Red. masses --      1.0500                 1.0925                 1.0754
 Frc consts  --      7.4938                 8.1716                 8.1682
 IR Inten    --      0.7758                 0.0453                18.4185

 - Thermochemistry -
 -------------------
 Temperature   298.150 Kelvin.  Pressure   1.00000 Atm.
 Atom     1 has atomic number  6 and mass  12.00000

 Molecular mass:   171.13716 amu.
 Principal axes and moments of inertia in atomic units:
                           1         2         3
     Eigenvalues --  1059.419223552.494303838.16708
           X            0.99994   0.01064   0.00333
           Y           -0.01064   0.99994   0.00092
           Z           -0.00332  -0.00096   0.99999
 This molecule is an asymmetric top.
 Rotational symmetry number  1.
 Warning -- assumption of classical behavior for rotation
           may cause significant error
 Rotational temperatures (Kelvin)      0.08176     0.02438     0.02257
 Rotational constants (GHZ):           1.70352     0.50802     0.47021
 Zero-point vibrational energy     680995.0 (Joules/Mol)
                                  162.76170 (Kcal/Mol)
 Warning -- explicit consideration of  19 degrees of freedom as
           vibrations may cause significant error
 Vibrational temperatures:     69.33    92.59   124.32   163.51   181.62
          (Kelvin)            239.63   265.10   307.22   339.82   358.99
                              415.74   424.35   435.70   473.41   521.09
                              615.29   655.86   836.62   844.95   931.51
                              957.62  1035.06  1066.50  1211.70  1236.95
                             1313.62  1323.68  1352.54  1422.08  1453.03
                             1471.65  1484.21  1537.47  1577.82  1626.52
                             1635.52  1656.49  1659.10  1669.27  1713.52
                             1736.25  1748.61  1817.59  1846.77  1865.82
                             1924.42  1952.50  1973.33  1978.65  2007.35
                             2030.00  2041.13  2075.50  2143.90  2160.17
                             2187.30  2194.06  2198.97  2212.84  2214.00
                             2246.08  2259.37  2445.53  2548.11  4260.74
                             4318.39  4351.35  4354.53  4387.26  4410.15
                             4413.82  4465.49  4474.19  4476.22  4482.69
                             4498.57  4522.25  4585.14  5007.58  5126.31
                             5165.80

 Zero-point correction=                           0.259377 (Hartree/Particle)
 Thermal correction to Energy=                    0.272865
 Thermal correction to Enthalpy=                  0.273810
 Thermal correction to Gibbs Free Energy=         0.219470
 Sum of electronic and zero-point Energies=           -554.306689
 Sum of electronic and thermal Energies=              -554.293201
 Sum of electronic and thermal Enthalpies=            -554.292257
 Sum of electronic and thermal Free Energies=         -554.346597

                     E (Thermal)             CV                S
                      KCal/Mol        Cal/Mol-Kelvin    Cal/Mol-Kelvin
 Total                  171.226             49.767            114.367
 Electronic               0.000              0.000              0.000
 Translational            0.889              2.981             41.320
 Rotational               0.889              2.981             31.047
 Vibrational            169.448             43.806             42.001
 Vibration     1          0.595              1.978              4.890
 Vibration     2          0.597              1.971              4.319
 Vibration     3          0.601              1.959              3.740
 Vibration     4          0.607              1.938              3.206
 Vibration     5          0.611              1.927              3.003
 Vibration     6          0.624              1.884              2.474
 Vibration     7          0.631              1.861              2.285
 Vibration     8          0.644              1.820              2.013
 Vibration     9          0.655              1.785              1.831
 Vibration    10          0.662              1.764              1.734
 Vibration    11          0.686              1.694              1.480
 Vibration    12          0.689              1.683              1.445
 Vibration    13          0.694              1.668              1.401
 Vibration    14          0.712              1.617              1.265
 Vibration    15          0.736              1.550              1.113
 Vibration    16          0.789              1.410              0.866
 Vibration    17          0.814              1.348              0.778
 Vibration    18          0.938              1.071              0.483
 Vibration    19          0.944              1.059              0.472

                           ! Non-Optimized Parameters !
 Normal termination of Gaussian 16 at Wed Dec  9 18:37:54 2020.

 ----------------------------------------------------------------------
 # B3LYP/6-311++G(d,p) empiricaldispersion=gd3bj scf=xqc pop=npa geom=c
 heck
 ----------------------------------------------------------------------

 ---------------------------------------
 CID_130932730_JID_2989_Energie_neutraal
 ---------------------------------------
 Structure from the checkpoint file:  "JID_2989.chk"
 Charge =  0 Multiplicity = 1

 SCF Done:  E(RB3LYP) =  -554.736770879     A.U. after   14 cycles
 Normal termination of Gaussian 16 at Wed Dec  9 18:41:15 2020.

 ----------------------------------------------------------------------
 # B3LYP/6-311++G(d,p) empiricaldispersion=gd3bj scf=xqc pop=npa geom=c
 heck
 ----------------------------------------------------------------------

 -------------------------------------
 CID_130932730_JID_2989_Energie_kation
 -------------------------------------
 Structure from the checkpoint file:  "JID_2989.chk"
 Charge =  1 Multiplicity = 2

 SCF Done:  E(UB3LYP) =  -554.449962530     A.U. after   21 cycles
 Normal termination of Gaussian 16 at Wed Dec  9 18:48:18 2020.
 Gaussian 16:  ES64L-G16RevA.03 25-Dec-2016

 ----------------------------------------------------------------------
 # B3LYP/6-311++G(d,p) empiricaldispersion=gd3bj scf=xqc pop=npa geom=c
 heck
 ----------------------------------------------------------------------

 ------------------------------------
 CID_130932730_JID_2989_Energie_anion
 ------------------------------------
 Structure from the checkpoint file:  "JID_2989.chk"
 Charge = -1 Multiplicity = 2

                         Standard orientation:
 ---------------------------------------------------------------------
 Center     Atomic      Atomic             Coordinates (Angstroms)
 Number     Number       Type             X           Y           Z
 ---------------------------------------------------------------------
      1          6           0       -1.889938    1.501121    0.745557
      2          6           0       -2.055946   -0.029150    0.806902
      3          6           0       -3.210929   -0.505264   -0.086738
      4          7           0       -3.013803   -0.106927   -1.487252
      5          7           0       -0.855998   -0.802697    0.518915
      6          6           0       -0.079891   -0.672093   -0.731180
      7          6           0        1.194153   -1.033603    0.085720
      8          6           0        0.354542   -0.671010    1.342558
      9          6           0        2.559696   -0.420324   -0.164136
     10          8           0        3.540453   -1.147307   -0.296075
     11          7           0        2.727949    0.944899   -0.192391
     12          6           0        1.755056    2.014475   -0.325192
     13          1           0       -1.591310    1.829514   -0.255315
     14          1           0       -1.134105    1.848902    1.457296
     15          1           0       -2.831621    2.002011    1.000724
     16          1           0       -2.331709   -0.293819    1.838063
     17          1           0       -3.227199   -1.598672   -0.047198
     18          1           0       -4.161436   -0.143030    0.343974
     19          1           0       -3.631442   -0.647974   -2.088066
     20          1           0       -3.281442    0.867060   -1.613276
     21          1           0       -0.370199   -1.367940   -1.522234
     22          1           0       -0.067731    0.336787   -1.159576
     23          1           0        1.364163   -2.109625    0.051797
     24          1           0        0.558237    0.344957    1.715207
     25          1           0        0.412343   -1.363662    2.191040
     26          1           0        3.687873    1.180485   -0.413158
     27          1           0        2.233156    2.952971   -0.029424
     28          1           0        1.378527    2.130100   -1.351448
     29          1           0        0.902766    1.858566    0.334351
 ---------------------------------------------------------------------

 SCF Done:  E(UB3LYP) =  -554.727848941     A.U. after   31 cycles

 The electronic state is 2-A.
 Alpha  occ. eigenvalues --  -18.99066 -14.24065 -14.20122 -14.18856 -10.17701
 Alpha  occ. eigenvalues --  -10.10704 -10.10469 -10.09782 -10.09610 -10.08831
 Alpha  occ. eigenvalues --  -10.08735 -10.05542  -0.94204  -0.84790  -0.82152
 Alpha  occ. eigenvalues --   -0.77925  -0.69311  -0.62296  -0.60979  -0.58535
 Alpha  occ. eigenvalues --   -0.57177  -0.52140  -0.47440  -0.44817  -0.40916
 Alpha  occ. eigenvalues --   -0.40000  -0.39637  -0.38206  -0.36422  -0.35654
 Alpha  occ. eigenvalues --   -0.33613  -0.32853  -0.31452  -0.31051  -0.30804
 Alpha  occ. eigenvalues --   -0.30210  -0.29353  -0.27957  -0.26655  -0.25014
 Alpha  occ. eigenvalues --   -0.23609  -0.23366  -0.22567  -0.16473  -0.15740
 Alpha  occ. eigenvalues --   -0.14310  -0.11524   0.04074
 Alpha virt. eigenvalues --    0.06107   0.07494   0.07885   0.08794   0.09219
 Alpha virt. eigenvalues --    0.09546   0.10185   0.10398   0.10739   0.11615
 Alpha virt. eigenvalues --    0.12018   0.12868   0.13364   0.14128   0.14627

  Beta  occ. eigenvalues --  -18.99062 -14.24055 -14.20120 -14.18807 -10.17699
  Beta  occ. eigenvalues --  -10.10654 -10.10459 -10.09777 -10.09598 -10.08829
  Beta  occ. eigenvalues --  -10.08712 -10.05495  -0.94194  -0.84780  -0.82127
  Beta  occ. eigenvalues --   -0.77850  -0.69275  -0.62252  -0.60910  -0.58509
  Beta  occ. eigenvalues --   -0.57094  -0.52094  -0.47414  -0.44776  -0.40879
  Beta  occ. eigenvalues --   -0.39938  -0.39576  -0.38185  -0.36387  -0.35606
  Beta  occ. eigenvalues --   -0.33576  -0.32794  -0.31409  -0.31022  -0.30773
  Beta  occ. eigenvalues --   -0.30173  -0.29309  -0.27933  -0.26628  -0.24985
  Beta  occ. eigenvalues --   -0.23583  -0.23336  -0.22546  -0.16459  -0.15721
  Beta  occ. eigenvalues --   -0.14262  -0.11509
  Beta virt. eigenvalues --    0.06576   0.07282   0.07945   0.08397   0.09293
  Beta virt. eigenvalues --    0.09591   0.10151   0.10547   0.10734   0.11079
  Beta virt. eigenvalues --    0.12001   0.12380   0.13477   0.13550   0.14323

 Mulliken charges and spin densities:
               1          2
     1  C    1.068732  -1.676766
     2  C   -1.792746   1.931155
     3  C    1.345330  -1.928905
     4  N   -0.407442   0.027740
     5  N    0.045624  -0.002366
     6  C    0.338424  -0.763082
     7  C   -0.204928   0.600144
     8  C    0.052686  -0.557415
     9  C   -0.153000   0.137469
    10  O   -0.364779   0.005211
    11  N   -0.378026   0.125179
    12  C    0.663011  -1.103253
    13  H    0.103727   0.041604
    14  H   -0.264402   0.385125
    15  H   -0.597344   0.772695
    16  H    0.036359   0.113405
    17  H   -0.072683   0.247987
    18  H   -0.334724   0.475310
    19  H   -0.081778   0.319522
    20  H   -0.200718   0.427131
    21  H    0.202542   0.001731
    22  H    0.425952  -0.336839
    23  H    0.191157   0.042643
    24  H   -0.034819   0.145363
    25  H    0.065503   0.102967
    26  H    0.114403   0.191636
    27  H   -0.898791   1.055105
    28  H   -0.336411   0.529781
    29  H    0.469143  -0.310276
 Sum of Mulliken charges =  -1.00000   1.00000

 Dipole moment (field-independent basis, Debye):
    X=              2.0549    Y=             -4.2806    Z=              1.5042  Tot=              4.9809
 Quadrupole moment (field-independent basis, Debye-Ang):
   XX=           -155.5307   YY=           -123.1257   ZZ=           -104.8951
   XY=              5.6729   XZ=             -3.5825   YZ=             -1.9511

 Summary of Natural Population Analysis:

                                       Natural Population
                Natural  -----------------------------------------------
    Atom  No    Charge         Core      Valence    Rydberg      Total
 -----------------------------------------------------------------------
      C    1   -0.30345      0.99964     2.29731    0.00650     3.30345
      C    2   -0.00669      0.99959     1.99279    0.01432     3.00669
      C    3   -0.08863      0.99960     2.07600    0.01303     3.08863
      N    4   -0.42738      0.99977     2.91626    0.01134     3.92738
      N    5   -0.28418      0.99971     2.77185    0.01262     3.78418
      C    6   -0.06742      0.99963     2.05752    0.01027     3.06742
      C    7   -0.15827      0.99954     2.14883    0.00990     3.15827
      C    8   -0.06802      0.99963     2.05903    0.00936     3.06802
      C    9    0.34164      0.99963     1.63524    0.02348     2.65836
      O   10   -0.32691      0.99988     3.32152    0.00551     4.32691
      N   11   -0.31736      0.99968     2.80732    0.01036     3.81736
      C   12   -0.18210      0.99963     2.17379    0.00867     3.18210
      H   13    0.10107      0.00000     0.39713    0.00180     0.39893
      H   14    0.09907      0.00000     0.39950    0.00143     0.40093
      H   15    0.10490      0.00000     0.39352    0.00158     0.39510
      H   16    0.09393      0.00000     0.40461    0.00146     0.40607
      H   17    0.09368      0.00000     0.40479    0.00153     0.40632
      H   18    0.08136      0.00000     0.41681    0.00183     0.41864
      H   19    0.17747      0.00000     0.32022    0.00231     0.32253
      H   20    0.17720      0.00000     0.31947    0.00333     0.32280
      H   21    0.09606      0.00000     0.40262    0.00132     0.40394
      H   22    0.09103      0.00000     0.40722    0.00176     0.40897
      H   23    0.11226      0.00000     0.38661    0.00112     0.38774
      H   24    0.08474      0.00000     0.41381    0.00145     0.41526
      H   25    0.08915      0.00000     0.40975    0.00111     0.41085
      H   26    0.19199      0.00000     0.30568    0.00233     0.30801
      H   27    0.10239      0.00000     0.39515    0.00247     0.39761
      H   28    0.09217      0.00000     0.40622    0.00161     0.40783
      H   29    0.10031      0.00000     0.39744    0.00226     0.39969
 =======================================================================
   * Total *    0.00000     11.99594    34.83801    0.16605    47.00000

 Normal termination of Gaussian 16 at Wed Dec  9 18:58:27 2020.
