 Gaussian 16, Revision A.03,

 -----------------------------------------------------------
 # opt freq B3LYP/6-31G(d) empiricaldispersion=gd3bj scf=xqc
 -----------------------------------------------------------

 ------------------------------
 CID_69329212_JID_5517_neutraal
 ------------------------------
 Symbolic Z-matrix:
 Charge =  0 Multiplicity = 1

 SCF Done:  E(RB3LYP) =  -728.496182236     A.U. after   16 cycles
 SCF Done:  E(RB3LYP) =  -728.501944379     A.U. after   14 cycles
 SCF Done:  E(RB3LYP) =  -728.502484079     A.U. after   14 cycles
 SCF Done:  E(RB3LYP) =  -728.503404180     A.U. after   13 cycles
 SCF Done:  E(RB3LYP) =  -728.503560263     A.U. after   12 cycles
 SCF Done:  E(RB3LYP) =  -728.503761835     A.U. after   13 cycles
 SCF Done:  E(RB3LYP) =  -728.503917089     A.U. after   12 cycles
 SCF Done:  E(RB3LYP) =  -728.504264812     A.U. after   13 cycles
 SCF Done:  E(RB3LYP) =  -728.502805684     A.U. after   14 cycles
 SCF Done:  E(RB3LYP) =  -728.505372599     A.U. after   13 cycles
 SCF Done:  E(RB3LYP) =  -728.507331454     A.U. after   13 cycles
 SCF Done:  E(RB3LYP) =  -728.507652624     A.U. after   14 cycles
 SCF Done:  E(RB3LYP) =  -728.507912016     A.U. after    9 cycles
 SCF Done:  E(RB3LYP) =  -728.507916029     A.U. after   10 cycles
 SCF Done:  E(RB3LYP) =  -728.507916346     A.U. after    8 cycles
 SCF Done:  E(RB3LYP) =  -728.507916389     A.U. after    7 cycles
 Optimization completed.
    -- Stationary point found.
 Normal termination of Gaussian 16 at Thu Dec 10 16:57:22 2020.

 --------------------------------------------------------------------
 #N Geom=AllCheck Guess=TCheck SCRF=Check GenChk RB3LYP/6-31G(d) Freq
 --------------------------------------------------------------------

 Structure from the checkpoint file:  "JID_5517.chk"
 ------------------------------
 CID_69329212_JID_5517_neutraal
 ------------------------------
 Charge =  0 Multiplicity = 1

 SCF Done:  E(RB3LYP) =  -728.507916389     A.U. after    2 cycles

  Exact polarizability: 151.674 -18.052 163.785  -3.104  -4.007  77.460
 Approx polarizability: 227.072 -82.728 306.051   2.425 -14.114 117.040

                      1                      2                      3
                      A                      A                      A
 Frequencies --     40.6764                43.5803                58.0744
 Red. masses --      3.1503                 3.2959                 4.2580
 Frc consts  --      0.0031                 0.0037                 0.0085
 IR Inten    --      3.8133                 0.8300                 2.4294

                      4                      5                      6
                      A                      A                      A
 Frequencies --     66.4763                84.0793                92.5912
 Red. masses --      1.6489                 2.9290                 2.4231
 Frc consts  --      0.0043                 0.0122                 0.0122
 IR Inten    --      0.7744                 3.8221                 1.7177

                      7                      8                      9
                      A                      A                      A
 Frequencies --     96.5900               162.6708               207.6056
 Red. masses --      3.4516                 3.6080                 3.5762
 Frc consts  --      0.0190                 0.0563                 0.0908
 IR Inten    --      0.4465                 6.1743                 3.3918

                     10                     11                     12
                      A                      A                      A
 Frequencies --    216.0469               222.4972               249.7317
 Red. masses --      1.1456                 1.3553                 2.8414
 Frc consts  --      0.0315                 0.0395                 0.1044
 IR Inten    --      0.3200                 1.7541                 2.8620

                     13                     14                     15
                      A                      A                      A
 Frequencies --    276.6248               315.2269               338.7485
 Red. masses --      3.8701                 2.5469                 2.4311
 Frc consts  --      0.1745                 0.1491                 0.1644
 IR Inten    --      0.4403                 0.2352                 0.7342

                     16                     17                     18
                      A                      A                      A
 Frequencies --    353.8291               362.8081               399.7828
 Red. masses --      4.3342                 5.1482                 5.1680
 Frc consts  --      0.3197                 0.3993                 0.4867
 IR Inten    --      1.0661                 0.1036                 2.7087

                     19                     20                     21
                      A                      A                      A
 Frequencies --    425.1477               447.4261               452.3098
 Red. masses --      7.9656                 5.6289                 5.3181
 Frc consts  --      0.8483                 0.6639                 0.6410
 IR Inten    --     11.1646                19.4706                 8.3743

                     22                     23                     24
                      A                      A                      A
 Frequencies --    513.9674               543.1510               586.6861
 Red. masses --      5.5302                 7.1711                 1.3411
 Frc consts  --      0.8607                 1.2465                 0.2720
 IR Inten    --      1.4454                11.7454               147.5829

                     25                     26                     27
                      A                      A                      A
 Frequencies --    597.3213               656.9422               710.2492
 Red. masses --      3.5209                 3.4470                 3.3491
 Frc consts  --      0.7401                 0.8765                 0.9954
 IR Inten    --     58.4487                32.5085                 5.0901

                     28                     29                     30
                      A                      A                      A
 Frequencies --    749.0243               768.2286               787.0992
 Red. masses --      5.4945                 5.0248                 1.6104
 Frc consts  --      1.8162                 1.7472                 0.5878
 IR Inten    --     18.7949                10.2715                 2.5095

                     31                     32                     33
                      A                      A                      A
 Frequencies --    880.5404               917.0682               948.3832
 Red. masses --      2.6983                 2.9433                 2.5851
 Frc consts  --      1.2326                 1.4585                 1.3699
 IR Inten    --     25.9358                 9.0132                 7.6775

                     34                     35                     36
                      A                      A                      A
 Frequencies --    987.0509              1020.4533              1059.5742
 Red. masses --      3.3078                 2.3480                 1.6228
 Frc consts  --      1.8988                 1.4406                 1.0735
 IR Inten    --      8.8031                90.2020                 3.1620

                     37                     38                     39
                      A                      A                      A
 Frequencies --   1073.5997              1081.1683              1092.2632
 Red. masses --      3.1504                 4.2067                 1.9820
 Frc consts  --      2.1394                 2.8972                 1.3932
 IR Inten    --     23.1939                85.2494                14.6943

                     40                     41                     42
                      A                      A                      A
 Frequencies --   1101.6553              1141.9561              1174.5830
 Red. masses --      1.8638                 2.5424                 1.2563
 Frc consts  --      1.3327                 1.9534                 1.0212
 IR Inten    --      8.4349                 3.7131                 1.8385

                     43                     44                     45
                      A                      A                      A
 Frequencies --   1192.7409              1219.8598              1251.0205
 Red. masses --      2.0684                 1.7353                 1.4479
 Frc consts  --      1.7338                 1.5214                 1.3352
 IR Inten    --     56.3323                35.7009               200.1510

                     46                     47                     48
                      A                      A                      A
 Frequencies --   1298.4742              1320.2258              1357.0933
 Red. masses --      2.6121                 1.5014                 3.5149
 Frc consts  --      2.5948                 1.5419                 3.8140
 IR Inten    --    201.1451                41.3869               111.7082

                     49                     50                     51
                      A                      A                      A
 Frequencies --   1374.4179              1389.8865              1392.6863
 Red. masses --      2.0223                 2.1409                 1.5665
 Frc consts  --      2.2507                 2.4367                 1.7901
 IR Inten    --     63.9304                38.4316                12.6791

                     52                     53                     54
                      A                      A                      A
 Frequencies --   1431.3277              1441.4013              1463.3413
 Red. masses --      1.2378                 1.3105                 1.1876
 Frc consts  --      1.4941                 1.6042                 1.4983
 IR Inten    --      9.0819                19.1305               111.6235

                     55                     56                     57
                      A                      A                      A
 Frequencies --   1501.2261              1502.8519              1506.3799
 Red. masses --      1.1226                 1.0650                 1.0594
 Frc consts  --      1.4906                 1.4172                 1.4164
 IR Inten    --      2.9292                 1.3929                 8.0692

                     58                     59                     60
                      A                      A                      A
 Frequencies --   1511.9141              1517.1336              1521.6857
 Red. masses --      1.1584                 1.0740                 1.0522
 Frc consts  --      1.5601                 1.4565                 1.4355
 IR Inten    --      9.4960                12.6969                25.9082

                     61                     62                     63
                      A                      A                      A
 Frequencies --   1528.6609              1529.7037              1536.1657
 Red. masses --      1.0915                 1.0463                 1.0646
 Frc consts  --      1.5027                 1.4425                 1.4802
 IR Inten    --      2.1622                 5.2885                 5.1004

                     64                     65                     66
                      A                      A                      A
 Frequencies --   1666.2339              1693.0868              1719.0709
 Red. masses --      8.6664                11.1284                 9.1043
 Frc consts  --     14.1763                18.7949                15.8521
 IR Inten    --    151.1390               110.8365               100.0808

                     67                     68                     69
                      A                      A                      A
 Frequencies --   1739.1176              2997.3110              3055.2036
 Red. masses --     11.7175                 1.0728                 1.0341
 Frc consts  --     20.8805                 5.6785                 5.6872
 IR Inten    --    157.7245                43.6664                32.5327

                     70                     71                     72
                      A                      A                      A
 Frequencies --   3066.3729              3077.7250              3081.3949
 Red. masses --      1.0431                 1.0296                 1.0593
 Frc consts  --      5.7789                 5.7463                 5.9258
 IR Inten    --      7.4490                49.8746                14.6085

                     73                     74                     75
                      A                      A                      A
 Frequencies --   3119.4071              3121.7308              3126.0579
 Red. masses --      1.1038                 1.0949                 1.1017
 Frc consts  --      6.3283                 6.2865                 6.3432
 IR Inten    --      2.6545                 7.1403                37.3972

                     76                     77                     78
                      A                      A                      A
 Frequencies --   3141.1183              3146.2196              3158.7048
 Red. masses --      1.1054                 1.0913                 1.1076
 Frc consts  --      6.4258                 6.3646                 6.5109
 IR Inten    --     22.0212                19.7386                29.2443

                     79                     80                     81
                      A                      A                      A
 Frequencies --   3178.4883              3179.0737              3690.5124
 Red. masses --      1.0981                 1.1071                 1.0646
 Frc consts  --      6.5364                 6.5925                 8.5430
 IR Inten    --     21.0305                12.2849                66.5552

 - Thermochemistry -
 -------------------
 Temperature   298.150 Kelvin.  Pressure   1.00000 Atm.
 Atom     1 has atomic number  6 and mass  12.00000

 Molecular mass:   210.08921 amu.
 Principal axes and moments of inertia in atomic units:
                           1         2         3
     Eigenvalues --  2398.333863396.760565441.62899
           X            0.99750   0.07016  -0.00889
           Y           -0.07008   0.99750   0.00863
           Z            0.00947  -0.00798   0.99992
 This molecule is an asymmetric top.
 Rotational symmetry number  1.
 Warning -- assumption of classical behavior for rotation
           may cause significant error
 Rotational temperatures (Kelvin)      0.03611     0.02550     0.01592
 Rotational constants (GHZ):           0.75250     0.53131     0.33165
 Zero-point vibrational energy     622348.3 (Joules/Mol)
                                  148.74482 (Kcal/Mol)
 Warning -- explicit consideration of  25 degrees of freedom as
           vibrations may cause significant error
 Vibrational temperatures:     58.52    62.70    83.56    95.64   120.97
          (Kelvin)            133.22   138.97   234.05   298.70   310.84
                              320.12   359.31   398.00   453.54   487.38
                              509.08   522.00   575.20   611.69   643.75
                              650.77   739.48   781.47   844.11   859.41
                              945.19  1021.89  1077.68  1105.31  1132.46
                             1266.90  1319.46  1364.51  1420.15  1468.20
                             1524.49  1544.67  1555.56  1571.52  1585.04
                             1643.02  1689.96  1716.09  1755.11  1799.94
                             1868.21  1899.51  1952.55  1977.48  1999.74
                             2003.76  2059.36  2073.86  2105.42  2159.93
                             2162.27  2167.34  2175.31  2182.82  2189.37
                             2199.40  2200.90  2210.20  2397.34  2435.97
                             2473.36  2502.20  4312.46  4395.76  4411.83
                             4428.16  4433.44  4488.13  4491.47  4497.70
                             4519.37  4526.71  4544.67  4573.14  4573.98
                             5309.82

 Zero-point correction=                           0.237040 (Hartree/Particle)
 Thermal correction to Energy=                    0.253033
 Thermal correction to Enthalpy=                  0.253977
 Thermal correction to Gibbs Free Energy=         0.192665
 Sum of electronic and zero-point Energies=           -728.270876
 Sum of electronic and thermal Energies=              -728.254883
 Sum of electronic and thermal Enthalpies=            -728.253939
 Sum of electronic and thermal Free Energies=         -728.315251

                     E (Thermal)             CV                S
                      KCal/Mol        Cal/Mol-Kelvin    Cal/Mol-Kelvin
 Total                  158.781             57.341            129.043
 Electronic               0.000              0.000              0.000
 Translational            0.889              2.981             41.931
 Rotational               0.889              2.981             32.161
 Vibrational            157.003             51.380             54.951
 Vibration     1          0.594              1.981              5.226
 Vibration     2          0.595              1.980              5.089
 Vibration     3          0.596              1.974              4.522
 Vibration     4          0.598              1.970              4.255
 Vibration     5          0.601              1.960              3.793
 Vibration     6          0.602              1.954              3.605
 Vibration     7          0.603              1.952              3.522
 Vibration     8          0.623              1.888              2.519
 Vibration     9          0.641              1.829              2.065
 Vibration    10          0.645              1.817              1.992
 Vibration    11          0.648              1.807              1.939
 Vibration    12          0.663              1.763              1.732
 Vibration    13          0.678              1.717              1.554
 Vibration    14          0.703              1.645              1.335
 Vibration    15          0.719              1.598              1.218
 Vibration    16          0.730              1.567              1.149
 Vibration    17          0.737              1.549              1.110
 Vibration    18          0.766              1.471              0.963
 Vibration    19          0.787              1.416              0.875
 Vibration    20          0.807              1.367              0.804
 Vibration    21          0.811              1.356              0.789
 Vibration    22          0.869              1.219              0.624
 Vibration    23          0.898              1.155              0.559
 Vibration    24          0.944              1.060              0.473
 Vibration    25          0.955              1.037              0.454

                           ! Non-Optimized Parameters !
 Normal termination of Gaussian 16 at Thu Dec 10 17:06:45 2020.

 ----------------------------------------------------------------------
 # B3LYP/6-311++G(d,p) empiricaldispersion=gd3bj scf=xqc pop=npa geom=c
 heck
 ----------------------------------------------------------------------

 --------------------------------------
 CID_69329212_JID_5517_Energie_neutraal
 --------------------------------------
 Structure from the checkpoint file:  "JID_5517.chk"
 Charge =  0 Multiplicity = 1

 SCF Done:  E(RB3LYP) =  -728.722608811     A.U. after   16 cycles
 Normal termination of Gaussian 16 at Thu Dec 10 17:11:44 2020.

 ----------------------------------------------------------------------
 # B3LYP/6-311++G(d,p) empiricaldispersion=gd3bj scf=xqc pop=npa geom=c
 heck
 ----------------------------------------------------------------------

 ------------------------------------
 CID_69329212_JID_5517_Energie_kation
 ------------------------------------
 Structure from the checkpoint file:  "JID_5517.chk"
 Charge =  1 Multiplicity = 2

 SCF Done:  E(UB3LYP) =  -728.402307325     A.U. after   28 cycles
 Normal termination of Gaussian 16 at Thu Dec 10 17:23:51 2020.
 Gaussian 16:  ES64L-G16RevA.03 25-Dec-2016

 ----------------------------------------------------------------------
 # B3LYP/6-311++G(d,p) empiricaldispersion=gd3bj scf=xqc pop=npa geom=c
 heck
 ----------------------------------------------------------------------

 -----------------------------------
 CID_69329212_JID_5517_Energie_anion
 -----------------------------------
 Structure from the checkpoint file:  "JID_5517.chk"
 Charge = -1 Multiplicity = 2

                         Standard orientation:
 ---------------------------------------------------------------------
 Center     Atomic      Atomic             Coordinates (Angstroms)
 Number     Number       Type             X           Y           Z
 ---------------------------------------------------------------------
      1          6           0        1.794263    2.901521    0.990859
      2          6           0        1.418652    2.272129   -0.362210
      3          6           0        0.670184    0.979696   -0.192225
      4          6           0        1.295415   -0.224120   -0.115789
      5          6           0        0.518138   -1.481673    0.118511
      6          8           0        1.088355   -2.556974    0.268632
      7          6           0       -0.973343   -1.411128    0.196143
      8          6           0       -1.593376   -0.212877    0.133605
      9          6           0       -0.791332    1.037320   -0.055692
     10          8           0       -1.376362    2.126032   -0.104989
     11          6           0       -3.085224    0.020165    0.266511
     12          8           0       -3.624940    0.714758   -0.843894
     13          6           0       -1.637866   -2.745122    0.390241
     14          8           0        2.641795   -0.241480   -0.163835
     15          6           0        3.393359   -1.389793   -0.589787
     16          1           0        0.895672    3.114345    1.578717
     17          1           0        2.333642    3.843030    0.840845
     18          1           0        2.435418    2.227119    1.567917
     19          1           0        0.786618    2.968210   -0.920533
     20          1           0        2.325848    2.084655   -0.943780
     21          1           0       -3.624771   -0.924789    0.334331
     22          1           0       -3.263091    0.566895    1.206793
     23          1           0       -3.191823    1.586710   -0.823063
     24          1           0       -1.410212   -3.145218    1.385355
     25          1           0       -2.720566   -2.690208    0.278847
     26          1           0       -1.243633   -3.470100   -0.327829
     27          1           0        3.493636   -2.115806    0.216852
     28          1           0        2.929199   -1.871262   -1.454072
     29          1           0        4.370051   -0.988984   -0.868691
 ---------------------------------------------------------------------

 SCF Done:  E(UB3LYP) =  -728.792632115     A.U. after   22 cycles

 The electronic state is 2-A.
 Alpha  occ. eigenvalues --  -19.02066 -18.98012 -18.93710 -18.93590 -10.10114
 Alpha  occ. eigenvalues --  -10.08520 -10.08472 -10.08424 -10.08271 -10.03954
 Alpha  occ. eigenvalues --  -10.03792 -10.03729 -10.03642 -10.02801 -10.02305
 Alpha  occ. eigenvalues --   -0.93831  -0.89061  -0.87819  -0.86914  -0.69305
 Alpha  occ. eigenvalues --   -0.66536  -0.62203  -0.59162  -0.57510  -0.53705
 Alpha  occ. eigenvalues --   -0.50495  -0.48066  -0.43954  -0.41828  -0.38746
 Alpha  occ. eigenvalues --   -0.37276  -0.35965  -0.34480  -0.32365  -0.31960
 Alpha  occ. eigenvalues --   -0.31218  -0.30526  -0.29411  -0.28233  -0.27734
 Alpha  occ. eigenvalues --   -0.27136  -0.26592  -0.25574  -0.24762  -0.24261
 Alpha  occ. eigenvalues --   -0.23498  -0.22925  -0.21794  -0.21541  -0.20405
 Alpha  occ. eigenvalues --   -0.19336  -0.14533  -0.13267  -0.10725  -0.09360
 Alpha  occ. eigenvalues --   -0.09070  -0.00513
 Alpha virt. eigenvalues --    0.08367   0.09349   0.09463   0.11112   0.11275
 Alpha virt. eigenvalues --    0.11876   0.12304   0.12847   0.13015   0.13525
 Alpha virt. eigenvalues --    0.14130   0.14459   0.14966   0.15791   0.16239

  Beta  occ. eigenvalues --  -19.02009 -18.98001 -18.93048 -18.93039 -10.10115
  Beta  occ. eigenvalues --  -10.08484 -10.08387 -10.08230 -10.08100 -10.03949
  Beta  occ. eigenvalues --  -10.03802 -10.03734 -10.03540 -10.02660 -10.02263
  Beta  occ. eigenvalues --   -0.93664  -0.88852  -0.86688  -0.86144  -0.68896
  Beta  occ. eigenvalues --   -0.66376  -0.62097  -0.58926  -0.57358  -0.53464
  Beta  occ. eigenvalues --   -0.50097  -0.47560  -0.43694  -0.41498  -0.38623
  Beta  occ. eigenvalues --   -0.37048  -0.35832  -0.34223  -0.32168  -0.31815
  Beta  occ. eigenvalues --   -0.31100  -0.30220  -0.29045  -0.28151  -0.27271
  Beta  occ. eigenvalues --   -0.26901  -0.26107  -0.25156  -0.24373  -0.23498
  Beta  occ. eigenvalues --   -0.22615  -0.21992  -0.21563  -0.21024  -0.19671
  Beta  occ. eigenvalues --   -0.18783  -0.14444  -0.11053  -0.10164  -0.08816
  Beta  occ. eigenvalues --   -0.08239
  Beta virt. eigenvalues --    0.06401   0.08399   0.09359   0.09459   0.11141
  Beta virt. eigenvalues --    0.11279   0.11879   0.12365   0.12881   0.13028
  Beta virt. eigenvalues --    0.13523   0.14263   0.14645   0.15789   0.15969

 Mulliken charges and spin densities:
               1          2
     1  C   -0.592741   0.003167
     2  C   -0.329301   0.007638
     3  C    1.844205   0.016509
     4  C   -0.422212   0.113967
     5  C   -0.700567   0.103956
     6  O   -0.360407   0.244043
     7  C    0.579260   0.071785
     8  C    0.293194   0.088901
     9  C   -1.231462   0.112996
    10  O   -0.394752   0.195148
    11  C   -0.544881   0.001905
    12  O   -0.264053   0.003036
    13  C   -0.490778   0.000609
    14  O   -0.187469   0.013093
    15  C   -0.271966   0.000831
    16  H    0.163535  -0.001658
    17  H    0.086558   0.003890
    18  H    0.140654   0.001424
    19  H    0.178740   0.002240
    20  H    0.148653  -0.000478
    21  H    0.132609   0.000907
    22  H    0.132512   0.006198
    23  H    0.257516  -0.001531
    24  H    0.152487   0.007386
    25  H    0.090393  -0.000040
    26  H    0.155008   0.002506
    27  H    0.170403   0.000467
    28  H    0.157393   0.001731
    29  H    0.107469  -0.000625
 Sum of Mulliken charges =  -1.00000   1.00000

 Dipole moment (field-independent basis, Debye):
    X=              2.7395    Y=             -0.4297    Z=              0.4241  Tot=              2.8053
 Quadrupole moment (field-independent basis, Debye-Ang):
   XX=           -117.5213   YY=           -118.4456   ZZ=            -96.2780
   XY=              7.0500   XZ=             -7.8243   YZ=              1.7504

 Summary of Natural Population Analysis:

                                       Natural Population
                Natural  -----------------------------------------------
    Atom  No    Charge         Core      Valence    Rydberg      Total
 -----------------------------------------------------------------------
      C    1   -0.27986      0.99967     2.27599    0.00420     3.27986
      C    2   -0.20087      0.99962     2.19203    0.00923     3.20087
      C    3   -0.06226      0.99944     2.05266    0.01016     3.06226
      C    4    0.17827      0.99931     1.81023    0.01219     2.82173
      C    5    0.24960      0.99958     1.73135    0.01947     2.75040
      O    6   -0.22575      0.99988     3.21956    0.00631     4.22575
      C    7   -0.00885      0.99944     2.00088    0.00853     3.00885
      C    8   -0.01708      0.99941     2.00864    0.00902     3.01708
      C    9    0.26786      0.99955     1.71297    0.01961     2.73214
      O   10   -0.26918      0.99988     3.26249    0.00681     4.26918
      C   11   -0.01927      0.99956     2.00548    0.01423     3.01927
      O   12   -0.38233      0.99990     3.37541    0.00702     4.38233
      C   13   -0.29752      0.99964     2.29199    0.00589     3.29752
      O   14   -0.27852      0.99984     3.26738    0.01129     4.27852
      C   15   -0.09441      0.99960     2.08646    0.00835     3.09441
      H   16    0.09973      0.00000     0.39920    0.00107     0.40027
      H   17    0.08614      0.00000     0.41277    0.00109     0.41386
      H   18    0.09493      0.00000     0.40402    0.00105     0.40507
      H   19    0.10542      0.00000     0.39315    0.00142     0.39458
      H   20    0.09667      0.00000     0.40202    0.00132     0.40333
      H   21    0.08069      0.00000     0.41798    0.00133     0.41931
      H   22    0.07810      0.00000     0.42035    0.00155     0.42190
      H   23    0.24195      0.00000     0.25494    0.00311     0.25805
      H   24    0.10335      0.00000     0.39555    0.00111     0.39665
      H   25    0.09218      0.00000     0.40678    0.00104     0.40782
      H   26    0.10700      0.00000     0.39183    0.00117     0.39300
      H   27    0.09244      0.00000     0.40633    0.00123     0.40756
      H   28    0.08607      0.00000     0.41270    0.00124     0.41393
      H   29    0.07549      0.00000     0.42347    0.00104     0.42451
 =======================================================================
   * Total *   -0.00000     14.99432    40.83459    0.17109    56.00000

 Normal termination of Gaussian 16 at Thu Dec 10 17:33:05 2020.
