 Gaussian 16, Revision A.03,

 -----------------------------------------------------------
 # opt freq B3LYP/6-31G(d) empiricaldispersion=gd3bj scf=xqc
 -----------------------------------------------------------

 ------------------------------
 CID_147161326_JID_445_neutraal
 ------------------------------
 Symbolic Z-matrix:
 Charge =  0 Multiplicity = 1

 SCF Done:  E(RB3LYP) =  -458.667344199     A.U. after   15 cycles
 SCF Done:  E(RB3LYP) =  -458.673339072     A.U. after   14 cycles
 SCF Done:  E(RB3LYP) =  -458.671448757     A.U. after   13 cycles
 SCF Done:  E(RB3LYP) =  -458.674083575     A.U. after   12 cycles
 SCF Done:  E(RB3LYP) =  -458.675119383     A.U. after   12 cycles
 SCF Done:  E(RB3LYP) =  -458.675501394     A.U. after   13 cycles
 SCF Done:  E(RB3LYP) =  -458.675779059     A.U. after   11 cycles
 SCF Done:  E(RB3LYP) =  -458.675928552     A.U. after   12 cycles
 SCF Done:  E(RB3LYP) =  -458.675963267     A.U. after   11 cycles
 SCF Done:  E(RB3LYP) =  -458.675998295     A.U. after   11 cycles
 SCF Done:  E(RB3LYP) =  -458.676015476     A.U. after   11 cycles
 SCF Done:  E(RB3LYP) =  -458.676019587     A.U. after   10 cycles
 SCF Done:  E(RB3LYP) =  -458.676021038     A.U. after    8 cycles
 SCF Done:  E(RB3LYP) =  -458.676022107     A.U. after    8 cycles
 SCF Done:  E(RB3LYP) =  -458.676022242     A.U. after    8 cycles
 Optimization completed.
    -- Stationary point found.
 Normal termination of Gaussian 16 at Tue Dec  8 10:38:03 2020.

 --------------------------------------------------------------------
 #N Geom=AllCheck Guess=TCheck SCRF=Check GenChk RB3LYP/6-31G(d) Freq
 --------------------------------------------------------------------

 Structure from the checkpoint file:  "JID_445.chk"
 ------------------------------
 CID_147161326_JID_445_neutraal
 ------------------------------
 Charge =  0 Multiplicity = 1

 SCF Done:  E(RB3LYP) =  -458.676022242     A.U. after    1 cycles

  Exact polarizability:  99.335  -2.389  84.715  -8.677  -0.665  78.876
 Approx polarizability: 150.650  -7.293 118.353 -24.351  -1.960 129.868

                      1                      2                      3
                      A                      A                      A
 Frequencies --     64.1316                72.4941               105.1586
 Red. masses --      3.9396                 3.1106                 3.7134
 Frc consts  --      0.0095                 0.0096                 0.0242
 IR Inten    --      1.2440                 0.2586                 3.5356

                      4                      5                      6
                      A                      A                      A
 Frequencies --    121.3094               161.3473               179.8748
 Red. masses --      2.4674                 2.2367                 1.2756
 Frc consts  --      0.0214                 0.0343                 0.0243
 IR Inten    --      0.1374                 0.2951                 0.0506

                      7                      8                      9
                      A                      A                      A
 Frequencies --    214.6828               242.2222               279.7882
 Red. masses --      1.2112                 3.4372                 3.5442
 Frc consts  --      0.0329                 0.1188                 0.1635
 IR Inten    --      0.1580                 1.8519                 9.9088

                     10                     11                     12
                      A                      A                      A
 Frequencies --    307.2136               328.3387               372.5786
 Red. masses --      3.0707                 3.2414                 2.5099
 Frc consts  --      0.1708                 0.2059                 0.2053
 IR Inten    --      0.5591                 9.3921                 3.7097

                     13                     14                     15
                      A                      A                      A
 Frequencies --    488.1080               540.1229               564.0723
 Red. masses --      3.1282                 4.4305                 1.5802
 Frc consts  --      0.4391                 0.7615                 0.2962
 IR Inten    --     18.9506                 1.6510                80.0705

                     16                     17                     18
                      A                      A                      A
 Frequencies --    626.2179               665.1273               726.4220
 Red. masses --      3.0142                 2.0763                 2.3034
 Frc consts  --      0.6964                 0.5412                 0.7161
 IR Inten    --     47.8764                27.4173                18.2162

                     19                     20                     21
                      A                      A                      A
 Frequencies --    756.2909               788.3767               811.7900
 Red. masses --      2.2901                 1.7097                 2.1914
 Frc consts  --      0.7718                 0.6261                 0.8509
 IR Inten    --      9.0331                 3.7413                59.0272

                     22                     23                     24
                      A                      A                      A
 Frequencies --    903.5877               928.0662               955.6223
 Red. masses --      1.4849                 1.3752                 1.3553
 Frc consts  --      0.7143                 0.6979                 0.7292
 IR Inten    --      0.9596                16.2084                42.8602

                     25                     26                     27
                      A                      A                      A
 Frequencies --    965.3326              1030.1281              1038.7354
 Red. masses --      1.8291                 2.8522                 1.4283
 Frc consts  --      1.0043                 1.7833                 0.9080
 IR Inten    --      5.4275                 0.2856                 4.2302

                     28                     29                     30
                      A                      A                      A
 Frequencies --   1064.8238              1088.6085              1110.4508
 Red. masses --      3.1603                 1.5003                 1.7194
 Frc consts  --      2.1112                 1.0476                 1.2492
 IR Inten    --     25.7445                 0.3004                 3.4422

                     31                     32                     33
                      A                      A                      A
 Frequencies --   1181.0412              1240.5732              1294.5009
 Red. masses --      2.1301                 2.7395                 1.1868
 Frc consts  --      1.7506                 2.4841                 1.1718
 IR Inten    --      5.2244                67.1212                 0.9879

                     34                     35                     36
                      A                      A                      A
 Frequencies --   1348.5612              1388.2564              1413.6442
 Red. masses --      1.3985                 4.1327                 1.2796
 Frc consts  --      1.4985                 4.6927                 1.5066
 IR Inten    --      3.8212               134.5214                 1.9951

                     37                     38                     39
                      A                      A                      A
 Frequencies --   1432.9252              1438.1742              1453.2047
 Red. masses --      1.3078                 1.2263                 1.3518
 Frc consts  --      1.5821                 1.4944                 1.6819
 IR Inten    --      2.8534                 5.3484                11.5441

                     40                     41                     42
                      A                      A                      A
 Frequencies --   1471.4596              1502.4059              1510.1461
 Red. masses --      1.2185                 1.0529                 1.0750
 Frc consts  --      1.5545                 1.4003                 1.4445
 IR Inten    --     11.9353                 5.6621                 6.9555

                     43                     44                     45
                      A                      A                      A
 Frequencies --   1524.3315              1528.2932              1540.4664
 Red. masses --      1.0552                 1.0449                 1.0557
 Frc consts  --      1.4446                 1.4379                 1.4761
 IR Inten    --     12.3895                 7.2955                 2.3097

                     46                     47                     48
                      A                      A                      A
 Frequencies --   1717.5908              1723.9773              1757.2612
 Red. masses --      5.6631                 7.1719                 7.8335
 Frc consts  --      9.8433                12.5588                14.2520
 IR Inten    --     69.4469                 9.2142               286.7767

                     49                     50                     51
                      A                      A                      A
 Frequencies --   3026.7744              3044.9686              3058.8574
 Red. masses --      1.0720                 1.0427                 1.0373
 Frc consts  --      5.7863                 5.6958                 5.7186
 IR Inten    --     17.0240                17.2220                29.1606

                     52                     53                     54
                      A                      A                      A
 Frequencies --   3109.8546              3118.8834              3130.1587
 Red. masses --      1.0914                 1.0990                 1.0883
 Frc consts  --      6.2186                 6.2984                 6.2823
 IR Inten    --     16.7240                15.5666                 5.1999

                     55                     56                     57
                      A                      A                      A
 Frequencies --   3145.2596              3145.5934              3150.5518
 Red. masses --      1.0959                 1.1025                 1.0982
 Frc consts  --      6.3873                 6.4272                 6.4222
 IR Inten    --     14.3494                14.4897                30.1624

                     58                     59                     60
                      A                      A                      A
 Frequencies --   3166.1180              3253.3003              3585.9929
 Red. masses --      1.0614                 1.1150                 1.0760
 Frc consts  --      6.2685                 6.9533                 8.1522
 IR Inten    --      6.7728                 5.1177                37.1448

 - Thermochemistry -
 -------------------
 Temperature   298.150 Kelvin.  Pressure   1.00000 Atm.
 Atom     1 has atomic number  6 and mass  12.00000

 Molecular mass:   140.09496 amu.
 Principal axes and moments of inertia in atomic units:
                           1         2         3
     Eigenvalues --  1095.799041575.449922058.61790
           X            0.99988  -0.00337   0.01499
           Y            0.00350   0.99996  -0.00812
           Z           -0.01496   0.00817   0.99985
 This molecule is an asymmetric top.
 Rotational symmetry number  1.
 Warning -- assumption of classical behavior for rotation
           may cause significant error
 Rotational temperatures (Kelvin)      0.07904     0.05498     0.04207
 Rotational constants (GHZ):           1.64696     1.14554     0.87668
 Zero-point vibrational energy     489895.6 (Joules/Mol)
                                  117.08786 (Kcal/Mol)
 Warning -- explicit consideration of  15 degrees of freedom as
           vibrations may cause significant error
 Vibrational temperatures:     92.27   104.30   151.30   174.54   232.14
          (Kelvin)            258.80   308.88   348.50   402.55   442.01
                              472.41   536.06   702.28   777.12   811.57
                              900.99   956.97  1045.16  1088.13  1134.30
                             1167.98  1300.06  1335.28  1374.93  1388.90
                             1482.12  1494.51  1532.04  1566.26  1597.69
                             1699.25  1784.91  1862.50  1940.28  1997.39
                             2033.92  2061.66  2069.21  2090.84  2117.10
                             2161.63  2172.76  2193.17  2198.87  2216.39
                             2471.23  2480.42  2528.31  4354.85  4381.03
                             4401.01  4474.39  4487.38  4503.60  4525.33
                             4525.81  4532.94  4555.34  4680.77  5159.44

 Zero-point correction=                           0.186591 (Hartree/Particle)
 Thermal correction to Energy=                    0.197956
 Thermal correction to Enthalpy=                  0.198900
 Thermal correction to Gibbs Free Energy=         0.149618
 Sum of electronic and zero-point Energies=           -458.489431
 Sum of electronic and thermal Energies=              -458.478066
 Sum of electronic and thermal Enthalpies=            -458.477122
 Sum of electronic and thermal Free Energies=         -458.526404

                     E (Thermal)             CV                S
                      KCal/Mol        Cal/Mol-Kelvin    Cal/Mol-Kelvin
 Total                  124.219             40.922            103.722
 Electronic               0.000              0.000              0.000
 Translational            0.889              2.981             40.723
 Rotational               0.889              2.981             29.654
 Vibrational            122.442             34.960             33.346
 Vibration     1          0.597              1.971              4.326
 Vibration     2          0.599              1.967              4.084
 Vibration     3          0.605              1.945              3.356
 Vibration     4          0.609              1.931              3.079
 Vibration     5          0.622              1.890              2.534
 Vibration     6          0.629              1.867              2.330
 Vibration     7          0.645              1.819              2.003
 Vibration     8          0.658              1.776              1.786
 Vibration     9          0.680              1.711              1.535
 Vibration    10          0.697              1.660              1.377
 Vibration    11          0.712              1.619              1.268
 Vibration    12          0.744              1.528              1.069
 Vibration    13          0.844              1.276              0.689
 Vibration    14          0.895              1.161              0.565
 Vibration    15          0.920              1.109              0.516

                           ! Non-Optimized Parameters !
 Normal termination of Gaussian 16 at Tue Dec  8 10:42:33 2020.

 ----------------------------------------------------------------------
 # B3LYP/6-311++G(d,p) empiricaldispersion=gd3bj scf=xqc pop=npa geom=c
 heck
 ----------------------------------------------------------------------

 --------------------------------------
 CID_147161326_JID_445_Energie_neutraal
 --------------------------------------
 Structure from the checkpoint file:  "JID_445.chk"
 Charge =  0 Multiplicity = 1

 SCF Done:  E(RB3LYP) =  -458.812116545     A.U. after   15 cycles
 Normal termination of Gaussian 16 at Tue Dec  8 10:45:31 2020.

 ----------------------------------------------------------------------
 # B3LYP/6-311++G(d,p) empiricaldispersion=gd3bj scf=xqc pop=npa geom=c
 heck
 ----------------------------------------------------------------------

 ------------------------------------
 CID_147161326_JID_445_Energie_kation
 ------------------------------------
 Structure from the checkpoint file:  "JID_445.chk"
 Charge =  1 Multiplicity = 2

 SCF Done:  E(UB3LYP) =  -458.493974843     A.U. after   26 cycles
 Normal termination of Gaussian 16 at Tue Dec  8 10:51:40 2020.
 Gaussian 16:  ES64L-G16RevA.03 25-Dec-2016

 ----------------------------------------------------------------------
 # B3LYP/6-311++G(d,p) empiricaldispersion=gd3bj scf=xqc pop=npa geom=c
 heck
 ----------------------------------------------------------------------

 -----------------------------------
 CID_147161326_JID_445_Energie_anion
 -----------------------------------
 Structure from the checkpoint file:  "JID_445.chk"
 Charge = -1 Multiplicity = 2

                         Standard orientation:
 ---------------------------------------------------------------------
 Center     Atomic      Atomic             Coordinates (Angstroms)
 Number     Number       Type             X           Y           Z
 ---------------------------------------------------------------------
      1          6           0       -2.370111    1.377647   -0.347578
      2          6           0       -1.889348    0.002957   -0.837032
      3          6           0       -1.730273   -0.983983    0.284570
      4          7           0       -0.745834   -1.733040    0.614107
      5          7           0        0.426702   -1.618091   -0.163029
      6          6           0        1.335028   -0.576646   -0.230749
      7          8           0        2.395567   -0.743592   -0.823467
      8          6           0        1.035007    0.738632    0.431269
      9          6           0        0.619701    0.792548    1.700672
     10          6           0        1.412101    1.948113   -0.379830
     11          1           0       -2.538917    2.048076   -1.196156
     12          1           0       -1.630693    1.835909    0.314156
     13          1           0       -3.312983    1.291689    0.204680
     14          1           0       -2.649299   -0.415260   -1.514233
     15          1           0       -0.966657    0.091265   -1.413216
     16          1           0       -2.605561   -1.120488    0.924329
     17          1           0        0.867410   -2.519786   -0.305631
     18          1           0        0.527830    1.744178    2.218516
     19          1           0        0.373069   -0.100062    2.265808
     20          1           0        2.441955    1.849896   -0.736284
     21          1           0        0.774075    2.040956   -1.268673
     22          1           0        1.316533    2.864667    0.208956
 ---------------------------------------------------------------------

 SCF Done:  E(UB3LYP) =  -458.804769580     A.U. after   32 cycles

 The electronic state is 2-A.
 Alpha  occ. eigenvalues --  -18.95538 -14.22963 -14.20790 -10.13504 -10.08012
 Alpha  occ. eigenvalues --  -10.05573 -10.05278 -10.04724 -10.03736 -10.03496
 Alpha  occ. eigenvalues --   -0.91342  -0.85563  -0.71362  -0.67700  -0.64526
 Alpha  occ. eigenvalues --   -0.56937  -0.53306  -0.50215  -0.47122  -0.41548
 Alpha  occ. eigenvalues --   -0.37153  -0.35589  -0.33942  -0.32484  -0.30807
 Alpha  occ. eigenvalues --   -0.30304  -0.29202  -0.27701  -0.26265  -0.25649
 Alpha  occ. eigenvalues --   -0.24813  -0.24259  -0.23065  -0.20628  -0.18221
 Alpha  occ. eigenvalues --   -0.14189  -0.12568  -0.10373   0.05222
 Alpha virt. eigenvalues --    0.07923   0.09214   0.09576   0.10117   0.10658
 Alpha virt. eigenvalues --    0.11395   0.11602   0.12428   0.13124   0.13893
 Alpha virt. eigenvalues --    0.14893   0.15745   0.16050   0.16525   0.17197

  Beta  occ. eigenvalues --  -18.95376 -14.23009 -14.20631 -10.13347 -10.07860
  Beta  occ. eigenvalues --  -10.05582 -10.05172 -10.04725 -10.03658 -10.03378
  Beta  occ. eigenvalues --   -0.91062  -0.85330  -0.71162  -0.67442  -0.64416
  Beta  occ. eigenvalues --   -0.56800  -0.53011  -0.49930  -0.46909  -0.41339
  Beta  occ. eigenvalues --   -0.37010  -0.35424  -0.33780  -0.32281  -0.30487
  Beta  occ. eigenvalues --   -0.30179  -0.29074  -0.27533  -0.25879  -0.25554
  Beta  occ. eigenvalues --   -0.24625  -0.24121  -0.22983  -0.20069  -0.17740
  Beta  occ. eigenvalues --   -0.13537  -0.12171  -0.10102
  Beta virt. eigenvalues --    0.08386   0.09263   0.09397   0.10192   0.10659
  Beta virt. eigenvalues --    0.11458   0.11777   0.12016   0.12666   0.13366
  Beta virt. eigenvalues --    0.14184   0.15078   0.15945   0.16220   0.16765

 Mulliken charges and spin densities:
               1          2
     1  C    1.538524  -2.196839
     2  C   -0.774400   0.760050
     3  C    0.299293  -0.407284
     4  N   -0.132219   0.066062
     5  N   -0.163544  -0.038619
     6  C   -0.401673   0.160934
     7  O   -0.362782   0.061278
     8  C    0.571592   0.289514
     9  C   -0.405095  -0.240819
    10  C   -0.412563  -0.124322
    11  H   -0.730201   0.877800
    12  H   -0.255883   0.433990
    13  H   -0.411202   0.528857
    14  H   -0.236653   0.414465
    15  H    0.135264   0.025545
    16  H   -0.091399   0.265980
    17  H    0.289666   0.011419
    18  H   -0.040641   0.132622
    19  H    0.205598  -0.071376
    20  H    0.169399  -0.004933
    21  H    0.119594   0.016580
    22  H    0.089324   0.039096
 Sum of Mulliken charges =  -1.00000   1.00000

 Dipole moment (field-independent basis, Debye):
    X=              3.2978    Y=             -2.2510    Z=              1.0336  Tot=              4.1244
 Quadrupole moment (field-independent basis, Debye-Ang):
   XX=           -111.6878   YY=            -87.2252   ZZ=            -85.1045
   XY=             13.6058   XZ=              0.0157   YZ=              3.3197

 Summary of Natural Population Analysis:

                                       Natural Population
                Natural  -----------------------------------------------
    Atom  No    Charge         Core      Valence    Rydberg      Total
 -----------------------------------------------------------------------
      C    1   -0.28124      0.99966     2.27558    0.00600     3.28124
      C    2   -0.23037      0.99962     2.22140    0.00936     3.23037
      C    3    0.09706      0.99963     1.88567    0.01764     2.90294
      N    4   -0.14329      0.99967     2.62986    0.01376     3.64329
      N    5   -0.25000      0.99965     2.73770    0.01266     3.75000
      C    6    0.34220      0.99959     1.63414    0.02408     2.65780
      O    7   -0.31380      0.99988     3.30844    0.00548     4.31380
      C    8   -0.03874      0.99949     2.02898    0.01027     3.03874
      C    9   -0.15987      0.99952     2.15280    0.00755     3.15987
      C   10   -0.29657      0.99963     2.29081    0.00614     3.29657
      H   11    0.10091      0.00000     0.39523    0.00385     0.39909
      H   12    0.10416      0.00000     0.39388    0.00196     0.39584
      H   13    0.09579      0.00000     0.40230    0.00191     0.40421
      H   14    0.10427      0.00000     0.39435    0.00138     0.39573
      H   15    0.10360      0.00000     0.39405    0.00235     0.39640
      H   16    0.08228      0.00000     0.41630    0.00142     0.41772
      H   17    0.18975      0.00000     0.30860    0.00164     0.31025
      H   18    0.08773      0.00000     0.41132    0.00095     0.41227
      H   19    0.09869      0.00000     0.40025    0.00106     0.40131
      H   20    0.10923      0.00000     0.38972    0.00105     0.39077
      H   21    0.10221      0.00000     0.39679    0.00100     0.39779
      H   22    0.09599      0.00000     0.40327    0.00074     0.40401
 =======================================================================
   * Total *    0.00000      9.99633    27.87142    0.13225    38.00000

 Normal termination of Gaussian 16 at Tue Dec  8 10:57:26 2020.
