 Gaussian 16, Revision A.03,

 -----------------------------------------------------------
 # opt freq B3LYP/6-31G(d) empiricaldispersion=gd3bj scf=xqc
 -----------------------------------------------------------

 -----------------------------
 CID_83479193_JID_540_neutraal
 -----------------------------
 Symbolic Z-matrix:
 Charge =  0 Multiplicity = 1

 SCF Done:  E(RB3LYP) =  -445.091127711     A.U. after   13 cycles
 SCF Done:  E(RB3LYP) =  -445.093053474     A.U. after   10 cycles
 SCF Done:  E(RB3LYP) =  -445.093186202     A.U. after   10 cycles
 SCF Done:  E(RB3LYP) =  -445.093228174     A.U. after    9 cycles
 SCF Done:  E(RB3LYP) =  -445.093242978     A.U. after    9 cycles
 SCF Done:  E(RB3LYP) =  -445.093254988     A.U. after   10 cycles
 SCF Done:  E(RB3LYP) =  -445.093256882     A.U. after    8 cycles
 SCF Done:  E(RB3LYP) =  -445.093257278     A.U. after    7 cycles
 SCF Done:  E(RB3LYP) =  -445.093257381     A.U. after    7 cycles
 SCF Done:  E(RB3LYP) =  -445.093257438     A.U. after    7 cycles
 SCF Done:  E(RB3LYP) =  -445.093257450     A.U. after    6 cycles
 Optimization completed.
    -- Stationary point found.
 Normal termination of Gaussian 16 at Tue Dec  8 12:11:21 2020.

 --------------------------------------------------------------------
 #N Geom=AllCheck Guess=TCheck SCRF=Check GenChk RB3LYP/6-31G(d) Freq
 --------------------------------------------------------------------

 Structure from the checkpoint file:  "JID_540.chk"
 -----------------------------
 CID_83479193_JID_540_neutraal
 -----------------------------
 Charge =  0 Multiplicity = 1

 SCF Done:  E(RB3LYP) =  -445.093257450     A.U. after    1 cycles

  Exact polarizability: 103.932   2.503  89.276  -0.576   2.198  81.262
 Approx polarizability: 130.103   2.580 121.867  -0.172   3.000 123.308

                      1                      2                      3
                      A                      A                      A
 Frequencies --     27.5650                88.0234               154.6861
 Red. masses --      3.2069                 3.2617                 2.6187
 Frc consts  --      0.0014                 0.0149                 0.0369
 IR Inten    --      1.4739                 3.0741                 8.1379

                      4                      5                      6
                      A                      A                      A
 Frequencies --    181.2789               200.1926               222.4556
 Red. masses --      2.6141                 2.0445                 1.1958
 Frc consts  --      0.0506                 0.0483                 0.0349
 IR Inten    --      4.0044                 6.7281                 0.6781

                      7                      8                      9
                      A                      A                      A
 Frequencies --    257.6151               271.7738               326.7733
 Red. masses --      1.3598                 1.8558                 2.1308
 Frc consts  --      0.0532                 0.0808                 0.1341
 IR Inten    --     34.2004                12.6792                 8.6806

                     10                     11                     12
                      A                      A                      A
 Frequencies --    375.8794               401.1421               436.2720
 Red. masses --      1.8882                 2.5159                 2.9746
 Frc consts  --      0.1572                 0.2385                 0.3336
 IR Inten    --      4.7848                 6.2571                 2.9278

                     13                     14                     15
                      A                      A                      A
 Frequencies --    497.3589               534.4822               541.7758
 Red. masses --      2.6808                 2.9538                 2.8037
 Frc consts  --      0.3907                 0.4972                 0.4849
 IR Inten    --      0.7145                11.4471                 3.0570

                     16                     17                     18
                      A                      A                      A
 Frequencies --    675.4163               736.8930               829.9896
 Red. masses --      1.9167                 2.2891                 2.1714
 Frc consts  --      0.5152                 0.7324                 0.8813
 IR Inten    --      0.6232                 0.5138                17.4658

                     19                     20                     21
                      A                      A                      A
 Frequencies --    859.0526               876.7191               878.7315
 Red. masses --      2.1545                 1.9842                 1.6565
 Frc consts  --      0.9368                 0.8986                 0.7536
 IR Inten    --     20.6221                 1.0130                57.0299

                     22                     23                     24
                      A                      A                      A
 Frequencies --    884.8221               919.9958               957.6148
 Red. masses --      1.5580                 1.8997                 1.8561
 Frc consts  --      0.7187                 0.9473                 1.0029
 IR Inten    --     35.4390                10.9588                 2.7012

                     25                     26                     27
                      A                      A                      A
 Frequencies --    981.0657              1013.7581              1031.6179
 Red. masses --      1.7019                 2.1268                 1.6756
 Frc consts  --      0.9651                 1.2878                 1.0506
 IR Inten    --      5.6062                 5.3949                16.4145

                     28                     29                     30
                      A                      A                      A
 Frequencies --   1067.3771              1086.8636              1091.3883
 Red. masses --      1.8054                 1.9104                 2.8860
 Frc consts  --      1.2119                 1.3296                 2.0254
 IR Inten    --     16.7664                19.6966                61.5563

                     31                     32                     33
                      A                      A                      A
 Frequencies --   1110.6950              1128.3690              1165.7097
 Red. masses --      2.0762                 1.6393                 1.7162
 Frc consts  --      1.5091                 1.2297                 1.3740
 IR Inten    --      5.7615                 9.0875                10.9470

                     34                     35                     36
                      A                      A                      A
 Frequencies --   1176.0087              1203.5150              1238.1799
 Red. masses --      2.2123                 1.7196                 1.2748
 Frc consts  --      1.8027                 1.4675                 1.1515
 IR Inten    --     23.6942                12.0954                 1.4908

                     37                     38                     39
                      A                      A                      A
 Frequencies --   1244.4842              1264.1420              1322.5629
 Red. masses --      1.6297                 1.3470                 1.1554
 Frc consts  --      1.4871                 1.2683                 1.1907
 IR Inten    --     27.0152                 2.6350                 2.3755

                     40                     41                     42
                      A                      A                      A
 Frequencies --   1329.9767              1357.1525              1371.2556
 Red. masses --      1.3030                 1.2939                 1.3215
 Frc consts  --      1.3579                 1.4041                 1.4641
 IR Inten    --      4.8550                 3.0223                 3.5525

                     43                     44                     45
                      A                      A                      A
 Frequencies --   1380.2968              1396.5604              1405.8977
 Red. masses --      1.2237                 1.3461                 1.5097
 Frc consts  --      1.3736                 1.5469                 1.7581
 IR Inten    --      3.7033                 3.5887                 4.1863

                     46                     47                     48
                      A                      A                      A
 Frequencies --   1406.9886              1424.6123              1432.7400
 Red. masses --      1.2895                 1.4543                 1.2952
 Frc consts  --      1.5041                 1.7390                 1.5665
 IR Inten    --      4.4305                 0.2373                15.8514

                     49                     50                     51
                      A                      A                      A
 Frequencies --   1437.9102              1446.2263              1504.7752
 Red. masses --      1.3285                 1.4117                 1.0892
 Frc consts  --      1.6183                 1.7397                 1.4531
 IR Inten    --      4.8168                17.0498                 4.1780

                     52                     53                     54
                      A                      A                      A
 Frequencies --   1514.2854              1518.0339              1520.3077
 Red. masses --      1.0784                 1.0671                 1.0776
 Frc consts  --      1.4570                 1.4489                 1.4675
 IR Inten    --      1.0637                 3.1419                 1.4183

                     55                     56                     57
                      A                      A                      A
 Frequencies --   1538.8383              1542.4037              1544.7946
 Red. masses --      1.0686                 1.0860                 1.0816
 Frc consts  --      1.4910                 1.5222                 1.5208
 IR Inten    --      6.1190                 2.6441                 3.0565

                     58                     59                     60
                      A                      A                      A
 Frequencies --   1701.1165              2961.8173              2998.2209
 Red. masses --      1.0878                 1.0738                 1.0712
 Frc consts  --      1.8547                 5.5502                 5.6732
 IR Inten    --     35.4894                71.3146                56.1677

                     61                     62                     63
                      A                      A                      A
 Frequencies --   3032.2222              3044.0123              3048.0273
 Red. masses --      1.0748                 1.0676                 1.0614
 Frc consts  --      5.8223                 5.8282                 5.8101
 IR Inten    --      8.1397                37.1027                 0.3344

                     64                     65                     66
                      A                      A                      A
 Frequencies --   3051.3023              3058.1022              3069.6149
 Red. masses --      1.0631                 1.0417                 1.0836
 Frc consts  --      5.8318                 5.7400                 6.0155
 IR Inten    --     43.9185                31.2612                33.8314

                     67                     68                     69
                      A                      A                      A
 Frequencies --   3075.7463              3077.6628              3091.4050
 Red. masses --      1.0888                 1.0975                 1.1018
 Frc consts  --      6.0689                 6.1250                 6.2042
 IR Inten    --     32.0950                42.5695                71.0599

                     70                     71                     72
                      A                      A                      A
 Frequencies --   3099.0176              3103.8059              3122.9042
 Red. masses --      1.1003                 1.0968                 1.1005
 Frc consts  --      6.2259                 6.2253                 6.3233
 IR Inten    --     12.8085                70.7307                34.2107

                     73                     74                     75
                      A                      A                      A
 Frequencies --   3136.1164              3469.4536              3550.3499
 Red. masses --      1.1022                 1.0500                 1.0918
 Frc consts  --      6.3868                 7.4469                 8.1087
 IR Inten    --     34.1614                 2.3888                 1.3611

 - Thermochemistry -
 -------------------
 Temperature   298.150 Kelvin.  Pressure   1.00000 Atm.
 Atom     1 has atomic number  6 and mass  12.00000

 Molecular mass:   143.13101 amu.
 Principal axes and moments of inertia in atomic units:
                           1         2         3
     Eigenvalues --   889.747862039.605442314.13101
           X            0.99982   0.00897  -0.01669
           Y           -0.00823   0.99899   0.04418
           Z            0.01707  -0.04403   0.99888
 This molecule is an asymmetric top.
 Rotational symmetry number  1.
 Warning -- assumption of classical behavior for rotation
           may cause significant error
 Rotational temperatures (Kelvin)      0.09735     0.04247     0.03743
 Rotational constants (GHZ):           2.02837     0.88485     0.77988
 Zero-point vibrational energy     658102.8 (Joules/Mol)
                                  157.29035 (Kcal/Mol)
 Warning -- explicit consideration of  15 degrees of freedom as
           vibrations may cause significant error
 Vibrational temperatures:     39.66   126.65   222.56   260.82   288.03
          (Kelvin)            320.06   370.65   391.02   470.15   540.81
                              577.15   627.70   715.59   769.00   779.49
                              971.77  1060.22  1194.17  1235.99  1261.40
                             1264.30  1273.06  1323.67  1377.79  1411.53
                             1458.57  1484.27  1535.72  1563.75  1570.26
                             1598.04  1623.47  1677.20  1692.01  1731.59
                             1781.46  1790.54  1818.82  1902.87  1913.54
                             1952.64  1972.93  1985.94  2009.34  2022.77
                             2024.34  2049.70  2061.39  2068.83  2080.80
                             2165.04  2178.72  2184.11  2187.38  2214.05
                             2219.17  2222.61  2447.53  4261.39  4313.77
                             4362.69  4379.65  4385.43  4390.14  4399.93
                             4416.49  4425.31  4428.07  4447.84  4458.80
                             4465.68  4493.16  4512.17  4991.77  5108.16

 Zero-point correction=                           0.250658 (Hartree/Particle)
 Thermal correction to Energy=                    0.261381
 Thermal correction to Enthalpy=                  0.262325
 Thermal correction to Gibbs Free Energy=         0.214207
 Sum of electronic and zero-point Energies=           -444.842599
 Sum of electronic and thermal Energies=              -444.831877
 Sum of electronic and thermal Enthalpies=            -444.830932
 Sum of electronic and thermal Free Energies=         -444.879051

                     E (Thermal)             CV                S
                      KCal/Mol        Cal/Mol-Kelvin    Cal/Mol-Kelvin
 Total                  164.019             41.186            101.273
 Electronic               0.000              0.000              0.000
 Translational            0.889              2.981             40.787
 Rotational               0.889              2.981             29.819
 Vibrational            162.242             35.225             30.667
 Vibration     1          0.593              1.984              5.997
 Vibration     2          0.601              1.958              3.704
 Vibration     3          0.620              1.897              2.614
 Vibration     4          0.630              1.865              2.315
 Vibration     5          0.638              1.840              2.131
 Vibration     6          0.648              1.807              1.939
 Vibration     7          0.667              1.750              1.678
 Vibration     8          0.675              1.725              1.585
 Vibration     9          0.710              1.622              1.276
 Vibration    10          0.747              1.522              1.056
 Vibration    11          0.767              1.468              0.958
 Vibration    12          0.797              1.391              0.838
 Vibration    13          0.853              1.256              0.665
 Vibration    14          0.889              1.174              0.577
 Vibration    15          0.897              1.158              0.561

 Optimization completed.
    -- Stationary point found.
 Normal termination of Gaussian 16 at Tue Dec  8 12:18:53 2020.

 ----------------------------------------------------------------------
 # B3LYP/6-311++G(d,p) empiricaldispersion=gd3bj scf=xqc pop=npa geom=c
 heck
 ----------------------------------------------------------------------

 -------------------------------------
 CID_83479193_JID_540_Energie_neutraal
 -------------------------------------
 Structure from the checkpoint file:  "JID_540.chk"
 Charge =  0 Multiplicity = 1

 SCF Done:  E(RB3LYP) =  -445.228578690     A.U. after   13 cycles
 Normal termination of Gaussian 16 at Tue Dec  8 12:22:45 2020.

 ----------------------------------------------------------------------
 # B3LYP/6-311++G(d,p) empiricaldispersion=gd3bj scf=xqc pop=npa geom=c
 heck
 ----------------------------------------------------------------------

 -----------------------------------
 CID_83479193_JID_540_Energie_kation
 -----------------------------------
 Structure from the checkpoint file:  "JID_540.chk"
 Charge =  1 Multiplicity = 2

 SCF Done:  E(UB3LYP) =  -444.913483642     A.U. after   19 cycles
 Normal termination of Gaussian 16 at Tue Dec  8 12:29:02 2020.
 Gaussian 16:  ES64L-G16RevA.03 25-Dec-2016

 ----------------------------------------------------------------------
 # B3LYP/6-311++G(d,p) empiricaldispersion=gd3bj scf=xqc pop=npa geom=c
 heck
 ----------------------------------------------------------------------

 ----------------------------------
 CID_83479193_JID_540_Energie_anion
 ----------------------------------
 Structure from the checkpoint file:  "JID_540.chk"
 Charge = -1 Multiplicity = 2

                         Standard orientation:
 ---------------------------------------------------------------------
 Center     Atomic      Atomic             Coordinates (Angstroms)
 Number     Number       Type             X           Y           Z
 ---------------------------------------------------------------------
      1          6           0       -0.958000    2.135932    0.602189
      2          6           0       -0.360998    1.016276   -0.256472
      3          6           0        0.286973   -0.117421    0.568966
      4          6           0       -0.811440   -0.979513    1.225521
      5          6           0       -1.840052   -1.454758    0.191157
      6          6           0       -2.365352   -0.262196   -0.606525
      7          8           0       -1.308807    0.489416   -1.194711
      8          6           0        1.234940   -0.977079   -0.288926
      9          6           0        2.513743   -0.270631   -0.749252
     10          7           0        3.324586    0.170217    0.394491
     11          1           0       -0.162806    2.643998    1.159686
     12          1           0       -1.687492    1.769892    1.330834
     13          1           0       -1.454999    2.871476   -0.038204
     14          1           0        0.399636    1.469445   -0.901346
     15          1           0        0.875715    0.339474    1.375838
     16          1           0       -1.326132   -0.394872    1.999412
     17          1           0       -0.352406   -1.834126    1.736581
     18          1           0       -2.675946   -1.968449    0.682720
     19          1           0       -1.380504   -2.173019   -0.497971
     20          1           0       -2.984103    0.379392    0.041353
     21          1           0       -2.991792   -0.585564   -1.443436
     22          1           0        1.529963   -1.858856    0.293036
     23          1           0        0.697734   -1.330133   -1.176846
     24          1           0        3.114466   -0.989944   -1.318074
     25          1           0        2.262117    0.542125   -1.453598
     26          1           0        4.237761    0.478005    0.064613
     27          1           0        2.898259    0.990649    0.821694
 ---------------------------------------------------------------------

 SCF Done:  E(UB3LYP) =  -445.213040049     A.U. after   28 cycles

 The electronic state is 2-A.
 Alpha  occ. eigenvalues --  -19.01225 -14.18121 -10.10988 -10.10668 -10.08232
 Alpha  occ. eigenvalues --  -10.06405 -10.06164 -10.06128 -10.05395 -10.05097
 Alpha  occ. eigenvalues --   -0.92524  -0.77285  -0.70514  -0.67476  -0.62840
 Alpha  occ. eigenvalues --   -0.58596  -0.53398  -0.51593  -0.48472  -0.42271
 Alpha  occ. eigenvalues --   -0.40018  -0.38314  -0.37169  -0.35061  -0.34271
 Alpha  occ. eigenvalues --   -0.33021  -0.32126  -0.30779  -0.28834  -0.27851
 Alpha  occ. eigenvalues --   -0.27241  -0.26373  -0.25701  -0.24859  -0.23076
 Alpha  occ. eigenvalues --   -0.21236  -0.21021  -0.18352  -0.14817  -0.13466
 Alpha  occ. eigenvalues --    0.04698
 Alpha virt. eigenvalues --    0.06618   0.07546   0.08490   0.09406   0.09444
 Alpha virt. eigenvalues --    0.10229   0.10896   0.10981   0.12005   0.12415
 Alpha virt. eigenvalues --    0.13418   0.13650   0.14165   0.15231   0.15931

  Beta  occ. eigenvalues --  -19.01224 -14.18068 -10.10977 -10.10647 -10.08212
  Beta  occ. eigenvalues --  -10.06395 -10.06146 -10.06113 -10.05390 -10.05059
  Beta  occ. eigenvalues --   -0.92515  -0.77202  -0.70481  -0.67441  -0.62790
  Beta  occ. eigenvalues --   -0.58535  -0.53344  -0.51540  -0.48412  -0.42217
  Beta  occ. eigenvalues --   -0.39972  -0.38267  -0.37125  -0.35021  -0.34219
  Beta  occ. eigenvalues --   -0.32972  -0.32089  -0.30731  -0.28785  -0.27818
  Beta  occ. eigenvalues --   -0.27207  -0.26342  -0.25667  -0.24822  -0.23045
  Beta  occ. eigenvalues --   -0.21206  -0.20994  -0.18329  -0.14799  -0.13415
  Beta virt. eigenvalues --    0.07071   0.07896   0.08182   0.08866   0.09968
  Beta virt. eigenvalues --    0.10148   0.10703   0.11186   0.11308   0.12690
  Beta virt. eigenvalues --    0.12876   0.13738   0.13965   0.14541   0.15429

 Mulliken charges and spin densities:
               1          2
     1  C    1.328952  -1.836528
     2  C   -1.924862   1.451952
     3  C    0.659090  -0.180064
     4  C    0.817047  -1.244441
     5  C   -0.736933   0.475426
     6  C    0.859771  -1.202773
     7  O   -0.095684   0.011254
     8  C   -1.077104   0.817923
     9  C    1.595230  -2.160927
    10  N   -0.449911   0.098483
    11  H   -0.446604   0.598689
    12  H   -0.127723   0.267359
    13  H   -0.125210   0.286046
    14  H   -0.034287   0.250631
    15  H    0.218475  -0.018825
    16  H   -0.378269   0.540133
    17  H    0.154795  -0.015368
    18  H   -0.511664   0.667252
    19  H   -0.023049   0.174594
    20  H   -0.033981   0.172252
    21  H   -0.157145   0.325575
    22  H   -0.067513   0.207508
    23  H    0.281605  -0.148736
    24  H   -0.191222   0.341173
    25  H   -0.154233   0.274356
    26  H   -0.252982   0.495053
    27  H   -0.126590   0.352001
 Sum of Mulliken charges =  -1.00000   1.00000

 Dipole moment (field-independent basis, Debye):
    X=             -2.1122    Y=             -2.6867    Z=             -1.9164  Tot=              3.9182
 Quadrupole moment (field-independent basis, Debye-Ang):
   XX=           -133.7074   YY=           -102.6961   ZZ=            -96.7884
   XY=             -7.8109   XZ=              0.5039   YZ=             -0.4388

 Summary of Natural Population Analysis:

                                       Natural Population
                Natural  -----------------------------------------------
    Atom  No    Charge         Core      Valence    Rydberg      Total
 -----------------------------------------------------------------------
      C    1   -0.29915      0.99964     2.29388    0.00564     3.29915
      C    2    0.06550      0.99952     1.91854    0.01644     2.93450
      C    3   -0.12404      0.99956     2.11243    0.01204     3.12404
      C    4   -0.18866      0.99961     2.17903    0.01002     3.18866
      C    5   -0.20485      0.99963     2.19693    0.00829     3.20485
      C    6   -0.00979      0.99957     1.99693    0.01329     3.00979
      O    7   -0.30826      0.99989     3.29915    0.00922     4.30826
      C    8   -0.19232      0.99960     2.18399    0.00873     3.19232
      C    9   -0.08747      0.99963     2.07600    0.01183     3.08747
      N   10   -0.42528      0.99977     2.91446    0.01105     3.92528
      H   11    0.10512      0.00000     0.39314    0.00174     0.39488
      H   12    0.09754      0.00000     0.40109    0.00137     0.40246
      H   13    0.10191      0.00000     0.39710    0.00100     0.39809
      H   14    0.09224      0.00000     0.40562    0.00214     0.40776
      H   15    0.10262      0.00000     0.39532    0.00206     0.39738
      H   16    0.09800      0.00000     0.40069    0.00131     0.40200
      H   17    0.09918      0.00000     0.39969    0.00113     0.40082
      H   18    0.10120      0.00000     0.39715    0.00165     0.39880
      H   19    0.09442      0.00000     0.40440    0.00118     0.40558
      H   20    0.07788      0.00000     0.42058    0.00154     0.42212
      H   21    0.08900      0.00000     0.40989    0.00111     0.41100
      H   22    0.09709      0.00000     0.40153    0.00138     0.40291
      H   23    0.09957      0.00000     0.39878    0.00165     0.40043
      H   24    0.08874      0.00000     0.41022    0.00105     0.41126
      H   25    0.07782      0.00000     0.42026    0.00192     0.42218
      H   26    0.17737      0.00000     0.31898    0.00365     0.32263
      H   27    0.17464      0.00000     0.32200    0.00336     0.32536
 =======================================================================
   * Total *   -0.00000      9.99643    29.86778    0.13580    40.00000

 Normal termination of Gaussian 16 at Tue Dec  8 12:40:03 2020.
