 Gaussian 16, Revision A.03,

 -----------------------------------------------------------
 # opt freq B3LYP/6-31G(d) empiricaldispersion=gd3bj scf=xqc
 -----------------------------------------------------------

 -------------------------------
 CID_108138702_JID_7424_neutraal
 -------------------------------
 Symbolic Z-matrix:
 Charge =  0 Multiplicity = 1

 SCF Done:  E(RB3LYP) =  -1262.13809394     A.U. after   16 cycles
 SCF Done:  E(RB3LYP) =  -1262.14764040     A.U. after   15 cycles
 SCF Done:  E(RB3LYP) =  -1262.14647891     A.U. after   16 cycles
 SCF Done:  E(RB3LYP) =  -1262.15215313     A.U. after   15 cycles
 SCF Done:  E(RB3LYP) =  -1262.15567833     A.U. after   16 cycles
 SCF Done:  E(RB3LYP) =  -1262.15900511     A.U. after   14 cycles
 SCF Done:  E(RB3LYP) =  -1262.16005806     A.U. after   14 cycles
 SCF Done:  E(RB3LYP) =  -1262.16019150     A.U. after   13 cycles
 SCF Done:  E(RB3LYP) =  -1262.16045739     A.U. after   13 cycles
 SCF Done:  E(RB3LYP) =  -1262.16055637     A.U. after   12 cycles
 SCF Done:  E(RB3LYP) =  -1262.16075347     A.U. after    9 cycles
 SCF Done:  E(RB3LYP) =  -1262.16075434     A.U. after    9 cycles
 SCF Done:  E(RB3LYP) =  -1262.16075452     A.U. after    8 cycles
 SCF Done:  E(RB3LYP) =  -1262.16075459     A.U. after    8 cycles
 SCF Done:  E(RB3LYP) =  -1262.16075462     A.U. after    7 cycles
 Optimization completed.
    -- Stationary point found.
 Normal termination of Gaussian 16 at Sun Dec 13 12:36:29 2020.

 --------------------------------------------------------------------
 #N Geom=AllCheck Guess=TCheck SCRF=Check GenChk RB3LYP/6-31G(d) Freq
 --------------------------------------------------------------------

 Structure from the checkpoint file:  "JID_7424.chk"
 -------------------------------
 CID_108138702_JID_7424_neutraal
 -------------------------------
 Charge =  0 Multiplicity = 1

 SCF Done:  E(RB3LYP) =  -1262.16075462     A.U. after    1 cycles

  Exact polarizability: 142.551  12.881 166.710  24.693  -2.991  97.813
 Approx polarizability: 205.326  25.097 278.793  62.417   2.288 191.980

                      1                      2                      3
                      A                      A                      A
 Frequencies --     19.6880                26.8984                44.7477
 Red. masses --      7.2650                 7.8345                 5.9656
 Frc consts  --      0.0017                 0.0033                 0.0070
 IR Inten    --      1.7064                 0.3456                 2.6792

                      4                      5                      6
                      A                      A                      A
 Frequencies --     80.9432                86.3321               113.8081
 Red. masses --      5.7835                 7.4057                 5.3538
 Frc consts  --      0.0223                 0.0325                 0.0409
 IR Inten    --      1.1658                 2.0114                 5.1074

                      7                      8                      9
                      A                      A                      A
 Frequencies --    155.8936               198.3995               214.9292
 Red. masses --      8.7709                 4.2774                 2.1040
 Frc consts  --      0.1256                 0.0992                 0.0573
 IR Inten    --      1.7460                 9.3628                34.1067

                     10                     11                     12
                      A                      A                      A
 Frequencies --    226.6788               264.1902               271.3269
 Red. masses --      5.4179                 7.9805                 4.7279
 Frc consts  --      0.1640                 0.3282                 0.2051
 IR Inten    --      6.6433                 7.4966                 1.4461

                     13                     14                     15
                      A                      A                      A
 Frequencies --    289.8797               307.9634               329.6606
 Red. masses --      1.2632                 2.0134                 3.4400
 Frc consts  --      0.0625                 0.1125                 0.2203
 IR Inten    --    264.1174                32.5774                18.6400

                     16                     17                     18
                      A                      A                      A
 Frequencies --    361.6409               384.3778               407.4833
 Red. masses --      4.2282                 3.9582                 3.0536
 Frc consts  --      0.3258                 0.3446                 0.2987
 IR Inten    --      0.0367                10.7640                 2.6800

                     19                     20                     21
                      A                      A                      A
 Frequencies --    455.0677               458.9845               469.5283
 Red. masses --      4.0706                 4.6567                 3.5841
 Frc consts  --      0.4967                 0.5780                 0.4655
 IR Inten    --     22.7959                21.7580                 0.9792

                     22                     23                     24
                      A                      A                      A
 Frequencies --    482.8028               528.5845               539.2931
 Red. masses --      4.7953                 4.0605                 3.9503
 Frc consts  --      0.6586                 0.6684                 0.6769
 IR Inten    --      2.2221                15.6064                 2.2510

                     25                     26                     27
                      A                      A                      A
 Frequencies --    559.9304               626.8238               655.9201
 Red. masses --      1.1286                 4.4332                 4.8888
 Frc consts  --      0.2085                 1.0263                 1.2392
 IR Inten    --      4.8132                23.4713                70.9778

                     28                     29                     30
                      A                      A                      A
 Frequencies --    665.5301               713.5445               723.7744
 Red. masses --      7.4800                 4.0687                 4.0640
 Frc consts  --      1.9520                 1.2205                 1.2543
 IR Inten    --      6.5841                64.5707                83.9418

                     31                     32                     33
                      A                      A                      A
 Frequencies --    763.5368               770.9954               804.1574
 Red. masses --     11.4471                 3.1636                10.5202
 Frc consts  --      3.9319                 1.1080                 4.0083
 IR Inten    --      5.0626                55.1410                42.1800

                     34                     35                     36
                      A                      A                      A
 Frequencies --    816.3290               853.5638               876.8220
 Red. masses --      1.8044                 8.6078                 2.1102
 Frc consts  --      0.7085                 3.6950                 0.9559
 IR Inten    --     75.1381                31.5585                37.3497

                     37                     38                     39
                      A                      A                      A
 Frequencies --    895.5218               973.3137               986.7850
 Red. masses --      1.8347                 2.6944                 2.3720
 Frc consts  --      0.8669                 1.5039                 1.3609
 IR Inten    --     81.8330                12.3564                11.9251

                     40                     41                     42
                      A                      A                      A
 Frequencies --   1002.0668              1040.3366              1075.1259
 Red. masses --      1.4634                 2.1129                 1.9006
 Frc consts  --      0.8658                 1.3473                 1.2944
 IR Inten    --      2.3617                12.2871                16.9352

                     43                     44                     45
                      A                      A                      A
 Frequencies --   1099.7823              1135.8022              1142.2256
 Red. masses --      1.9420                 3.7948                 2.7799
 Frc consts  --      1.3839                 2.8843                 2.1369
 IR Inten    --     52.5127                16.0954               169.6505

                     46                     47                     48
                      A                      A                      A
 Frequencies --   1200.1357              1207.4482              1284.0622
 Red. masses --      2.2529                 1.4706                 1.4192
 Frc consts  --      1.9118                 1.2632                 1.3787
 IR Inten    --     38.5792                21.4688                30.2947

                     49                     50                     51
                      A                      A                      A
 Frequencies --   1308.1490              1336.9408              1358.5046
 Red. masses --      3.3723                 2.5760                 2.9385
 Frc consts  --      3.4001                 2.7128                 3.1952
 IR Inten    --    102.9799               118.8371                86.4148

                     52                     53                     54
                      A                      A                      A
 Frequencies --   1368.6602              1384.0582              1391.6948
 Red. masses --      1.8543                 4.0858                 3.6457
 Frc consts  --      2.0466                 4.6114                 4.1602
 IR Inten    --     32.6048               294.6825               121.5372

                     55                     56                     57
                      A                      A                      A
 Frequencies --   1406.1866              1462.0149              1474.8284
 Red. masses --      1.6075                 2.4725                 1.1008
 Frc consts  --      1.8728                 3.1138                 1.4107
 IR Inten    --    123.4345                84.3873                 7.9152

                     58                     59                     60
                      A                      A                      A
 Frequencies --   1505.8851              1524.0811              1573.9523
 Red. masses --      2.4148                 1.3495                 3.0038
 Frc consts  --      3.2264                 1.8469                 4.3844
 IR Inten    --    169.1090                28.0957               126.1398

                     61                     62                     63
                      A                      A                      A
 Frequencies --   1602.0126              1625.8472              1629.7339
 Red. masses --      2.1683                 1.1525                 4.6905
 Frc consts  --      3.2786                 1.7949                 7.3401
 IR Inten    --     15.1111                78.4285               328.2981

                     64                     65                     66
                      A                      A                      A
 Frequencies --   1651.7103              1675.1785              3090.5869
 Red. masses --      3.6645                 2.1237                 1.0596
 Frc consts  --      5.8903                 3.5113                 5.9632
 IR Inten    --    440.1291               676.4194                 0.8605

                     67                     68                     69
                      A                      A                      A
 Frequencies --   3114.7868              3148.2107              3180.3354
 Red. masses --      1.0679                 1.1052                 1.0995
 Frc consts  --      6.1045                 6.4538                 6.5522
 IR Inten    --     13.0109                 3.5007                 7.7942

                     70                     71                     72
                      A                      A                      A
 Frequencies --   3221.0631              3476.4353              3533.4611
 Red. masses --      1.0917                 1.0475                 1.0739
 Frc consts  --      6.6733                 7.4586                 7.9000
 IR Inten    --      0.1312                29.6695                93.7572

                     73                     74                     75
                      A                      A                      A
 Frequencies --   3584.3303              3614.9135              3741.8399
 Red. masses --      1.0970                 1.0449                 1.1056
 Frc consts  --      8.3037                 8.0447                 9.1202
 IR Inten    --     32.5262               135.7492                55.7675

 - Thermochemistry -
 -------------------
 Temperature   298.150 Kelvin.  Pressure   1.00000 Atm.
 Atom     1 has atomic number  6 and mass  12.00000

 Molecular mass:   262.04842 amu.
 Principal axes and moments of inertia in atomic units:
                           1         2         3
     Eigenvalues --  3002.510976239.706528051.04002
           X            0.99984   0.01708   0.00567
           Y           -0.01704   0.99983  -0.00768
           Z           -0.00580   0.00758   0.99995
 This molecule is an asymmetric top.
 Rotational symmetry number  1.
 Warning -- assumption of classical behavior for rotation
           may cause significant error
 Rotational temperatures (Kelvin)      0.02885     0.01388     0.01076
 Rotational constants (GHZ):           0.60108     0.28923     0.22416
 Zero-point vibrational energy     523833.0 (Joules/Mol)
                                  125.19909 (Kcal/Mol)
 Warning -- explicit consideration of  25 degrees of freedom as
           vibrations may cause significant error
 Vibrational temperatures:     28.33    38.70    64.38   116.46   124.21
          (Kelvin)            163.74   224.30   285.45   309.24   326.14
                              380.11   390.38   417.07   443.09   474.31
                              520.32   553.03   586.28   654.74   660.38
                              675.55   694.65   760.52   775.92   805.61
                              901.86   943.72   957.55  1026.63  1041.35
                             1098.56  1109.29  1157.00  1174.52  1228.09
                             1261.55  1288.46  1400.38  1419.76  1441.75
                             1496.81  1546.87  1582.34  1634.17  1643.41
                             1726.73  1737.25  1847.48  1882.13  1923.56
                             1954.59  1969.20  1991.35  2002.34  2023.19
                             2103.51  2121.95  2166.63  2192.81  2264.57
                             2304.94  2339.23  2344.82  2376.44  2410.21
                             4446.67  4481.48  4529.57  4575.79  4634.39
                             5001.82  5083.86  5157.05  5201.05  5383.67

 Zero-point correction=                           0.199517 (Hartree/Particle)
 Thermal correction to Energy=                    0.215695
 Thermal correction to Enthalpy=                  0.216640
 Thermal correction to Gibbs Free Energy=         0.153809
 Sum of electronic and zero-point Energies=          -1261.961237
 Sum of electronic and thermal Energies=             -1261.945059
 Sum of electronic and thermal Enthalpies=           -1261.944115
 Sum of electronic and thermal Free Energies=        -1262.006946

                     E (Thermal)             CV                S
                      KCal/Mol        Cal/Mol-Kelvin    Cal/Mol-Kelvin
 Total                  135.351             60.080            132.239
 Electronic               0.000              0.000              0.000
 Translational            0.889              2.981             42.590
 Rotational               0.889              2.981             33.378
 Vibrational            133.573             54.119             56.272
 Vibration     1          0.593              1.986              6.665
 Vibration     2          0.593              1.984              6.046
 Vibration     3          0.595              1.980              5.037
 Vibration     4          0.600              1.962              3.868
 Vibration     5          0.601              1.959              3.742
 Vibration     6          0.607              1.938              3.203
 Vibration     7          0.620              1.896              2.599
 Vibration     8          0.637              1.842              2.148
 Vibration     9          0.645              1.818              2.001
 Vibration    10          0.650              1.800              1.905
 Vibration    11          0.671              1.739              1.634
 Vibration    12          0.675              1.726              1.588
 Vibration    13          0.686              1.693              1.475
 Vibration    14          0.698              1.659              1.373
 Vibration    15          0.712              1.616              1.262
 Vibration    16          0.736              1.551              1.115
 Vibration    17          0.753              1.504              1.022
 Vibration    18          0.772              1.454              0.936
 Vibration    19          0.813              1.350              0.781
 Vibration    20          0.817              1.341              0.769
 Vibration    21          0.827              1.318              0.739
 Vibration    22          0.839              1.288              0.703
 Vibration    23          0.884              1.187              0.590
 Vibration    24          0.894              1.163              0.567
 Vibration    25          0.916              1.118              0.524

 Optimization completed.
    -- Stationary point found.
 Normal termination of Gaussian 16 at Sun Dec 13 12:45:51 2020.

 ----------------------------------------------------------------------
 # B3LYP/6-311++G(d,p) empiricaldispersion=gd3bj scf=xqc pop=npa geom=c
 heck
 ----------------------------------------------------------------------

 ---------------------------------------
 CID_108138702_JID_7424_Energie_neutraal
 ---------------------------------------
 Structure from the checkpoint file:  "JID_7424.chk"
 Charge =  0 Multiplicity = 1

 SCF Done:  E(RB3LYP) =  -1262.45269429     A.U. after   17 cycles
 Normal termination of Gaussian 16 at Sun Dec 13 12:50:24 2020.

 ----------------------------------------------------------------------
 # B3LYP/6-311++G(d,p) empiricaldispersion=gd3bj scf=xqc pop=npa geom=c
 heck
 ----------------------------------------------------------------------

 -------------------------------------
 CID_108138702_JID_7424_Energie_kation
 -------------------------------------
 Structure from the checkpoint file:  "JID_7424.chk"
 Charge =  1 Multiplicity = 2

 SCF Done:  E(UB3LYP) =  -1262.12295147     A.U. after   33 cycles
 SCF Done:  E(UB3LYP) =  -1262.12295147     a.u. after    1 cycles
 Normal termination of Gaussian 16 at Sun Dec 13 13:03:23 2020.
 Gaussian 16:  ES64L-G16RevA.03 25-Dec-2016

 ----------------------------------------------------------------------
 # B3LYP/6-311++G(d,p) empiricaldispersion=gd3bj scf=xqc pop=npa geom=c
 heck
 ----------------------------------------------------------------------

 ------------------------------------
 CID_108138702_JID_7424_Energie_anion
 ------------------------------------
 Structure from the checkpoint file:  "JID_7424.chk"
 Charge = -1 Multiplicity = 2

                         Standard orientation:
 ---------------------------------------------------------------------
 Center     Atomic      Atomic             Coordinates (Angstroms)
 Number     Number       Type             X           Y           Z
 ---------------------------------------------------------------------
      1          6           0        2.936626    0.021717    0.801555
      2          6           0        1.932114   -0.648072    0.085756
      3          6           0        1.018609    0.153732   -0.659205
      4          7           0        1.229090    1.483542   -0.713828
      5          6           0        2.266341    1.997283   -0.047527
      6          7           0        3.126557    1.327220    0.764787
      7          7           0        2.466652    3.332808   -0.145129
      8          7           0       -0.100833   -0.252483   -1.320700
      9          6           0       -1.009663   -1.304069   -0.879388
     10          6           0       -1.675677   -0.997987    0.468202
     11         16           0       -3.044664    0.184050    0.368256
     12          8           0       -4.058958   -0.344866   -0.547043
     13          8           0       -3.381046    0.585316    1.736362
     14          7           0       -2.332339    1.481346   -0.486688
     15          7           0        1.998182   -2.086683    0.070224
     16          8           0        2.581955   -2.647575    1.003142
     17          8           0        1.509617   -2.687969   -0.896074
     18          1           0        3.618829   -0.570044    1.404462
     19          1           0        3.315138    3.714285    0.244140
     20          1           0        1.965742    3.849598   -0.851056
     21          1           0       -0.602027    0.568400   -1.651067
     22          1           0       -1.774831   -1.420593   -1.650828
     23          1           0       -0.471777   -2.247408   -0.806398
     24          1           0       -2.147655   -1.890983    0.890585
     25          1           0       -0.964157   -0.609136    1.202172
     26          1           0       -3.079292    1.953299   -0.996357
     27          1           0       -1.879142    2.132667    0.154138
 ---------------------------------------------------------------------

 SCF Done:  E(UB3LYP) =  -1262.49102199     A.U. after   25 cycles

 The electronic state is 2-A.
 Alpha  occ. eigenvalues --  -88.98296 -19.03996 -19.03991 -18.94009 -18.93965
 Alpha  occ. eigenvalues --  -14.31523 -14.26964 -14.21550 -14.21396 -14.18154
 Alpha  occ. eigenvalues --  -14.17540 -10.13861 -10.13544 -10.12313 -10.10759
 Alpha  occ. eigenvalues --  -10.07177 -10.06894  -8.04558  -6.00874  -6.00793
 Alpha  occ. eigenvalues --   -6.00586  -1.04186  -1.02119  -0.93318  -0.88422
 Alpha  occ. eigenvalues --   -0.84967  -0.84111  -0.83259  -0.78294  -0.75378
 Alpha  occ. eigenvalues --   -0.69850  -0.66351  -0.59590  -0.55300  -0.53870
 Alpha  occ. eigenvalues --   -0.51385  -0.47456  -0.45865  -0.44762  -0.43766
 Alpha  occ. eigenvalues --   -0.42788  -0.41157  -0.39274  -0.37513  -0.37432
 Alpha  occ. eigenvalues --   -0.36239  -0.35623  -0.34844  -0.33798  -0.31740
 Alpha  occ. eigenvalues --   -0.30870  -0.30339  -0.29526  -0.28514  -0.27292
 Alpha  occ. eigenvalues --   -0.25424  -0.24249  -0.23810  -0.22178  -0.21645
 Alpha  occ. eigenvalues --   -0.20560  -0.20095  -0.13819  -0.13556  -0.13320
 Alpha  occ. eigenvalues --   -0.12082  -0.11021  -0.09389   0.02823
 Alpha virt. eigenvalues --    0.05876   0.07558   0.09180   0.09544   0.10391
 Alpha virt. eigenvalues --    0.10710   0.11300   0.11845   0.12319   0.13132
 Alpha virt. eigenvalues --    0.13416   0.13917   0.14426   0.14800   0.15194

  Beta  occ. eigenvalues --  -88.98295 -19.03995 -19.03988 -18.93476 -18.93467
  Beta  occ. eigenvalues --  -14.30724 -14.26963 -14.21479 -14.21363 -14.18224
  Beta  occ. eigenvalues --  -14.17648 -10.13581 -10.13452 -10.12306 -10.10746
  Beta  occ. eigenvalues --  -10.06962 -10.06877  -8.04557  -6.00872  -6.00792
  Beta  occ. eigenvalues --   -6.00584  -1.04181  -1.00892  -0.93314  -0.88237
  Beta  occ. eigenvalues --   -0.84348  -0.83719  -0.83142  -0.78146  -0.75358
  Beta  occ. eigenvalues --   -0.69818  -0.65928  -0.59489  -0.54790  -0.53569
  Beta  occ. eigenvalues --   -0.51166  -0.46901  -0.45850  -0.44605  -0.43717
  Beta  occ. eigenvalues --   -0.42650  -0.41126  -0.39218  -0.37475  -0.37098
  Beta  occ. eigenvalues --   -0.36006  -0.34740  -0.33722  -0.32831  -0.31167
  Beta  occ. eigenvalues --   -0.29949  -0.29793  -0.29183  -0.28404  -0.27120
  Beta  occ. eigenvalues --   -0.25349  -0.24154  -0.23590  -0.22020  -0.21604
  Beta  occ. eigenvalues --   -0.20559  -0.19341  -0.13586  -0.13505  -0.11651
  Beta  occ. eigenvalues --   -0.10626  -0.09849  -0.08761
  Beta virt. eigenvalues --    0.05848   0.07537   0.09442   0.09611   0.10144
  Beta virt. eigenvalues --    0.10587   0.10776   0.11350   0.11935   0.12437
  Beta virt. eigenvalues --    0.13151   0.13721   0.14413   0.14770   0.15188

 Mulliken charges and spin densities:
               1          2
     1  C   -0.159750   0.245867
     2  C   -0.471631  -0.097827
     3  C    0.107571   0.095875
     4  N   -0.266088  -0.032309
     5  C    0.039056   0.118084
     6  N   -0.243152  -0.063728
     7  N   -0.337763   0.042754
     8  N    0.165222   0.011945
     9  C   -0.467405  -0.003767
    10  C   -0.671891  -0.005038
    11  S    0.375856  -0.012060
    12  O   -0.268715   0.000756
    13  O   -0.155990   0.001040
    14  N   -0.551370   0.002709
    15  N   -0.250700   0.262073
    16  O   -0.186634   0.197689
    17  O   -0.220129   0.198172
    18  H    0.229115  -0.011723
    19  H    0.264326  -0.001039
    20  H    0.249080  -0.001571
    21  H    0.326353   0.002411
    22  H    0.196151  -0.002482
    23  H    0.231966   0.023987
    24  H    0.248382   0.001013
    25  H    0.262261   0.014591
    26  H    0.288667   0.003205
    27  H    0.267213   0.009375
 Sum of Mulliken charges =  -1.00000   1.00000

 Dipole moment (field-independent basis, Debye):
    X=             -5.9693    Y=              8.3086    Z=             -1.8839  Tot=             10.4026
 Quadrupole moment (field-independent basis, Debye-Ang):
   XX=           -160.0130   YY=           -130.9043   ZZ=           -123.0912
   XY=             15.0625   XZ=              0.5087   YZ=             -6.1612

 Summary of Natural Population Analysis:

                                       Natural Population
                Natural  -----------------------------------------------
    Atom  No    Charge         Core      Valence    Rydberg      Total
 -----------------------------------------------------------------------
      C    1    0.11439      0.99959     1.87231    0.01372     2.88561
      C    2   -0.05016      0.99939     2.03736    0.01340     3.05016
      C    3    0.23334      0.99952     1.75121    0.01592     2.76666
      N    4   -0.32707      0.99964     2.81509    0.01234     3.82707
      C    5    0.33797      0.99965     1.64554    0.01684     2.66203
      N    6   -0.31032      0.99968     2.79856    0.01207     3.81032
      N    7   -0.38820      0.99969     2.87982    0.00869     3.88820
      N    8   -0.30291      0.99966     2.78983    0.01342     3.80291
      C    9   -0.10730      0.99959     2.09703    0.01068     3.10730
      C   10   -0.29219      0.99957     2.28225    0.01037     3.29219
      S   11    1.07607      4.99939     1.82305    0.10149     6.92393
      O   12   -0.46818      0.99991     3.46214    0.00614     4.46818
      O   13   -0.46216      0.99991     3.45667    0.00558     4.46216
      N   14   -0.51883      0.99979     3.00885    0.01019     4.01883
      N   15    0.32368      0.99971     2.15129    0.02532     3.17632
      O   16   -0.19800      0.99990     3.19059    0.00751     4.19800
      O   17   -0.20659      0.99990     3.19782    0.00888     4.20659
      H   18    0.10122      0.00000     0.39747    0.00131     0.39878
      H   19    0.19277      0.00000     0.30617    0.00106     0.30723
      H   20    0.18975      0.00000     0.30918    0.00107     0.31025
      H   21    0.19649      0.00000     0.30157    0.00194     0.30351
      H   22    0.10107      0.00000     0.39782    0.00112     0.39893
      H   23    0.13473      0.00000     0.36368    0.00159     0.36527
      H   24    0.11877      0.00000     0.38013    0.00110     0.38123
      H   25    0.12267      0.00000     0.37618    0.00116     0.37733
      H   26    0.19339      0.00000     0.30505    0.00155     0.30661
      H   27    0.19559      0.00000     0.30087    0.00354     0.30441
 =======================================================================
   * Total *   -0.00000     20.99449    46.69753    0.30798    68.00000

 Normal termination of Gaussian 16 at Sun Dec 13 13:13:19 2020.
