 Gaussian 16, Revision A.03,

 -----------------------------------------------------------
 # opt freq B3LYP/6-31G(d) empiricaldispersion=gd3bj scf=xqc
 -----------------------------------------------------------

 ------------------------------
 CID_19617790_JID_4321_neutraal
 ------------------------------
 Symbolic Z-matrix:
 Charge =  0 Multiplicity = 1

 SCF Done:  E(RB3LYP) =  -719.935086936     A.U. after   15 cycles
 SCF Done:  E(RB3LYP) =  -719.937633729     A.U. after   13 cycles
 SCF Done:  E(RB3LYP) =  -719.937541998     A.U. after   13 cycles
 SCF Done:  E(RB3LYP) =  -719.935129093     A.U. after   14 cycles
 SCF Done:  E(RB3LYP) =  -719.934950198     A.U. after   13 cycles
 SCF Done:  E(RB3LYP) =  -719.937700735     A.U. after    9 cycles
 SCF Done:  E(RB3LYP) =  -719.937835258     A.U. after   12 cycles
 SCF Done:  E(RB3LYP) =  -719.937840581     A.U. after   10 cycles
 SCF Done:  E(RB3LYP) =  -719.937843147     A.U. after    9 cycles
 SCF Done:  E(RB3LYP) =  -719.937844633     A.U. after    9 cycles
 SCF Done:  E(RB3LYP) =  -719.937844766     A.U. after    8 cycles
 Optimization completed.
    -- Stationary point found.
 Normal termination of Gaussian 16 at Thu Dec 10 09:20:23 2020.

 --------------------------------------------------------------------
 #N Geom=AllCheck Guess=TCheck SCRF=Check GenChk RB3LYP/6-31G(d) Freq
 --------------------------------------------------------------------

 Structure from the checkpoint file:  "JID_4321.chk"
 ------------------------------
 CID_19617790_JID_4321_neutraal
 ------------------------------
 Charge =  0 Multiplicity = 1

 SCF Done:  E(RB3LYP) =  -719.937844766     A.U. after    1 cycles

  Exact polarizability: 162.838  -6.866 156.297  -0.006  -0.010  45.450
 Approx polarizability: 256.413 -21.838 274.499  -0.009  -0.029  69.557

                      1                      2                      3
                      A                      A                      A
 Frequencies --     51.2478                73.0041                83.0152
 Red. masses --     10.6701                 3.5938                 3.5406
 Frc consts  --      0.0165                 0.0113                 0.0144
 IR Inten    --      0.0223                 0.6446                 0.6538

                      4                      5                      6
                      A                      A                      A
 Frequencies --    106.5917               122.7689               141.1648
 Red. masses --      7.5447                 4.4936                 5.7558
 Frc consts  --      0.0505                 0.0399                 0.0676
 IR Inten    --      0.1439                 3.4653                 3.4492

                      7                      8                      9
                      A                      A                      A
 Frequencies --    185.9323               241.9487               279.9095
 Red. masses --      4.7640                 1.4202                 5.7095
 Frc consts  --      0.0970                 0.0490                 0.2636
 IR Inten    --      1.6521                 0.2124                 3.5177

                     10                     11                     12
                      A                      A                      A
 Frequencies --    281.5278               335.8130               363.4574
 Red. masses --      2.9073                 8.1704                 4.3534
 Frc consts  --      0.1358                 0.5429                 0.3388
 IR Inten    --      0.2662                 2.3943                 1.0762

                     13                     14                     15
                      A                      A                      A
 Frequencies --    377.0920               396.0195               439.6006
 Red. masses --      7.5631                 5.3752                 1.1151
 Frc consts  --      0.6336                 0.4967                 0.1270
 IR Inten    --      0.6657                 4.0196               138.8258

                     16                     17                     18
                      A                      A                      A
 Frequencies --    495.8378               524.1499               558.9439
 Red. masses --      3.3046                 8.5273                 4.4232
 Frc consts  --      0.4787                 1.3803                 0.8142
 IR Inten    --      0.9628                 2.8030                 0.1605

                     19                     20                     21
                      A                      A                      A
 Frequencies --    602.6619               650.9585               655.8787
 Red. masses --      4.4859                 7.5201                 5.6237
 Frc consts  --      0.9599                 1.8775                 1.4253
 IR Inten    --      2.5924                 9.7411                57.5466

                     22                     23                     24
                      A                      A                      A
 Frequencies --    737.1394               757.5844               805.3639
 Red. masses --      3.9745                 6.1618                 6.3923
 Frc consts  --      1.2724                 2.0836                 2.4428
 IR Inten    --      7.7879                20.7402                10.0240

                     25                     26                     27
                      A                      A                      A
 Frequencies --    836.9150               852.4045               957.6707
 Red. masses --      1.6323                 7.4322                 1.3535
 Frc consts  --      0.6736                 3.1817                 0.7314
 IR Inten    --     22.0475                27.6381                 3.9385

                     28                     29                     30
                      A                      A                      A
 Frequencies --    967.7943               986.0736               991.1191
 Red. masses --      1.3338                 4.2248                 1.4855
 Frc consts  --      0.7360                 2.4203                 0.8598
 IR Inten    --      1.8040                35.6578                14.5717

                     31                     32                     33
                      A                      A                      A
 Frequencies --   1021.6457              1068.9933              1115.1605
 Red. masses --      7.7678                 7.0337                 1.9041
 Frc consts  --      4.7770                 4.7357                 1.3951
 IR Inten    --    201.9237                60.5101               112.3002

                     34                     35                     36
                      A                      A                      A
 Frequencies --   1176.0276              1184.8290              1213.7008
 Red. masses --      1.6590                 1.2675                 1.7748
 Frc consts  --      1.3518                 1.0484                 1.5404
 IR Inten    --     12.0022                 0.8569                 1.3732

                     37                     38                     39
                      A                      A                      A
 Frequencies --   1226.0986              1298.9661              1308.8571
 Red. masses --      1.6446                 1.6143                 1.4985
 Frc consts  --      1.4566                 1.6049                 1.5125
 IR Inten    --     18.7592                28.6533                78.4794

                     40                     41                     42
                      A                      A                      A
 Frequencies --   1321.9842              1383.2273              1397.0814
 Red. masses --      2.5098                 6.4686                12.0503
 Frc consts  --      2.5843                 7.2920                13.8577
 IR Inten    --    352.0022                18.1941               388.7962

                     43                     44                     45
                      A                      A                      A
 Frequencies --   1458.8820              1479.1828              1504.0167
 Red. masses --      1.8227                 2.2730                 1.4621
 Frc consts  --      2.2857                 2.9302                 1.9487
 IR Inten    --     41.7939                27.5155                12.4424

                     46                     47                     48
                      A                      A                      A
 Frequencies --   1523.3257              1530.6259              1544.5614
 Red. masses --      1.0471                 1.1604                 2.0681
 Frc consts  --      1.4316                 1.6018                 2.9069
 IR Inten    --      7.3193                72.2583                47.6573

                     49                     50                     51
                      A                      A                      A
 Frequencies --   1615.7838              1643.3784              1671.3375
 Red. masses --     10.4715                 6.5942                 8.8247
 Frc consts  --     16.1075                10.4927                14.5237
 IR Inten    --     96.3124               119.6899                73.8620

                     52                     53                     54
                      A                      A                      A
 Frequencies --   1707.9862              3041.5215              3107.6607
 Red. masses --      6.3806                 1.0338                 1.1076
 Frc consts  --     10.9669                 5.6348                 6.3020
 IR Inten    --     19.6485                52.1502                31.6100

                     55                     56                     57
                      A                      A                      A
 Frequencies --   3173.7227              3181.1289              3238.9294
 Red. masses --      1.1013                 1.0894                 1.0885
 Frc consts  --      6.5355                 6.4951                 6.7280
 IR Inten    --     16.8331                 8.1995                 6.7335

                     58                     59                     60
                      A                      A                      A
 Frequencies --   3257.5537              3263.5518              3751.3129
 Red. masses --      1.0935                 1.0908                 1.0676
 Frc consts  --      6.8369                 6.8453                 8.8518
 IR Inten    --      2.4651                 5.7388               106.9911

 - Thermochemistry -
 -------------------
 Temperature   298.150 Kelvin.  Pressure   1.00000 Atm.
 Atom     1 has atomic number  6 and mass  12.00000

 Molecular mass:   196.04841 amu.
 Principal axes and moments of inertia in atomic units:
                           1         2         3
     Eigenvalues --  2178.054993698.657035865.15255
           X            0.99981   0.01925  -0.00000
           Y           -0.01925   0.99981  -0.00000
           Z            0.00000   0.00000   1.00000
 This molecule is an asymmetric top.
 Rotational symmetry number  1.
 Warning -- assumption of classical behavior for rotation
           may cause significant error
 Rotational temperatures (Kelvin)      0.03977     0.02342     0.01477
 Rotational constants (GHZ):           0.82860     0.48795     0.30771
 Zero-point vibrational energy     426293.0 (Joules/Mol)
                                  101.88647 (Kcal/Mol)
 Warning -- explicit consideration of  19 degrees of freedom as
           vibrations may cause significant error
 Vibrational temperatures:     73.73   105.04   119.44   153.36   176.64
          (Kelvin)            203.10   267.52   348.11   402.73   405.06
                              483.16   522.93   542.55   569.78   632.49
                              713.40   754.13   804.20   867.10   936.58
                              943.66  1060.58  1090.00  1158.74  1204.13
                             1226.42  1377.87  1392.44  1418.74  1426.00
                             1469.92  1538.04  1604.47  1692.04  1704.70
                             1746.24  1764.08  1868.92  1883.15  1902.04
                             1990.16  2010.09  2099.01  2128.21  2163.94
                             2191.73  2202.23  2222.28  2324.75  2364.45
                             2404.68  2457.41  4376.07  4471.23  4566.28
                             4576.93  4660.10  4686.89  4695.52  5397.30

 Zero-point correction=                           0.162366 (Hartree/Particle)
 Thermal correction to Energy=                    0.175116
 Thermal correction to Enthalpy=                  0.176060
 Thermal correction to Gibbs Free Energy=         0.122309
 Sum of electronic and zero-point Energies=           -719.775478
 Sum of electronic and thermal Energies=              -719.762729
 Sum of electronic and thermal Enthalpies=            -719.761784
 Sum of electronic and thermal Free Energies=         -719.815535

                     E (Thermal)             CV                S
                      KCal/Mol        Cal/Mol-Kelvin    Cal/Mol-Kelvin
 Total                  109.887             46.599            113.128
 Electronic               0.000              0.000              0.000
 Translational            0.889              2.981             41.725
 Rotational               0.889              2.981             32.224
 Vibrational            108.110             40.637             39.179
 Vibration     1          0.596              1.977              4.769
 Vibration     2          0.599              1.967              4.071
 Vibration     3          0.600              1.961              3.818
 Vibration     4          0.605              1.944              3.330
 Vibration     5          0.610              1.930              3.056
 Vibration     6          0.615              1.912              2.788
 Vibration     7          0.632              1.859              2.268
 Vibration     8          0.658              1.776              1.789
 Vibration     9          0.680              1.711              1.534
 Vibration    10          0.681              1.708              1.524
 Vibration    11          0.717              1.604              1.232
 Vibration    12          0.737              1.548              1.107
 Vibration    13          0.748              1.519              1.051
 Vibration    14          0.763              1.479              0.977
 Vibration    15          0.800              1.384              0.828
 Vibration    16          0.851              1.259              0.669
 Vibration    17          0.879              1.197              0.600
 Vibration    18          0.915              1.120              0.526
 Vibration    19          0.961              1.026              0.445

                           ! Non-Optimized Parameters !
 Normal termination of Gaussian 16 at Thu Dec 10 09:25:53 2020.

 ----------------------------------------------------------------------
 # B3LYP/6-311++G(d,p) empiricaldispersion=gd3bj scf=xqc pop=npa geom=c
 heck
 ----------------------------------------------------------------------

 --------------------------------------
 CID_19617790_JID_4321_Energie_neutraal
 --------------------------------------
 Structure from the checkpoint file:  "JID_4321.chk"
 Charge =  0 Multiplicity = 1

 SCF Done:  E(RB3LYP) =  -720.150561698     A.U. after   15 cycles
 Normal termination of Gaussian 16 at Thu Dec 10 09:28:14 2020.

 ----------------------------------------------------------------------
 # B3LYP/6-311++G(d,p) empiricaldispersion=gd3bj scf=xqc pop=npa geom=c
 heck
 ----------------------------------------------------------------------

 ------------------------------------
 CID_19617790_JID_4321_Energie_kation
 ------------------------------------
 Structure from the checkpoint file:  "JID_4321.chk"
 Charge =  1 Multiplicity = 2

 SCF Done:  E(UB3LYP) =  -719.836824506     A.U. after   27 cycles
 Normal termination of Gaussian 16 at Thu Dec 10 09:34:15 2020.
 Gaussian 16:  ES64L-G16RevA.03 25-Dec-2016

 ----------------------------------------------------------------------
 # B3LYP/6-311++G(d,p) empiricaldispersion=gd3bj scf=xqc pop=npa geom=c
 heck
 ----------------------------------------------------------------------

 -----------------------------------
 CID_19617790_JID_4321_Energie_anion
 -----------------------------------
 Structure from the checkpoint file:  "JID_4321.chk"
 Charge = -1 Multiplicity = 2

                         Standard orientation:
 ---------------------------------------------------------------------
 Center     Atomic      Atomic             Coordinates (Angstroms)
 Number     Number       Type             X           Y           Z
 ---------------------------------------------------------------------
      1          6           0       -2.397505   -3.037842    0.000011
      2          8           0       -2.173439   -1.632774   -0.000069
      3          6           0       -0.899280   -1.172769   -0.000035
      4          6           0       -0.750423    0.237118    0.000368
      5          6           0        0.537998    0.773925    0.000365
      6          6           0        1.641684   -0.070464   -0.000034
      7          6           0        1.503395   -1.456958   -0.000401
      8          6           0        0.228019   -2.007177   -0.000415
      9          7           0        2.984884    0.510015    0.000052
     10          8           0        3.080716    1.737480   -0.000209
     11          8           0        3.943100   -0.265568    0.000374
     12          6           0       -1.939592    1.092497    0.000869
     13          7           0       -1.815824    2.368503   -0.000855
     14          8           0       -3.066006    2.990628    0.000038
     15          1           0       -3.480646   -3.162977    0.000288
     16          1           0       -1.973659   -3.506690    0.895981
     17          1           0       -1.974129   -3.506720   -0.896160
     18          1           0        0.675324    1.847156    0.000694
     19          1           0        2.386927   -2.082156   -0.000621
     20          1           0        0.116507   -3.083902   -0.000778
     21          1           0       -2.922590    0.625260    0.002534
     22          1           0       -2.831897    3.932301   -0.001755
 ---------------------------------------------------------------------

 SCF Done:  E(UB3LYP) =  -720.183692915     A.U. after   28 cycles

 The electronic state is 2-A.
 Alpha  occ. eigenvalues --  -19.05652 -19.04502 -18.94690 -18.94448 -14.32350
 Alpha  occ. eigenvalues --  -14.23613 -10.13384 -10.10080 -10.08577 -10.05919
 Alpha  occ. eigenvalues --  -10.05433 -10.04755 -10.04569 -10.03096  -1.02534
 Alpha  occ. eigenvalues --   -0.97716  -0.96422  -0.85368  -0.75895  -0.72491
 Alpha  occ. eigenvalues --   -0.65725  -0.62758  -0.60608  -0.52537  -0.51955
 Alpha  occ. eigenvalues --   -0.46891  -0.43053  -0.42343  -0.40809  -0.37567
 Alpha  occ. eigenvalues --   -0.37329  -0.36943  -0.34973  -0.34804  -0.32507
 Alpha  occ. eigenvalues --   -0.31499  -0.30604  -0.30245  -0.29324  -0.27461
 Alpha  occ. eigenvalues --   -0.27025  -0.25069  -0.21236  -0.21088  -0.17888
 Alpha  occ. eigenvalues --   -0.16826  -0.13592  -0.12321  -0.11966  -0.10220
 Alpha  occ. eigenvalues --   -0.10113   0.03115
 Alpha virt. eigenvalues --    0.06760   0.06865   0.08096   0.09489   0.10750
 Alpha virt. eigenvalues --    0.11130   0.12465   0.13534   0.13972   0.14536
 Alpha virt. eigenvalues --    0.15202   0.15618   0.17304   0.17804   0.18078

  Beta  occ. eigenvalues --  -19.05638 -19.04429 -18.94339 -18.93953 -14.31755
  Beta  occ. eigenvalues --  -14.23481 -10.13385 -10.09730 -10.08571 -10.05901
  Beta  occ. eigenvalues --  -10.05457 -10.04873 -10.04561 -10.02740  -1.01576
  Beta  occ. eigenvalues --   -0.97630  -0.96219  -0.84565  -0.75768  -0.72216
  Beta  occ. eigenvalues --   -0.65365  -0.62544  -0.60351  -0.52147  -0.51252
  Beta  occ. eigenvalues --   -0.46764  -0.42768  -0.42242  -0.40640  -0.37323
  Beta  occ. eigenvalues --   -0.37248  -0.36370  -0.34867  -0.32202  -0.32083
  Beta  occ. eigenvalues --   -0.31214  -0.30252  -0.29988  -0.29205  -0.27297
  Beta  occ. eigenvalues --   -0.26292  -0.24945  -0.21130  -0.20527  -0.17294
  Beta  occ. eigenvalues --   -0.16698  -0.11921  -0.11783  -0.10381  -0.09794
  Beta  occ. eigenvalues --   -0.08856
  Beta virt. eigenvalues --    0.06748   0.07722   0.08095   0.09465   0.10111
  Beta virt. eigenvalues --    0.10779   0.11118   0.12473   0.13529   0.14538
  Beta virt. eigenvalues --    0.14890   0.15177   0.16176   0.17773   0.17806

 Mulliken charges and spin densities:
               1          2
     1  C   -0.269668  -0.004542
     2  O   -0.176645   0.014710
     3  C   -0.914234   0.223994
     4  C    0.863788  -0.020407
     5  C    0.062122   0.010668
     6  C   -0.804703  -0.064497
     7  C   -0.252256   0.353613
     8  C    0.006303  -0.093489
     9  N   -0.235117   0.196520
    10  O   -0.197184   0.185807
    11  O   -0.168949   0.140898
    12  C    0.050295   0.009969
    13  N   -0.440166   0.051277
    14  O    0.018345   0.003400
    15  H    0.151601  -0.000526
    16  H    0.132906   0.005587
    17  H    0.132866   0.005576
    18  H    0.270707  -0.001289
    19  H    0.219662  -0.021158
    20  H    0.124920   0.005364
    21  H    0.168490  -0.001357
    22  H    0.256916  -0.000116
 Sum of Mulliken charges =  -1.00000   1.00000

 Dipole moment (field-independent basis, Debye):
    X=             -9.5278    Y=             -3.9898    Z=             -0.0005  Tot=             10.3294
 Quadrupole moment (field-independent basis, Debye-Ang):
   XX=           -139.0270   YY=            -85.6178   ZZ=            -86.8959
   XY=             -2.4749   XZ=              0.0012   YZ=             -0.0053

 Summary of Natural Population Analysis:

                                       Natural Population
                Natural  -----------------------------------------------
    Atom  No    Charge         Core      Valence    Rydberg      Total
 -----------------------------------------------------------------------
      C    1   -0.09923      0.99961     2.09148    0.00814     3.09923
      O    2   -0.27130      0.99985     3.26270    0.00875     4.27130
      C    3    0.23212      0.99939     1.75759    0.01090     2.76788
      C    4   -0.09025      0.99948     2.08148    0.00929     3.09025
      C    5   -0.06871      0.99950     2.05954    0.00967     3.06871
      C    6    0.02934      0.99940     1.95984    0.01141     2.97066
      C    7   -0.01404      0.99955     2.00405    0.01045     3.01404
      C    8   -0.17834      0.99954     2.17103    0.00777     3.17834
      N    9    0.30236      0.99972     2.17070    0.02722     3.19764
      O   10   -0.18865      0.99990     3.18081    0.00794     4.18865
      O   11   -0.21099      0.99990     3.20323    0.00786     4.21099
      C   12    0.02679      0.99962     1.95666    0.01694     2.97321
      N   13   -0.07476      0.99963     2.55900    0.01612     3.57476
      O   14   -0.29217      0.99989     3.28459    0.00769     4.29217
      H   15    0.08698      0.00000     0.41220    0.00082     0.41302
      H   16    0.08200      0.00000     0.41644    0.00157     0.41800
      H   17    0.08199      0.00000     0.41644    0.00157     0.41801
      H   18    0.12193      0.00000     0.37633    0.00174     0.37807
      H   19    0.10945      0.00000     0.38932    0.00123     0.39055
      H   20    0.09579      0.00000     0.40310    0.00111     0.40421
      H   21    0.09081      0.00000     0.40651    0.00268     0.40919
      H   22    0.22889      0.00000     0.26856    0.00255     0.27111
 =======================================================================
   * Total *   -0.00000     13.99498    36.83160    0.17343    51.00000

 Normal termination of Gaussian 16 at Thu Dec 10 09:40:21 2020.
