 Gaussian 16, Revision A.03,

 -----------------------------------------------------------
 # opt freq B3LYP/6-31G(d) empiricaldispersion=gd3bj scf=xqc
 -----------------------------------------------------------

 -------------------------------
 CID_154219608_JID_8421_neutraal
 -------------------------------
 Symbolic Z-matrix:
 Charge =  0 Multiplicity = 1

 SCF Done:  E(RB3LYP) =  -861.319018606     A.U. after   15 cycles
 SCF Done:  E(RB3LYP) =  -861.329431297     A.U. after   13 cycles
 SCF Done:  E(RB3LYP) =  -861.332300140     A.U. after   12 cycles
 SCF Done:  E(RB3LYP) =  -861.336148178     A.U. after   14 cycles
 SCF Done:  E(RB3LYP) =  -861.338699126     A.U. after   14 cycles
 SCF Done:  E(RB3LYP) =  -861.339344607     A.U. after   12 cycles
 SCF Done:  E(RB3LYP) =  -861.339994644     A.U. after   12 cycles
 SCF Done:  E(RB3LYP) =  -861.340570138     A.U. after   12 cycles
 SCF Done:  E(RB3LYP) =  -861.341196900     A.U. after   14 cycles
 SCF Done:  E(RB3LYP) =  -861.341467859     A.U. after   12 cycles
 SCF Done:  E(RB3LYP) =  -861.341696305     A.U. after    9 cycles
 SCF Done:  E(RB3LYP) =  -861.341704845     A.U. after   10 cycles
 SCF Done:  E(RB3LYP) =  -861.341706803     A.U. after    8 cycles
 SCF Done:  E(RB3LYP) =  -861.341707959     A.U. after    8 cycles
 SCF Done:  E(RB3LYP) =  -861.341708073     A.U. after    7 cycles
 Optimization completed.
    -- Stationary point found.
 Normal termination of Gaussian 16 at Fri Dec 11 20:47:30 2020.

 --------------------------------------------------------------------
 #N Geom=AllCheck Guess=TCheck SCRF=Check GenChk RB3LYP/6-31G(d) Freq
 --------------------------------------------------------------------

 Structure from the checkpoint file:  "JID_8421.chk"
 -------------------------------
 CID_154219608_JID_8421_neutraal
 -------------------------------
 Charge =  0 Multiplicity = 1

 SCF Done:  E(RB3LYP) =  -861.341708073     A.U. after    1 cycles

  Exact polarizability: 208.583   7.716 137.683  -6.940  16.115 106.232
 Approx polarizability: 262.810  11.202 227.413 -15.068  36.471 163.830

                      1                      2                      3
                      A                      A                      A
 Frequencies --     20.0381                32.5638                65.0009
 Red. masses --      4.2884                 4.2373                 4.5871
 Frc consts  --      0.0010                 0.0026                 0.0114
 IR Inten    --      0.1276                 0.5925                 2.3150

                      4                      5                      6
                      A                      A                      A
 Frequencies --     66.2287                73.3110               110.5281
 Red. masses --      3.9666                 5.9645                 4.1845
 Frc consts  --      0.0103                 0.0189                 0.0301
 IR Inten    --      1.9051                 0.4911                 0.0414

                      7                      8                      9
                      A                      A                      A
 Frequencies --    149.2574               163.2775               172.7201
 Red. masses --      3.9870                 3.8848                 1.3446
 Frc consts  --      0.0523                 0.0610                 0.0236
 IR Inten    --      1.1052                 2.4826                 0.0920

                     10                     11                     12
                      A                      A                      A
 Frequencies --    228.3333               242.7866               251.9449
 Red. masses --      2.6933                 4.3367                 1.0843
 Frc consts  --      0.0827                 0.1506                 0.0406
 IR Inten    --      2.0099                 0.4967                 0.2961

                     13                     14                     15
                      A                      A                      A
 Frequencies --    292.5438               304.1230               361.8689
 Red. masses --      2.9788                 5.5927                 3.2849
 Frc consts  --      0.1502                 0.3048                 0.2534
 IR Inten    --     10.1551                 9.1837                 0.6441

                     16                     17                     18
                      A                      A                      A
 Frequencies --    370.6040               391.0157               408.9909
 Red. masses --      2.3421                 3.0534                 4.1058
 Frc consts  --      0.1895                 0.2751                 0.4046
 IR Inten    --      2.9016                 2.1630                 0.7353

                     19                     20                     21
                      A                      A                      A
 Frequencies --    421.3202               454.3942               515.1685
 Red. masses --      3.0694                 5.8109                 4.2245
 Frc consts  --      0.3210                 0.7069                 0.6606
 IR Inten    --      1.5686                 7.1573                 1.1245

                     22                     23                     24
                      A                      A                      A
 Frequencies --    526.3431               549.0234               608.1935
 Red. masses --      3.5891                 4.6578                 4.3251
 Frc consts  --      0.5858                 0.8272                 0.9426
 IR Inten    --      4.0987                21.7296                 7.3444

                     25                     26                     27
                      A                      A                      A
 Frequencies --    634.4943               652.8121               663.1709
 Red. masses --      6.2197                 4.1603                 6.0149
 Frc consts  --      1.4753                 1.0446                 1.5586
 IR Inten    --      0.8949                20.0376                 3.6055

                     28                     29                     30
                      A                      A                      A
 Frequencies --    708.7732               743.6339               754.8098
 Red. masses --      1.9457                 4.0016                 5.2496
 Frc consts  --      0.5759                 1.3038                 1.7622
 IR Inten    --     24.4563                 9.5437                14.7422

                     31                     32                     33
                      A                      A                      A
 Frequencies --    778.3450               784.4970               814.9981
 Red. masses --      2.1547                 4.0045                 3.0125
 Frc consts  --      0.7691                 1.4521                 1.1789
 IR Inten    --     36.0576                37.0044                41.9717

                     34                     35                     36
                      A                      A                      A
 Frequencies --    842.2894               873.5945               887.1696
 Red. masses --      1.2492                 3.1073                 2.4933
 Frc consts  --      0.5221                 1.3972                 1.1562
 IR Inten    --      0.2924                10.2943                10.2838

                     37                     38                     39
                      A                      A                      A
 Frequencies --    914.0417               931.5430               960.3267
 Red. masses --      1.4225                 8.5689                 1.3369
 Frc consts  --      0.7002                 4.3811                 0.7264
 IR Inten    --      2.3340               709.2307                 2.9658

                     40                     41                     42
                      A                      A                      A
 Frequencies --    970.0761               984.8309               988.3240
 Red. masses --      1.9924                 3.4855                 1.3619
 Frc consts  --      1.1047                 1.9918                 0.7838
 IR Inten    --      5.9791               105.5506                11.3271

                     43                     44                     45
                      A                      A                      A
 Frequencies --   1002.6037              1021.8977              1031.0834
 Red. masses --      1.9153                 5.9441                 1.5284
 Frc consts  --      1.1344                 3.6572                 0.9573
 IR Inten    --      2.5328                 0.0726                 1.8361

                     46                     47                     48
                      A                      A                      A
 Frequencies --   1064.0561              1093.5986              1116.9165
 Red. masses --      2.1653                 2.2328                 3.4338
 Frc consts  --      1.4445                 1.5733                 2.5239
 IR Inten    --      1.5565                52.4802                87.6199

                     49                     50                     51
                      A                      A                      A
 Frequencies --   1118.3554              1140.2142              1149.3535
 Red. masses --      1.9361                 1.9283                 1.7610
 Frc consts  --      1.4267                 1.4771                 1.3706
 IR Inten    --     72.1046               220.9069                19.9245

                     52                     53                     54
                      A                      A                      A
 Frequencies --   1160.5498              1169.6271              1189.4723
 Red. masses --      1.4240                 3.2143                 2.6470
 Frc consts  --      1.1300                 2.5908                 2.2066
 IR Inten    --    128.8251               325.1916                74.8263

                     55                     56                     57
                      A                      A                      A
 Frequencies --   1195.0682              1219.0158              1221.1766
 Red. masses --      1.0895                 2.2774                 1.5388
 Frc consts  --      0.9168                 1.9939                 1.3520
 IR Inten    --      0.3786                54.6582                10.4238

                     58                     59                     60
                      A                      A                      A
 Frequencies --   1272.7036              1295.2870              1297.2569
 Red. masses --      1.2604                 1.3612                 4.2441
 Frc consts  --      1.2029                 1.3455                 4.2081
 IR Inten    --      6.6588                34.5638                66.1837

                     61                     62                     63
                      A                      A                      A
 Frequencies --   1353.9924              1368.5086              1372.7641
 Red. masses --      3.7261                 1.3957                 1.6894
 Frc consts  --      4.0247                 1.5400                 1.8757
 IR Inten    --     42.9901                57.6740                 2.1622

                     64                     65                     66
                      A                      A                      A
 Frequencies --   1377.6731              1391.3455              1403.6257
 Red. masses --      1.4205                 1.3847                 1.4113
 Frc consts  --      1.5885                 1.5794                 1.6382
 IR Inten    --     36.5237                13.6941               108.1151

                     67                     68                     69
                      A                      A                      A
 Frequencies --   1414.6880              1422.2106              1439.0415
 Red. masses --      1.8724                 1.3192                 1.2742
 Frc consts  --      2.2079                 1.5721                 1.5546
 IR Inten    --    144.3720                 7.6393                19.4052

                     70                     71                     72
                      A                      A                      A
 Frequencies --   1450.9830              1489.8012              1502.2607
 Red. masses --      1.3419                 1.2258                 1.0920
 Frc consts  --      1.6645                 1.6030                 1.4519
 IR Inten    --     14.2819                79.0089                 2.5435

                     73                     74                     75
                      A                      A                      A
 Frequencies --   1505.6783              1519.1504              1522.5058
 Red. masses --      2.2700                 1.0656                 1.0609
 Frc consts  --      3.0321                 1.4490                 1.4489
 IR Inten    --      2.7077                 2.1346                 8.8035

                     76                     77                     78
                      A                      A                      A
 Frequencies --   1530.8410              1543.5652              1546.9469
 Red. masses --      1.0610                 1.0803                 1.1161
 Frc consts  --      1.4650                 1.5165                 1.5737
 IR Inten    --     26.0065                 6.5522                23.7775

                     79                     80                     81
                      A                      A                      A
 Frequencies --   1552.8279              1647.0811              1665.4744
 Red. masses --      2.1530                 5.8387                 5.5381
 Frc consts  --      3.0588                 9.3325                 9.0507
 IR Inten    --    100.5415                 3.4043                35.4762

                     82                     83                     84
                      A                      A                      A
 Frequencies --   1809.9002              3044.1112              3051.2990
 Red. masses --     12.1049                 1.0510                 1.0679
 Frc consts  --     23.3626                 5.7379                 5.8580
 IR Inten    --    303.8661                38.6624                26.6043

                     85                     86                     87
                      A                      A                      A
 Frequencies --   3060.2921              3064.4670              3087.2779
 Red. masses --      1.0433                 1.0582                 1.0853
 Frc consts  --      5.7570                 5.8552                 6.0949
 IR Inten    --     17.3953                15.8933                37.3666

                     88                     89                     90
                      A                      A                      A
 Frequencies --   3110.6922              3130.4575              3134.2487
 Red. masses --      1.1035                 1.0995                 1.0993
 Frc consts  --      6.2911                 6.3484                 6.3623
 IR Inten    --     25.9852                31.6157                40.2044

                     91                     92                     93
                      A                      A                      A
 Frequencies --   3138.6541              3156.2241              3185.5079
 Red. masses --      1.0862                 1.1015                 1.0867
 Frc consts  --      6.3043                 6.4648                 6.4969
 IR Inten    --     18.0101                28.3212                 4.2063

                     94                     95                     96
                      A                      A                      A
 Frequencies --   3187.0553              3194.8908              3203.8004
 Red. masses --      1.1017                 1.0897                 1.0910
 Frc consts  --      6.5930                 6.5533                 6.5982
 IR Inten    --      8.1691                14.3845                 7.1592

                     97                     98                     99
                      A                      A                      A
 Frequencies --   3208.1222              3216.0683              3262.9423
 Red. masses --      1.0931                 1.0960                 1.0924
 Frc consts  --      6.6285                 6.6789                 6.8528
 IR Inten    --     35.4665                12.8272                 0.7741

 - Thermochemistry -
 -------------------
 Temperature   298.150 Kelvin.  Pressure   1.00000 Atm.
 Atom     1 has atomic number  6 and mass  12.00000

 Molecular mass:   251.11576 amu.
 Principal axes and moments of inertia in atomic units:
                           1         2         3
     Eigenvalues --  1553.954109132.165299607.92801
           X            0.99997   0.00819   0.00162
           Y           -0.00820   0.99990   0.01136
           Z           -0.00152  -0.01137   0.99993
 This molecule is an asymmetric top.
 Rotational symmetry number  1.
 Warning -- assumption of classical behavior for rotation
           may cause significant error
 Rotational temperatures (Kelvin)      0.05574     0.00948     0.00901
 Rotational constants (GHZ):           1.16139     0.19762     0.18784
 Zero-point vibrational energy     769752.2 (Joules/Mol)
                                  183.97520 (Kcal/Mol)
 Warning -- explicit consideration of  24 degrees of freedom as
           vibrations may cause significant error
 Vibrational temperatures:     28.83    46.85    93.52    95.29   105.48
          (Kelvin)            159.03   214.75   234.92   248.51   328.52
                              349.32   362.49   420.91   437.57   520.65
                              533.22   562.58   588.45   606.19   653.77
                              741.21   757.29   789.92   875.05   912.90
                              939.25   954.16  1019.77  1069.92  1086.00
                             1119.86  1128.72  1172.60  1211.87  1256.91
                             1276.44  1315.10  1340.28  1381.70  1395.72
                             1416.95  1421.98  1442.52  1470.28  1483.50
                             1530.94  1573.44  1606.99  1609.06  1640.51
                             1653.66  1669.77  1682.83  1711.39  1719.44
                             1753.89  1757.00  1831.14  1863.63  1866.46
                             1948.09  1968.98  1975.10  1982.16  2001.84
                             2019.50  2035.42  2046.24  2070.46  2087.64
                             2143.49  2161.42  2166.34  2185.72  2190.55
                             2202.54  2220.85  2225.71  2234.17  2369.78
                             2396.25  2604.04  4379.80  4390.14  4403.08
                             4409.08  4441.90  4475.59  4504.03  4509.48
                             4515.82  4541.10  4583.24  4585.46  4596.74
                             4609.55  4615.77  4627.20  4694.65

 Zero-point correction=                           0.293183 (Hartree/Particle)
 Thermal correction to Energy=                    0.309621
 Thermal correction to Enthalpy=                  0.310565
 Thermal correction to Gibbs Free Energy=         0.247512
 Sum of electronic and zero-point Energies=           -861.048525
 Sum of electronic and thermal Energies=              -861.032087
 Sum of electronic and thermal Enthalpies=            -861.031143
 Sum of electronic and thermal Free Energies=         -861.094196

                     E (Thermal)             CV                S
                      KCal/Mol        Cal/Mol-Kelvin    Cal/Mol-Kelvin
 Total                  194.290             62.964            132.706
 Electronic               0.000              0.000              0.000
 Translational            0.889              2.981             42.463
 Rotational               0.889              2.981             33.277
 Vibrational            192.512             57.002             56.966
 Vibration     1          0.593              1.986              6.630
 Vibration     2          0.594              1.983              5.667
 Vibration     3          0.597              1.971              4.299
 Vibration     4          0.598              1.970              4.262
 Vibration     5          0.599              1.967              4.062
 Vibration     6          0.606              1.941              3.260
 Vibration     7          0.618              1.903              2.682
 Vibration     8          0.623              1.888              2.511
 Vibration     9          0.626              1.876              2.406
 Vibration    10          0.651              1.798              1.892
 Vibration    11          0.659              1.775              1.782
 Vibration    12          0.664              1.759              1.717
 Vibration    13          0.688              1.688              1.459
 Vibration    14          0.695              1.666              1.394
 Vibration    15          0.736              1.551              1.114
 Vibration    16          0.743              1.533              1.077
 Vibration    17          0.759              1.489              0.996
 Vibration    18          0.773              1.451              0.930
 Vibration    19          0.784              1.424              0.887
 Vibration    20          0.813              1.351              0.783
 Vibration    21          0.870              1.216              0.621
 Vibration    22          0.881              1.192              0.595
 Vibration    23          0.904              1.142              0.546
 Vibration    24          0.967              1.014              0.436

 Optimization completed.
    -- Stationary point found.
 Normal termination of Gaussian 16 at Fri Dec 11 21:03:46 2020.

 ----------------------------------------------------------------------
 # B3LYP/6-311++G(d,p) empiricaldispersion=gd3bj scf=xqc pop=npa geom=c
 heck
 ----------------------------------------------------------------------

 ---------------------------------------
 CID_154219608_JID_8421_Energie_neutraal
 ---------------------------------------
 Structure from the checkpoint file:  "JID_8421.chk"
 Charge =  0 Multiplicity = 1

 SCF Done:  E(RB3LYP) =  -861.582537278     A.U. after   15 cycles
 Normal termination of Gaussian 16 at Fri Dec 11 21:11:01 2020.

 ----------------------------------------------------------------------
 # B3LYP/6-311++G(d,p) empiricaldispersion=gd3bj scf=xqc pop=npa geom=c
 heck
 ----------------------------------------------------------------------

 -------------------------------------
 CID_154219608_JID_8421_Energie_kation
 -------------------------------------
 Structure from the checkpoint file:  "JID_8421.chk"
 Charge =  1 Multiplicity = 2

 SCF Done:  E(UB3LYP) =  -861.287620490     A.U. after   25 cycles
 Normal termination of Gaussian 16 at Fri Dec 11 21:28:13 2020.
 Gaussian 16:  ES64L-G16RevA.03 25-Dec-2016

 ----------------------------------------------------------------------
 # B3LYP/6-311++G(d,p) empiricaldispersion=gd3bj scf=xqc pop=npa geom=c
 heck
 ----------------------------------------------------------------------

 ------------------------------------
 CID_154219608_JID_8421_Energie_anion
 ------------------------------------
 Structure from the checkpoint file:  "JID_8421.chk"
 Charge = -1 Multiplicity = 2

                         Standard orientation:
 ---------------------------------------------------------------------
 Center     Atomic      Atomic             Coordinates (Angstroms)
 Number     Number       Type             X           Y           Z
 ---------------------------------------------------------------------
      1          6           0        3.324343    1.769066   -0.849592
      2          6           0        3.942995    0.398633   -0.574193
      3          6           0        4.289745    0.157538    0.900893
      4          6           0        3.026936   -0.188701    1.681383
      5          8           0        2.376151   -1.305337    1.063958
      6          6           0        2.064815   -1.097384   -0.269123
      7          8           0        3.114349   -0.681393   -1.064672
      8          8           0        1.016815   -0.096159   -0.368214
      9          6           0       -0.260894   -0.569668   -0.266717
     10          8           0       -0.539273   -1.748472   -0.165596
     11          7           0       -1.160796    0.473122   -0.312278
     12          6           0       -0.691391    1.856361   -0.406414
     13          6           0       -2.550862    0.235845   -0.097125
     14          6           0       -3.200509   -0.864835   -0.671920
     15          6           0       -4.566008   -1.046607   -0.468640
     16          6           0       -5.304627   -0.138498    0.292069
     17          6           0       -4.658663    0.958386    0.859187
     18          6           0       -3.289323    1.143919    0.672222
     19          1           0        2.472028    1.975347   -0.198335
     20          1           0        2.980499    1.818897   -1.886822
     21          1           0        4.077967    2.549903   -0.694469
     22          1           0        4.849703    0.302796   -1.178738
     23          1           0        4.986096   -0.684689    0.974556
     24          1           0        4.779026    1.042077    1.324847
     25          1           0        2.335109    0.661612    1.735167
     26          1           0        3.255018   -0.509997    2.699748
     27          1           0        1.687428   -2.036499   -0.663554
     28          1           0       -1.506252    2.469606   -0.794054
     29          1           0       -0.375578    2.256769    0.565609
     30          1           0        0.151821    1.910002   -1.093235
     31          1           0       -2.633801   -1.572807   -1.260316
     32          1           0       -5.057056   -1.904518   -0.919259
     33          1           0       -6.370245   -0.285554    0.440938
     34          1           0       -5.215471    1.672347    1.459594
     35          1           0       -2.794381    1.989411    1.138295
 ---------------------------------------------------------------------

 SCF Done:  E(UB3LYP) =  -861.573189595     A.U. after   33 cycles
 SCF Done:  E(UB3LYP) =  -861.573189595     a.u. after    1 cycles

 The electronic state is 2-A.
 Alpha  occ. eigenvalues --  -19.07408 -19.05271 -19.05198 -19.01064 -14.27072
 Alpha  occ. eigenvalues --  -10.23787 -10.23693 -10.14227 -10.13567 -10.13339
 Alpha  occ. eigenvalues --  -10.11392 -10.09359 -10.09314 -10.09082 -10.09056
 Alpha  occ. eigenvalues --  -10.08937 -10.08443 -10.06756  -1.04469  -0.99277
 Alpha  occ. eigenvalues --   -0.93735  -0.92422  -0.86944  -0.76965  -0.72353
 Alpha  occ. eigenvalues --   -0.67047  -0.66829  -0.64115  -0.62967  -0.60181
 Alpha  occ. eigenvalues --   -0.57383  -0.55179  -0.52741  -0.50298  -0.46905
 Alpha  occ. eigenvalues --   -0.45649  -0.43952  -0.42901  -0.41371  -0.40266
 Alpha  occ. eigenvalues --   -0.39684  -0.38217  -0.37298  -0.36498  -0.36106
 Alpha  occ. eigenvalues --   -0.35909  -0.34637  -0.33971  -0.33176  -0.32823
 Alpha  occ. eigenvalues --   -0.31871  -0.31015  -0.30642  -0.28977  -0.28221
 Alpha  occ. eigenvalues --   -0.27739  -0.26818  -0.26683  -0.25021  -0.24698
 Alpha  occ. eigenvalues --   -0.22338  -0.20855  -0.20522  -0.19553  -0.19018
 Alpha  occ. eigenvalues --   -0.17281  -0.14279   0.03821
 Alpha virt. eigenvalues --    0.05360   0.06425   0.06649   0.06836   0.07287
 Alpha virt. eigenvalues --    0.07451   0.08109   0.08798   0.09339   0.09537
 Alpha virt. eigenvalues --    0.10400   0.10561   0.11344   0.11868   0.12175

  Beta  occ. eigenvalues --  -19.07404 -19.05270 -19.05195 -19.01061 -14.27070
  Beta  occ. eigenvalues --  -10.23786 -10.23690 -10.14217 -10.13565 -10.13318
  Beta  occ. eigenvalues --  -10.11354 -10.09347 -10.09301 -10.09059 -10.09048
  Beta  occ. eigenvalues --  -10.08936 -10.08417 -10.06718  -1.04463  -0.99270
  Beta  occ. eigenvalues --   -0.93727  -0.92415  -0.86931  -0.76942  -0.72320
  Beta  occ. eigenvalues --   -0.67024  -0.66796  -0.64073  -0.62924  -0.60154
  Beta  occ. eigenvalues --   -0.57333  -0.55152  -0.52705  -0.50274  -0.46882
  Beta  occ. eigenvalues --   -0.45609  -0.43929  -0.42857  -0.41335  -0.40242
  Beta  occ. eigenvalues --   -0.39659  -0.38191  -0.37261  -0.36465  -0.36074
  Beta  occ. eigenvalues --   -0.35885  -0.34608  -0.33944  -0.33148  -0.32796
  Beta  occ. eigenvalues --   -0.31836  -0.30981  -0.30613  -0.28942  -0.28196
  Beta  occ. eigenvalues --   -0.27712  -0.26794  -0.26651  -0.24997  -0.24673
  Beta  occ. eigenvalues --   -0.22320  -0.20835  -0.20500  -0.19537  -0.19000
  Beta  occ. eigenvalues --   -0.17236  -0.14255
  Beta virt. eigenvalues --    0.05787   0.06347   0.06611   0.06852   0.07219
  Beta virt. eigenvalues --    0.07725   0.08014   0.08602   0.09270   0.09667
  Beta virt. eigenvalues --    0.10072   0.10691   0.10897   0.11656   0.12152

 Mulliken charges and spin densities:
               1          2
     1  C    1.216824  -1.845732
     2  C   -1.360241   1.537900
     3  C    0.979749  -1.343835
     4  C   -0.138732  -0.182021
     5  O   -0.088577   0.022446
     6  C    0.382002  -0.588825
     7  O   -0.053532   0.002357
     8  O   -0.111066   0.025001
     9  C   -0.129196   0.116056
    10  O   -0.290055  -0.001051
    11  N   -0.057482   0.123644
    12  C    0.802085  -1.241852
    13  C    0.249431  -0.743360
    14  C   -0.148834  -0.027970
    15  C   -0.276284   0.128099
    16  C    0.238135  -0.636183
    17  C   -0.195994   0.149767
    18  C   -0.062641   0.459570
    19  H   -0.068010   0.232978
    20  H    0.005646   0.160053
    21  H   -0.453093   0.605515
    22  H   -0.309593   0.532514
    23  H    0.103285   0.074737
    24  H   -0.561369   0.727298
    25  H    0.181765  -0.003755
    26  H   -0.223507   0.409509
    27  H    0.254828   0.006448
    28  H   -0.054807   0.214266
    29  H   -0.489248   0.688235
    30  H    0.183886   0.016439
    31  H    0.141353   0.055334
    32  H    0.056742   0.108710
    33  H   -0.052865   0.189045
    34  H   -0.440866   0.630137
    35  H   -0.229737   0.398530
 Sum of Mulliken charges =  -1.00000   1.00000

 Dipole moment (field-independent basis, Debye):
    X=             -2.7641    Y=             -4.4139    Z=             -2.8085  Tot=              5.9169
 Quadrupole moment (field-independent basis, Debye-Ang):
   XX=           -205.7849   YY=           -156.2421   ZZ=           -140.6994
   XY=             -6.1528   XZ=              2.7458   YZ=             -2.1921

 Summary of Natural Population Analysis:

                                       Natural Population
                Natural  -----------------------------------------------
    Atom  No    Charge         Core      Valence    Rydberg      Total
 -----------------------------------------------------------------------
      C    1   -0.29922      0.99964     2.29335    0.00623     3.29922
      C    2    0.06408      0.99955     1.92120    0.01517     2.93592
      C    3   -0.21744      0.99961     2.20877    0.00907     3.21744
      C    4   -0.01826      0.99957     2.00536    0.01333     3.01826
      O    5   -0.29271      0.99987     3.28542    0.00741     4.29271
      C    6    0.35520      0.99964     1.62251    0.02265     2.64480
      O    7   -0.29770      0.99987     3.28993    0.00790     4.29770
      O    8   -0.30384      0.99986     3.29638    0.00760     4.30384
      C    9    0.47107      0.99967     1.50373    0.02553     2.52893
      O   10   -0.32464      0.99987     3.32016    0.00461     4.32464
      N   11   -0.25511      0.99961     2.74557    0.00993     3.75511
      C   12   -0.17747      0.99963     2.16987    0.00796     3.17747
      C   13    0.08640      0.99947     1.90229    0.01184     2.91360
      C   14   -0.10182      0.99952     2.09397    0.00833     3.10182
      C   15   -0.09819      0.99957     2.08953    0.00909     3.09819
      C   16   -0.11194      0.99956     2.10179    0.01059     3.11194
      C   17   -0.09656      0.99957     2.08696    0.01004     3.09656
      C   18   -0.11218      0.99952     2.10341    0.00924     3.11218
      H   19    0.10283      0.00000     0.39508    0.00208     0.39717
      H   20    0.10392      0.00000     0.39498    0.00109     0.39608
      H   21    0.10397      0.00000     0.39421    0.00181     0.39603
      H   22    0.09322      0.00000     0.40536    0.00142     0.40678
      H   23    0.10172      0.00000     0.39711    0.00117     0.39828
      H   24    0.11056      0.00000     0.38727    0.00216     0.38944
      H   25    0.08845      0.00000     0.40974    0.00182     0.41155
      H   26    0.09533      0.00000     0.40346    0.00121     0.40467
      H   27    0.09466      0.00000     0.40409    0.00125     0.40534
      H   28    0.10107      0.00000     0.39774    0.00119     0.39893
      H   29    0.09830      0.00000     0.39965    0.00205     0.40170
      H   30    0.11031      0.00000     0.38834    0.00136     0.38969
      H   31    0.11452      0.00000     0.38450    0.00098     0.38548
      H   32    0.09940      0.00000     0.39989    0.00072     0.40060
      H   33    0.10033      0.00000     0.39889    0.00078     0.39967
      H   34    0.10290      0.00000     0.39592    0.00118     0.39710
      H   35    0.10884      0.00000     0.38954    0.00162     0.39116
 =======================================================================
   * Total *    0.00000     17.99358    48.78599    0.22043    67.00000

 Normal termination of Gaussian 16 at Fri Dec 11 21:51:13 2020.
