 Gaussian 16, Revision A.03,

 -----------------------------------------------------------
 # opt freq B3LYP/6-31G(d) empiricaldispersion=gd3bj scf=xqc
 -----------------------------------------------------------

 -----------------------------
 CID_90707333_JID_494_neutraal
 -----------------------------
 Symbolic Z-matrix:
 Charge =  0 Multiplicity = 1

 SCF Done:  E(RB3LYP) =  -440.022000620     A.U. after   13 cycles
 SCF Done:  E(RB3LYP) =  -440.027486337     A.U. after   12 cycles
 SCF Done:  E(RB3LYP) =  -440.028327669     A.U. after   12 cycles
 SCF Done:  E(RB3LYP) =  -440.028765604     A.U. after   12 cycles
 SCF Done:  E(RB3LYP) =  -440.029050719     A.U. after   12 cycles
 SCF Done:  E(RB3LYP) =  -440.029298216     A.U. after   12 cycles
 SCF Done:  E(RB3LYP) =  -440.029395725     A.U. after   11 cycles
 SCF Done:  E(RB3LYP) =  -440.029435897     A.U. after   10 cycles
 SCF Done:  E(RB3LYP) =  -440.029449598     A.U. after   10 cycles
 SCF Done:  E(RB3LYP) =  -440.029456795     A.U. after    9 cycles
 SCF Done:  E(RB3LYP) =  -440.029460702     A.U. after    9 cycles
 SCF Done:  E(RB3LYP) =  -440.029461221     A.U. after    8 cycles
 SCF Done:  E(RB3LYP) =  -440.029461382     A.U. after    8 cycles
 SCF Done:  E(RB3LYP) =  -440.029461441     A.U. after    7 cycles
 Optimization completed.
    -- Stationary point found.

 1\1\GINC-NODE101\FOpt\RB3LYP\6-31G(d)\C7H15N3\VSC10255\08-Dec-2020\0\\
 # opt freq B3LYP/6-31G(d) empiricaldispersion=gd3bj scf=xqc\\CID_90707
 333_JID_494_neutraal\\0,1\C,0.6968202982,-0.1615049327,-0.0573229617\C
 ,0.4418571262,-1.6439632221,-0.3428437421\C,0.9191153483,-2.5851003063
 ,0.7720336729\C,0.2928472741,-2.3058958159,2.1573061444\C,-1.204913421
 9,-2.2793657367,2.1546268276\N,-1.8723765978,-1.1764040806,2.134033978
 1\N,-3.2756690133,-1.5307575057,2.0597194383\C,-3.3312435612,-2.983985
 983,1.848409876\N,-1.9870874802,-3.4353456676,2.2108423688\C,-1.555256

 Normal termination of Gaussian 16 at Tue Dec  8 10:45:50 2020.

 --------------------------------------------------------------------
 #N Geom=AllCheck Guess=TCheck SCRF=Check GenChk RB3LYP/6-31G(d) Freq
 --------------------------------------------------------------------

 Structure from the checkpoint file:  "JID_494.chk"
 -----------------------------
 CID_90707333_JID_494_neutraal
 -----------------------------
 Charge =  0 Multiplicity = 1

 SCF Done:  E(RB3LYP) =  -440.029461441     A.U. after    1 cycles

  Exact polarizability: 102.741  -2.261  95.520  -5.314  -1.466  76.067
 Approx polarizability: 130.432  -2.197 148.214  -9.101  -1.824 112.498

                      1                      2                      3
                      A                      A                      A
 Frequencies --     40.2767                85.9866               108.9027
 Red. masses --      3.1902                 3.6830                 2.2335
 Frc consts  --      0.0030                 0.0160                 0.0156
 IR Inten    --      1.0466                 1.6915                 3.3997

                      4                      5                      6
                      A                      A                      A
 Frequencies --    145.7613               175.3359               209.5142
 Red. masses --      2.0969                 2.3901                 1.7174
 Frc consts  --      0.0262                 0.0433                 0.0444
 IR Inten    --      8.6515                 0.6177                 0.6500

                      7                      8                      9
                      A                      A                      A
 Frequencies --    241.4979               250.7505               284.2155
 Red. masses --      1.7680                 1.4398                 1.7629
 Frc consts  --      0.0608                 0.0533                 0.0839
 IR Inten    --      7.1837                 3.1632                 4.6751

                     10                     11                     12
                      A                      A                      A
 Frequencies --    317.6663               366.2868               409.9810
 Red. masses --      2.1333                 2.2181                 2.4160
 Frc consts  --      0.1268                 0.1753                 0.2393
 IR Inten    --      1.0691                 6.8008                 2.1131

                     13                     14                     15
                      A                      A                      A
 Frequencies --    474.7841               601.2858               661.7794
 Red. masses --      2.3022                 4.2155                 5.2523
 Frc consts  --      0.3058                 0.8980                 1.3553
 IR Inten    --      8.3784                15.3150                11.8801

                     16                     17                     18
                      A                      A                      A
 Frequencies --    699.0225               771.5433               804.5672
 Red. masses --      2.1190                 1.5135                 2.1772
 Frc consts  --      0.6101                 0.5308                 0.8304
 IR Inten    --     17.0257                16.9843               108.6930

                     19                     20                     21
                      A                      A                      A
 Frequencies --    819.2223               833.9305               906.7247
 Red. masses --      2.6069                 4.3217                 1.4471
 Frc consts  --      1.0308                 1.7708                 0.7010
 IR Inten    --      7.6486                 4.9633                 5.2824

                     22                     23                     24
                      A                      A                      A
 Frequencies --    951.6760               969.3402               988.5600
 Red. masses --      1.9866                 1.9022                 2.1166
 Frc consts  --      1.0601                 1.0531                 1.2187
 IR Inten    --      2.9487                 4.2409                 3.5230

                     25                     26                     27
                      A                      A                      A
 Frequencies --   1006.7115              1037.3269              1081.3515
 Red. masses --      2.3253                 2.6970                 1.8923
 Frc consts  --      1.3885                 1.7099                 1.3037
 IR Inten    --      8.0269                17.7559                 7.1726

                     28                     29                     30
                      A                      A                      A
 Frequencies --   1118.5938              1132.9614              1137.4261
 Red. masses --      1.6038                 1.6769                 1.4515
 Frc consts  --      1.1824                 1.2682                 1.1064
 IR Inten    --      3.3252                 6.3866                 0.8092

                     31                     32                     33
                      A                      A                      A
 Frequencies --   1176.8367              1193.5871              1237.3405
 Red. masses --      1.4820                 1.8922                 1.4693
 Frc consts  --      1.2093                 1.5883                 1.3254
 IR Inten    --     16.9524                12.3657                15.8952

                     34                     35                     36
                      A                      A                      A
 Frequencies --   1253.6132              1273.2910              1283.1180
 Red. masses --      1.5564                 1.4080                 2.9018
 Frc consts  --      1.4411                 1.3450                 2.8148
 IR Inten    --      5.6241                 0.6133                22.1667

                     37                     38                     39
                      A                      A                      A
 Frequencies --   1329.3542              1343.3468              1374.7786
 Red. masses --      1.3239                 1.3909                 1.4884
 Frc consts  --      1.3784                 1.4788                 1.6574
 IR Inten    --     25.7625                40.6617                 2.6088

                     40                     41                     42
                      A                      A                      A
 Frequencies --   1398.3653              1408.2901              1442.0449
 Red. masses --      1.3281                 1.4189                 1.2972
 Frc consts  --      1.5301                 1.6579                 1.5894
 IR Inten    --      3.3860                 1.5887                14.3588

                     43                     44                     45
                      A                      A                      A
 Frequencies --   1445.1939              1458.3867              1490.9417
 Red. masses --      1.1599                 1.7492                 1.2945
 Frc consts  --      1.4273                 2.1920                 1.6955
 IR Inten    --     21.7590                32.9050                 8.7720

                     46                     47                     48
                      A                      A                      A
 Frequencies --   1508.6850              1516.6253              1520.4053
 Red. masses --      1.0878                 1.0948                 1.0638
 Frc consts  --      1.4588                 1.4836                 1.4489
 IR Inten    --      2.6194                29.2448                 1.5912

                     49                     50                     51
                      A                      A                      A
 Frequencies --   1523.6676              1531.7945              1544.0217
 Red. masses --      1.0798                 1.0714                 1.0933
 Frc consts  --      1.4769                 1.4812                 1.5356
 IR Inten    --      9.8533                 4.0474                19.4928

                     52                     53                     54
                      A                      A                      A
 Frequencies --   1551.1919              1565.7281              1682.6920
 Red. masses --      1.0532                 1.1233                 8.2438
 Frc consts  --      1.4931                 1.6225                13.7526
 IR Inten    --      2.6948                 2.9865                62.9171

                     55                     56                     57
                      A                      A                      A
 Frequencies --   2929.2282              2978.3883              3036.0247
 Red. masses --      1.0751                 1.0587                 1.0616
 Frc consts  --      5.4352                 5.5333                 5.7653
 IR Inten    --     93.1835                76.3190                17.2695

                     58                     59                     60
                      A                      A                      A
 Frequencies --   3041.6746              3042.2232              3060.5666
 Red. masses --      1.0629                 1.0419                 1.0674
 Frc consts  --      5.7938                 5.6815                 5.8911
 IR Inten    --     34.6870                29.0829                28.1777

                     61                     62                     63
                      A                      A                      A
 Frequencies --   3071.4615              3074.0882              3081.5122
 Red. masses --      1.0980                 1.0904                 1.1014
 Frc consts  --      6.1030                 6.0712                 6.1618
 IR Inten    --     31.5878                46.8770                51.6852

                     64                     65                     66
                      A                      A                      A
 Frequencies --   3090.8472              3107.1356              3127.0381
 Red. masses --      1.0798                 1.0995                 1.0967
 Frc consts  --      6.0777                 6.2544                 6.3183
 IR Inten    --     38.0930                43.8581                24.6027

                     67                     68                     69
                      A                      A                      A
 Frequencies --   3137.4935              3150.2281              3470.4573
 Red. masses --      1.1001                 1.0989                 1.0761
 Frc consts  --      6.3803                 6.4255                 7.6358
 IR Inten    --     16.7208                15.5447                 1.7377

 - Thermochemistry -
 -------------------
 Temperature   298.150 Kelvin.  Pressure   1.00000 Atm.
 Atom     1 has atomic number  6 and mass  12.00000

 Molecular mass:   141.12660 amu.
 Principal axes and moments of inertia in atomic units:
                           1         2         3
     Eigenvalues --   900.323371865.000352323.28948
           X            0.99968   0.02479  -0.00506
           Y           -0.02481   0.99968  -0.00377
           Z            0.00497   0.00389   0.99998
 This molecule is an asymmetric top.
 Rotational symmetry number  1.
 Warning -- assumption of classical behavior for rotation
           may cause significant error
 Rotational temperatures (Kelvin)      0.09620     0.04644     0.03728
 Rotational constants (GHZ):           2.00455     0.96769     0.77680
 Zero-point vibrational energy     592657.8 (Joules/Mol)
                                  141.64862 (Kcal/Mol)
 Warning -- explicit consideration of  14 degrees of freedom as
           vibrations may cause significant error
 Vibrational temperatures:     57.95   123.72   156.69   209.72   252.27
          (Kelvin)            301.44   347.46   360.77   408.92   457.05
                              527.00   589.87   683.11   865.12   952.15
                             1005.74  1110.08  1157.59  1178.68  1199.84
                             1304.57  1369.25  1394.66  1422.32  1448.43
                             1492.48  1555.82  1609.41  1630.08  1636.50
                             1693.21  1717.31  1780.26  1803.67  1831.98
                             1846.12  1912.64  1932.78  1978.00  2011.94
                             2026.22  2074.78  2079.31  2098.29  2145.13
                             2170.66  2182.09  2187.52  2192.22  2203.91
                             2221.50  2231.82  2252.73  2421.02  4214.51
                             4285.24  4368.16  4376.29  4377.08  4403.47
                             4419.15  4422.93  4433.61  4447.04  4470.48
                             4499.11  4514.15  4532.48  4993.21

 Zero-point correction=                           0.225731 (Hartree/Particle)
 Thermal correction to Energy=                    0.236642
 Thermal correction to Enthalpy=                  0.237586
 Thermal correction to Gibbs Free Energy=         0.188999
 Sum of electronic and zero-point Energies=           -439.803730
 Sum of electronic and thermal Energies=              -439.792820
 Sum of electronic and thermal Enthalpies=            -439.791876
 Sum of electronic and thermal Free Energies=         -439.840462

                     E (Thermal)             CV                S
                      KCal/Mol        Cal/Mol-Kelvin    Cal/Mol-Kelvin
 Total                  148.495             40.058            102.259
 Electronic               0.000              0.000              0.000
 Translational            0.889              2.981             40.745
 Rotational               0.889              2.981             29.746
 Vibrational            146.717             34.097             31.768
 Vibration     1          0.594              1.981              5.245
 Vibration     2          0.601              1.959              3.749
 Vibration     3          0.606              1.942              3.288
 Vibration     4          0.617              1.907              2.727
 Vibration     5          0.627              1.873              2.378
 Vibration     6          0.642              1.826              2.048
 Vibration     7          0.658              1.777              1.792
 Vibration     8          0.663              1.762              1.725
 Vibration     9          0.683              1.703              1.508
 Vibration    10          0.704              1.640              1.322
 Vibration    11          0.739              1.542              1.095
 Vibration    12          0.774              1.449              0.927
 Vibration    13          0.831              1.306              0.724
 Vibration    14          0.960              1.029              0.447

 Optimization completed.
    -- Stationary point found.

 1\1\GINC-NODE101\Freq\RB3LYP\6-31G(d)\C7H15N3\VSC10255\08-Dec-2020\0\\
 #N Geom=AllCheck Guess=TCheck SCRF=Check GenChk RB3LYP/6-31G(d) Freq\\
 CID_90707333_JID_494_neutraal\\0,1\C,0.6968202982,-0.1615049327,-0.057
 3229617\C,0.4418571262,-1.6439632221,-0.3428437421\C,0.9191153483,-2.5
 851003063,0.7720336729\C,0.2928472741,-2.3058958159,2.1573061444\C,-1.
 2049134219,-2.2793657367,2.1546268276\N,-1.8723765978,-1.1764040806,2.
 1340339781\N,-3.2756690133,-1.5307575057,2.0597194383\C,-3.3312435612,
 -2.983985983,1.848409876\N,-1.9870874802,-3.4353456676,2.2108423688\C,

 Normal termination of Gaussian 16 at Tue Dec  8 10:50:59 2020.

 ----------------------------------------------------------------------
 # B3LYP/6-311++G(d,p) empiricaldispersion=gd3bj scf=xqc pop=npa geom=c
 heck
 ----------------------------------------------------------------------

 -------------------------------------
 CID_90707333_JID_494_Energie_neutraal
 -------------------------------------
 Structure from the checkpoint file:  "JID_494.chk"
 Charge =  0 Multiplicity = 1

 SCF Done:  E(RB3LYP) =  -440.154231289     A.U. after   13 cycles
 Normal termination of Gaussian 16 at Tue Dec  8 10:55:36 2020.

 ----------------------------------------------------------------------
 # B3LYP/6-311++G(d,p) empiricaldispersion=gd3bj scf=xqc pop=npa geom=c
 heck
 ----------------------------------------------------------------------

 -----------------------------------
 CID_90707333_JID_494_Energie_kation
 -----------------------------------
 Structure from the checkpoint file:  "JID_494.chk"
 Charge =  1 Multiplicity = 2

 SCF Done:  E(UB3LYP) =  -439.877156327     A.U. after   18 cycles
 Normal termination of Gaussian 16 at Tue Dec  8 11:00:53 2020.
 Gaussian 16:  ES64L-G16RevA.03 25-Dec-2016

 ----------------------------------
 CID_90707333_JID_494_Energie_anion
 ----------------------------------
 Structure from the checkpoint file:  "JID_494.chk"
 Charge = -1 Multiplicity = 2

                         Standard orientation:
 ---------------------------------------------------------------------
 Center     Atomic      Atomic             Coordinates (Angstroms)
 Number     Number       Type             X           Y           Z
 ---------------------------------------------------------------------
      1          6           0       -2.935470   -1.048696   -0.280498
      2          6           0       -2.212868    0.149094   -0.902876
      3          6           0       -1.715090    1.178462    0.121372
      4          6           0       -0.750903    0.607535    1.186047
      5          6           0        0.429658   -0.115446    0.613707
      6          7           0        0.476317   -1.401666    0.536792
      7          7           0        1.715822   -1.742218   -0.132513
      8          6           0        2.298349   -0.478825   -0.605920
      9          7           0        1.575779    0.539712    0.157175
     10          6           0        1.579799    1.892190   -0.355477
     11          1           0       -2.240081   -1.666863    0.294862
     12          1           0       -3.377460   -1.682570   -1.057094
     13          1           0       -3.745492   -0.722074    0.384677
     14          1           0       -1.363238   -0.215988   -1.493627
     15          1           0       -2.881579    0.663981   -1.605194
     16          1           0       -1.232491    2.008005   -0.409996
     17          1           0       -2.573938    1.611217    0.651742
     18          1           0       -0.401687    1.418091    1.837704
     19          1           0       -1.283256   -0.107136    1.818529
     20          1           0        2.306297   -2.172612    0.578691
     21          1           0        2.101716   -0.351397   -1.688152
     22          1           0        3.381212   -0.432663   -0.444021
     23          1           0        1.184577    1.955125   -1.384405
     24          1           0        0.983944    2.541637    0.289016
     25          1           0        2.605193    2.276570   -0.361037
 ---------------------------------------------------------------------

 SCF Done:  E(UB3LYP) =  -440.140462546     A.U. after   29 cycles

 The electronic state is 2-A.
 Alpha  occ. eigenvalues --  -14.22633 -14.22267 -14.20126 -10.12425 -10.12191
 Alpha  occ. eigenvalues --  -10.08964 -10.07361 -10.06443 -10.05983 -10.05261
 Alpha  occ. eigenvalues --   -0.91488  -0.79597  -0.72664  -0.68559  -0.62554
 Alpha  occ. eigenvalues --   -0.60352  -0.55314  -0.53447  -0.47921  -0.43875
 Alpha  occ. eigenvalues --   -0.41144  -0.38799  -0.36845  -0.35505  -0.34365
 Alpha  occ. eigenvalues --   -0.33209  -0.31696  -0.29772  -0.29328  -0.28248
 Alpha  occ. eigenvalues --   -0.27879  -0.26405  -0.24353  -0.22646  -0.22445
 Alpha  occ. eigenvalues --   -0.21484  -0.19455  -0.15839  -0.09296   0.04657
 Alpha virt. eigenvalues --    0.06936   0.07898   0.08251   0.09428   0.09973
 Alpha virt. eigenvalues --    0.10142   0.11076   0.11247   0.12546   0.12626
 Alpha virt. eigenvalues --    0.13191   0.13561   0.14184   0.14419   0.16143

  Beta  occ. eigenvalues --  -14.22636 -14.22258 -14.20088 -10.12424 -10.12160
  Beta  occ. eigenvalues --  -10.08896 -10.07345 -10.06415 -10.05969 -10.05252
  Beta  occ. eigenvalues --   -0.91460  -0.79571  -0.72630  -0.68523  -0.62517
  Beta  occ. eigenvalues --   -0.60264  -0.55269  -0.53379  -0.47864  -0.43819
  Beta  occ. eigenvalues --   -0.41099  -0.38733  -0.36785  -0.35479  -0.34322
  Beta  occ. eigenvalues --   -0.33153  -0.31656  -0.29720  -0.29297  -0.28221
  Beta  occ. eigenvalues --   -0.27827  -0.26372  -0.24292  -0.22612  -0.22417
  Beta  occ. eigenvalues --   -0.21418  -0.19416  -0.15805  -0.09218
  Beta virt. eigenvalues --    0.07149   0.07880   0.08580   0.08843   0.09981
  Beta virt. eigenvalues --    0.10597   0.10615   0.11566   0.11775   0.12818
  Beta virt. eigenvalues --    0.13193   0.13564   0.13898   0.14357   0.14757

 Mulliken charges and spin densities:
               1          2
     1  C    0.067009  -0.755133
     2  C   -0.347138   0.206761
     3  C    0.707883  -0.791845
     4  C   -0.184584  -0.177396
     5  C    0.148044  -0.407082
     6  N   -0.205668   0.115967
     7  N   -0.224949   0.039211
     8  C    0.533195  -0.846250
     9  N   -0.385173   0.450011
    10  C    1.678202  -2.085202
    11  H    0.099681   0.081609
    12  H    0.076154   0.038544
    13  H    0.005219   0.116475
    14  H    0.089585   0.064619
    15  H   -0.363557   0.518486
    16  H    0.082164   0.048213
    17  H   -0.549883   0.727934
    18  H   -0.382456   0.582928
    19  H    0.183299  -0.017365
    20  H    0.169078   0.073345
    21  H   -0.018282   0.173493
    22  H   -0.545848   0.732699
    23  H   -0.448487   0.599425
    24  H   -0.589432   0.744554
    25  H   -0.594055   0.766000
 Sum of Mulliken charges =  -1.00000   1.00000

 Dipole moment (field-independent basis, Debye):
    X=             -2.2698    Y=             -5.0767    Z=              0.8498  Tot=              5.6256
 Quadrupole moment (field-independent basis, Debye-Ang):
   XX=           -119.9542   YY=           -112.5285   ZZ=            -93.1188
   XY=             -4.8570   XZ=              2.3828   YZ=             -0.8456

 Summary of Natural Population Analysis:

                                       Natural Population
                Natural  -----------------------------------------------
    Atom  No    Charge         Core      Valence    Rydberg      Total
 -----------------------------------------------------------------------
      C    1   -0.29019      0.99966     2.28617    0.00436     3.29019
      C    2   -0.19278      0.99964     2.18467    0.00847     3.19278
      C    3   -0.18414      0.99962     2.17544    0.00908     3.18414
      C    4   -0.21630      0.99958     2.20660    0.01012     3.21630
      C    5    0.21656      0.99958     1.76461    0.01925     2.78344
      N    6   -0.18203      0.99965     2.67090    0.01147     3.68203
      N    7   -0.25383      0.99975     2.74045    0.01363     3.75383
      C    8    0.01073      0.99964     1.97674    0.01289     2.98927
      N    9   -0.26729      0.99965     2.75326    0.01438     3.76729
      C   10   -0.17773      0.99963     2.16830    0.00980     3.17773
      H   11    0.10702      0.00000     0.39159    0.00140     0.39298
      H   12    0.09509      0.00000     0.40414    0.00077     0.40491
      H   13    0.09131      0.00000     0.40767    0.00102     0.40869
      H   14    0.09717      0.00000     0.40140    0.00143     0.40283
      H   15    0.09492      0.00000     0.40393    0.00115     0.40508
      H   16    0.10042      0.00000     0.39756    0.00201     0.39958
      H   17    0.09660      0.00000     0.40170    0.00170     0.40340
      H   18    0.11041      0.00000     0.38803    0.00155     0.38959
      H   19    0.10981      0.00000     0.38879    0.00140     0.39019
      H   20    0.16989      0.00000     0.32792    0.00219     0.33011
      H   21    0.07582      0.00000     0.42245    0.00173     0.42418
      H   22    0.09399      0.00000     0.40396    0.00205     0.40601
      H   23    0.08831      0.00000     0.40913    0.00256     0.41169
      H   24    0.10412      0.00000     0.39329    0.00259     0.39588
      H   25    0.10212      0.00000     0.39426    0.00362     0.39788
 =======================================================================
   * Total *    0.00000      9.99641    28.86297    0.14062    39.00000

 Normal termination of Gaussian 16 at Tue Dec  8 11:08:05 2020.
