 Gaussian 16, Revision A.03,

 -----------------------------------------------------------
 # opt freq B3LYP/6-31G(d) empiricaldispersion=gd3bj scf=xqc
 -----------------------------------------------------------

 -------------------------------
 CID_137226477_JID_3697_neutraal
 -------------------------------
 Symbolic Z-matrix:
 Charge =  0 Multiplicity = 1

 SCF Done:  E(RB3LYP) =  -585.221017972     A.U. after   15 cycles
 SCF Done:  E(RB3LYP) =  -585.225856996     A.U. after   13 cycles
 SCF Done:  E(RB3LYP) =  -585.226826918     A.U. after   12 cycles
 SCF Done:  E(RB3LYP) =  -585.227158857     A.U. after   12 cycles
 SCF Done:  E(RB3LYP) =  -585.227323065     A.U. after   12 cycles
 SCF Done:  E(RB3LYP) =  -585.227392483     A.U. after   11 cycles
 SCF Done:  E(RB3LYP) =  -585.227455181     A.U. after   11 cycles
 SCF Done:  E(RB3LYP) =  -585.227463168     A.U. after   10 cycles
 SCF Done:  E(RB3LYP) =  -585.227466945     A.U. after    9 cycles
 SCF Done:  E(RB3LYP) =  -585.227469751     A.U. after    9 cycles
 SCF Done:  E(RB3LYP) =  -585.227530521     A.U. after   11 cycles
 SCF Done:  E(RB3LYP) =  -585.227528562     A.U. after   11 cycles
 SCF Done:  E(RB3LYP) =  -585.227533584     A.U. after   10 cycles
 SCF Done:  E(RB3LYP) =  -585.227533966     A.U. after    8 cycles
 SCF Done:  E(RB3LYP) =  -585.227533906     A.U. after    9 cycles
 SCF Done:  E(RB3LYP) =  -585.227534078     A.U. after    8 cycles
 Optimization completed.
    -- Stationary point found.

 1\1\GINC-NODE220\FOpt\RB3LYP\6-31G(d)\C8H11N5\VSC10255\14-Dec-2020\0\\
 # opt freq B3LYP/6-31G(d) empiricaldispersion=gd3bj scf=xqc\\CID_13722
 6477_JID_3697_neutraal\\0,1\C,0.7999683685,0.0061129542,-0.0422917231\
 C,0.325669988,0.91906666,-1.1738071062\C,0.6161703314,0.2463604378,-2.
 5268988299\N,0.1054855034,1.0627635145,-3.6255613419\C,0.5153585766,2.
 3863658357,-3.5361274602\N,0.5669978645,3.2474218343,-4.543476033\N,1.
 0233675249,4.39495373,-3.9914452811\C,1.1946669945,4.2916723996,-2.620
 1475632\C,0.9055789451,2.9645354375,-2.2938217691\N,0.996750627,2.2353

 Normal termination of Gaussian 16 at Mon Dec 14 16:36:14 2020.

 --------------------------------------------------------------------
 #N Geom=AllCheck Guess=TCheck SCRF=Check GenChk RB3LYP/6-31G(d) Freq
 --------------------------------------------------------------------

 Structure from the checkpoint file:  "JID_3697.chk"
 -------------------------------
 CID_137226477_JID_3697_neutraal
 -------------------------------
 Charge =  0 Multiplicity = 1

 SCF Done:  E(RB3LYP) =  -585.227534078     A.U. after    1 cycles

  Exact polarizability: 154.039  -8.895 121.654  -1.975   0.214  64.362
 Approx polarizability: 236.157 -23.296 198.691  -6.971   4.712 100.050

                      1                      2                      3
                      A                      A                      A
 Frequencies --     48.7351                95.9212               129.2084
 Red. masses --      3.4315                 4.8981                 4.9732
 Frc consts  --      0.0048                 0.0266                 0.0489
 IR Inten    --      1.3900                 2.1746                 2.2036

                      4                      5                      6
                      A                      A                      A
 Frequencies --    139.1242               164.6660               204.1473
 Red. masses --      1.6015                 2.2104                 2.6831
 Frc consts  --      0.0183                 0.0353                 0.0659
 IR Inten    --      2.6805                12.0475                 7.0228

                      7                      8                      9
                      A                      A                      A
 Frequencies --    219.2276               247.2808               303.8614
 Red. masses --      1.2504                 1.6203                 3.8731
 Frc consts  --      0.0354                 0.0584                 0.2107
 IR Inten    --      3.2409               147.8329                18.7404

                     10                     11                     12
                      A                      A                      A
 Frequencies --    314.0488               379.4221               391.6877
 Red. masses --      3.5811                 2.8453                 2.4826
 Frc consts  --      0.2081                 0.2413                 0.2244
 IR Inten    --      9.1746                10.8569                22.6055

                     13                     14                     15
                      A                      A                      A
 Frequencies --    411.2524               432.2812               480.5345
 Red. masses --      3.3154                 4.7034                 3.0822
 Frc consts  --      0.3304                 0.5178                 0.4193
 IR Inten    --     15.5674                 1.9817                 3.0573

                     16                     17                     18
                      A                      A                      A
 Frequencies --    499.3778               524.9569               544.2277
 Red. masses --      5.6098                 3.0159                 4.2491
 Frc consts  --      0.8242                 0.4897                 0.7415
 IR Inten    --     11.2120                12.4441                20.6344

                     19                     20                     21
                      A                      A                      A
 Frequencies --    621.6079               631.8416               648.8700
 Red. masses --      3.9398                 4.8775                 3.0168
 Frc consts  --      0.8969                 1.1473                 0.7484
 IR Inten    --      9.1867                20.6470                38.1218

                     22                     23                     24
                      A                      A                      A
 Frequencies --    702.5215               729.3444               797.6968
 Red. masses --      4.0834                10.0011                 3.0940
 Frc consts  --      1.1874                 3.1345                 1.1600
 IR Inten    --     12.8257                 8.8024                32.0217

                     25                     26                     27
                      A                      A                      A
 Frequencies --    895.5753               936.3758               964.2391
 Red. masses --      2.3784                 2.0045                 1.5522
 Frc consts  --      1.1239                 1.0355                 0.8503
 IR Inten    --     18.7682                17.6055                 3.3376

                     28                     29                     30
                      A                      A                      A
 Frequencies --   1058.4387              1097.1678              1113.0989
 Red. masses --      3.6140                 2.4054                 2.5099
 Frc consts  --      2.3854                 1.7060                 1.8322
 IR Inten    --     14.6600                16.6536                 8.6162

                     31                     32                     33
                      A                      A                      A
 Frequencies --   1123.3920              1142.1601              1164.5952
 Red. masses --      2.0779                 2.5316                 1.5868
 Frc consts  --      1.5450                 1.9458                 1.2680
 IR Inten    --     12.0960                 3.5598                20.8525

                     34                     35                     36
                      A                      A                      A
 Frequencies --   1173.7032              1204.8722              1252.8637
 Red. masses --      1.9576                 3.7442                 3.1945
 Frc consts  --      1.5889                 3.2025                 2.9544
 IR Inten    --     43.6583                39.3871                12.0006

                     37                     38                     39
                      A                      A                      A
 Frequencies --   1257.1336              1296.8159              1319.9735
 Red. masses --      2.0999                 1.5696                 1.7845
 Frc consts  --      1.9553                 1.5552                 1.8319
 IR Inten    --     95.2681                33.3225                 5.1059

                     40                     41                     42
                      A                      A                      A
 Frequencies --   1362.7497              1390.1532              1396.5158
 Red. masses --      1.9400                 1.4507                 1.5268
 Frc consts  --      2.1226                 1.6518                 1.7544
 IR Inten    --     63.9909                 6.4447                61.7256

                     43                     44                     45
                      A                      A                      A
 Frequencies --   1437.9876              1449.3749              1481.2846
 Red. masses --      1.3481                 1.7077                 1.8146
 Frc consts  --      1.6424                 2.1136                 2.3458
 IR Inten    --      5.5957                23.1952                 3.4349

                     46                     47                     48
                      A                      A                      A
 Frequencies --   1490.0378              1517.8177              1519.1990
 Red. masses --      1.3818                 1.3248                 1.8356
 Frc consts  --      1.8076                 1.7982                 2.4961
 IR Inten    --     23.2694                 3.4033                 1.5785

                     49                     50                     51
                      A                      A                      A
 Frequencies --   1525.4571              1531.1360              1536.1643
 Red. masses --      1.0794                 1.1282                 1.0992
 Frc consts  --      1.4799                 1.5584                 1.5283
 IR Inten    --      7.2318                21.4311                 5.2348

                     52                     53                     54
                      A                      A                      A
 Frequencies --   1549.3698              1608.3761              1656.3615
 Red. masses --      1.0496                 5.7994                 6.2789
 Frc consts  --      1.4844                 8.8392                10.1494
 IR Inten    --      8.2501               304.4532                22.0828

                     55                     56                     57
                      A                      A                      A
 Frequencies --   2329.9921              2975.0017              2994.1396
 Red. masses --     12.6472                 1.0807                 1.0614
 Frc consts  --     40.4534                 5.6357                 5.6064
 IR Inten    --    110.4671                30.4844                36.2487

                     58                     59                     60
                      A                      A                      A
 Frequencies --   2995.3946              3063.6765              3109.9303
 Red. masses --      1.0721                 1.0369                 1.0926
 Frc consts  --      5.6673                 5.7341                 6.2262
 IR Inten    --    107.1455                16.3760                23.8789

                     61                     62                     63
                      A                      A                      A
 Frequencies --   3131.8498              3134.5784              3146.5238
 Red. masses --      1.1008                 1.0823                 1.0949
 Frc consts  --      6.3613                 6.2655                 6.3866
 IR Inten    --     28.1567                25.9236                22.5108

                     64                     65                     66
                      A                      A                      A
 Frequencies --   3177.0273              3571.0324              3671.3959
 Red. masses --      1.1033                 1.0755                 1.0811
 Frc consts  --      6.5610                 8.0806                 8.5855
 IR Inten    --      9.5402                12.6407               118.2886

 - Thermochemistry -
 -------------------
 Temperature   298.150 Kelvin.  Pressure   1.00000 Atm.
 Atom     1 has atomic number  6 and mass  12.00000

 Molecular mass:   177.10145 amu.
 Principal axes and moments of inertia in atomic units:
                           1         2         3
     Eigenvalues --  1431.091672503.630663832.47697
           X            0.99898   0.04476   0.00581
           Y           -0.04470   0.99895  -0.00955
           Z           -0.00623   0.00928   0.99994
 This molecule is an asymmetric top.
 Rotational symmetry number  1.
 Warning -- assumption of classical behavior for rotation
           may cause significant error
 Rotational temperatures (Kelvin)      0.06052     0.03460     0.02260
 Rotational constants (GHZ):           1.26109     0.72085     0.47091
 Zero-point vibrational energy     516875.1 (Joules/Mol)
                                  123.53612 (Kcal/Mol)
 Warning -- explicit consideration of  18 degrees of freedom as
           vibrations may cause significant error
 Vibrational temperatures:     70.12   138.01   185.90   200.17   236.92
          (Kelvin)            293.72   315.42   355.78   437.19   451.85
                              545.90   563.55   591.70   621.96   691.38
                              718.49   755.30   783.02   894.36   909.08
                              933.58  1010.77  1049.36  1147.71  1288.53
                             1347.24  1387.33  1522.86  1578.58  1601.50
                             1616.31  1643.31  1675.59  1688.70  1733.54
                             1802.59  1808.73  1865.83  1899.15  1960.69
                             2000.12  2009.27  2068.94  2085.33  2131.24
                             2143.83  2183.80  2185.79  2194.79  2202.96
                             2210.20  2229.20  2314.09  2383.13  3352.34
                             4280.36  4307.90  4309.70  4407.95  4474.50
                             4506.03  4509.96  4527.15  4571.03  5137.92
                             5282.32

 Zero-point correction=                           0.196867 (Hartree/Particle)
 Thermal correction to Energy=                    0.208890
 Thermal correction to Enthalpy=                  0.209834
 Thermal correction to Gibbs Free Energy=         0.158967
 Sum of electronic and zero-point Energies=           -585.030667
 Sum of electronic and thermal Energies=              -585.018644
 Sum of electronic and thermal Enthalpies=            -585.017700
 Sum of electronic and thermal Free Energies=         -585.068567

                     E (Thermal)             CV                S
                      KCal/Mol        Cal/Mol-Kelvin    Cal/Mol-Kelvin
 Total                  131.080             45.433            107.058
 Electronic               0.000              0.000              0.000
 Translational            0.889              2.981             41.422
 Rotational               0.889              2.981             30.997
 Vibrational            129.303             39.471             34.640
 Vibration     1          0.595              1.978              4.868
 Vibration     2          0.603              1.952              3.536
 Vibration     3          0.612              1.924              2.958
 Vibration     4          0.615              1.914              2.816
 Vibration     5          0.623              1.886              2.496
 Vibration     6          0.640              1.834              2.095
 Vibration     7          0.647              1.812              1.965
 Vibration     8          0.661              1.767              1.750
 Vibration     9          0.695              1.666              1.396
 Vibration    10          0.702              1.647              1.341
 Vibration    11          0.749              1.514              1.041
 Vibration    12          0.759              1.488              0.994
 Vibration    13          0.775              1.446              0.922
 Vibration    14          0.793              1.400              0.851
 Vibration    15          0.837              1.293              0.709
 Vibration    16          0.855              1.251              0.660
 Vibration    17          0.880              1.195              0.599
 Vibration    18          0.899              1.152              0.556

 Optimization completed.
    -- Stationary point found.

 1\1\GINC-NODE220\Freq\RB3LYP\6-31G(d)\C8H11N5\VSC10255\14-Dec-2020\0\\
 #N Geom=AllCheck Guess=TCheck SCRF=Check GenChk RB3LYP/6-31G(d) Freq\\
 CID_137226477_JID_3697_neutraal\\0,1\C,0.7999683685,0.0061129542,-0.04
 22917231\C,0.325669988,0.91906666,-1.1738071062\C,0.6161703314,0.24636
 04378,-2.5268988299\N,0.1054855034,1.0627635145,-3.6255613419\C,0.5153
 585766,2.3863658357,-3.5361274602\N,0.5669978645,3.2474218343,-4.54347
 6033\N,1.0233675249,4.39495373,-3.9914452811\C,1.1946669945,4.29167239
 96,-2.6201475632\C,0.9055789451,2.9645354375,-2.2938217691\N,0.9967506

 Normal termination of Gaussian 16 at Mon Dec 14 16:42:05 2020.

 ----------------------------------------------------------------------
 # B3LYP/6-311++G(d,p) empiricaldispersion=gd3bj scf=xqc pop=npa geom=c
 heck
 ----------------------------------------------------------------------

 ---------------------------------------
 CID_137226477_JID_3697_Energie_neutraal
 ---------------------------------------
 Structure from the checkpoint file:  "JID_3697.chk"
 Charge =  0 Multiplicity = 1

 SCF Done:  E(RB3LYP) =  -585.389025303     A.U. after   16 cycles
 Normal termination of Gaussian 16 at Mon Dec 14 16:44:41 2020.

 ----------------------------------------------------------------------
 # B3LYP/6-311++G(d,p) empiricaldispersion=gd3bj scf=xqc pop=npa geom=c
 heck
 ----------------------------------------------------------------------

 -------------------------------------
 CID_137226477_JID_3697_Energie_kation
 -------------------------------------
 Structure from the checkpoint file:  "JID_3697.chk"
 Charge =  1 Multiplicity = 2

 SCF Done:  E(UB3LYP) =  -585.118899866     A.U. after   23 cycles
 Normal termination of Gaussian 16 at Mon Dec 14 16:50:00 2020.
 Gaussian 16:  ES64L-G16RevA.03 25-Dec-2016

 ------------------------------------
 CID_137226477_JID_3697_Energie_anion
 ------------------------------------
 Structure from the checkpoint file:  "JID_3697.chk"
 Charge = -1 Multiplicity = 2

                         Standard orientation:
 ---------------------------------------------------------------------
 Center     Atomic      Atomic             Coordinates (Angstroms)
 Number     Number       Type             X           Y           Z
 ---------------------------------------------------------------------
      1          6           0       -3.065292   -1.385754   -0.238039
      2          6           0       -1.996093   -0.417969    0.270857
      3          6           0       -2.246779    0.977940   -0.326115
      4          7           0       -1.284120    1.941808    0.201729
      5          6           0        0.025661    1.493000    0.097035
      6          7           0        1.106736    2.261177    0.101216
      7          7           0        2.141232    1.399053   -0.026855
      8          6           0        1.729660    0.075833   -0.039702
      9          6           0        0.333636    0.105315    0.000291
     10          7           0       -0.639887   -0.881829   -0.092317
     11          6           0       -0.265599   -2.212843    0.371260
     12          6           0        2.658752   -0.979622   -0.142637
     13          7           0        3.441167   -1.840954   -0.221460
     14          1           0       -4.059994   -0.962629   -0.064459
     15          1           0       -3.030005   -2.349200    0.276210
     16          1           0       -2.942637   -1.561227   -1.312186
     17          1           0       -2.077092   -0.329719    1.367886
     18          1           0       -2.210638    0.897647   -1.425266
     19          1           0       -3.251733    1.300764   -0.040547
     20          1           0       -1.413110    2.895034   -0.118351
     21          1           0        3.073755    1.724213    0.175457
     22          1           0        0.702103   -2.489583   -0.048973
     23          1           0       -0.195719   -2.268624    1.470418
     24          1           0       -0.994496   -2.946851    0.025923
 ---------------------------------------------------------------------

 SCF Done:  E(UB3LYP) =  -585.381232759     A.U. after   32 cycles

 The electronic state is 2-A.
 Alpha  occ. eigenvalues --  -14.26384 -14.22587 -14.21578 -14.21536 -14.19153
 Alpha  occ. eigenvalues --  -10.11365 -10.11150 -10.10811 -10.10010 -10.09634
 Alpha  occ. eigenvalues --  -10.09439 -10.08962 -10.05939  -0.93757  -0.85469
 Alpha  occ. eigenvalues --   -0.81652  -0.79010  -0.70786  -0.69172  -0.65245
 Alpha  occ. eigenvalues --   -0.60215  -0.56954  -0.53037  -0.51049  -0.47724
 Alpha  occ. eigenvalues --   -0.44106  -0.41545  -0.38903  -0.37689  -0.36906
 Alpha  occ. eigenvalues --   -0.34451  -0.33519  -0.32624  -0.31057  -0.30606
 Alpha  occ. eigenvalues --   -0.28550  -0.27183  -0.26462  -0.25590  -0.25016
 Alpha  occ. eigenvalues --   -0.24367  -0.22610  -0.21006  -0.19105  -0.18387
 Alpha  occ. eigenvalues --   -0.11807  -0.08241   0.04592
 Alpha virt. eigenvalues --    0.06720   0.07379   0.08397   0.08904   0.09314
 Alpha virt. eigenvalues --    0.10764   0.11031   0.11875   0.12345   0.12743
 Alpha virt. eigenvalues --    0.13177   0.13951   0.15340   0.16077   0.16345

  Beta  occ. eigenvalues --  -14.26227 -14.22607 -14.21527 -14.21432 -14.18964
  Beta  occ. eigenvalues --  -10.11405 -10.11065 -10.10794 -10.09985 -10.09521
  Beta  occ. eigenvalues --  -10.09403 -10.08937 -10.05894  -0.93535  -0.85416
  Beta  occ. eigenvalues --   -0.81621  -0.78728  -0.70571  -0.68994  -0.65135
  Beta  occ. eigenvalues --   -0.60096  -0.56867  -0.52735  -0.50964  -0.47612
  Beta  occ. eigenvalues --   -0.44030  -0.41445  -0.38831  -0.37609  -0.36846
  Beta  occ. eigenvalues --   -0.34081  -0.33423  -0.32519  -0.30936  -0.30510
  Beta  occ. eigenvalues --   -0.28486  -0.27089  -0.26408  -0.25279  -0.24412
  Beta  occ. eigenvalues --   -0.24154  -0.22478  -0.20624  -0.18904  -0.18068
  Beta  occ. eigenvalues --   -0.11126  -0.07847
  Beta virt. eigenvalues --    0.07382   0.08187   0.08415   0.08621   0.09408
  Beta virt. eigenvalues --    0.09974   0.11192   0.11549   0.12124   0.12561
  Beta virt. eigenvalues --    0.13176   0.13314   0.14254   0.15372   0.16296

 Mulliken charges and spin densities:
               1          2
     1  C    1.718831  -2.268259
     2  C   -2.156916   2.034644
     3  C    1.141586  -1.618201
     4  N   -0.273444   0.153419
     5  C   -0.384950   0.541535
     6  N   -0.173312   0.044214
     7  N   -0.199638   0.081673
     8  C    2.255450  -0.482062
     9  C   -0.751141  -0.029557
    10  N    0.169581   0.101228
    11  C    0.175757  -0.557176
    12  C   -1.021642  -0.286970
    13  N   -0.304853   0.098635
    14  H   -0.469228   0.605895
    15  H   -0.468959   0.615624
    16  H   -0.024803   0.193307
    17  H   -0.008415   0.193526
    18  H    0.011139   0.149408
    19  H   -0.534018   0.733866
    20  H   -0.001267   0.261624
    21  H    0.284086   0.009435
    22  H    0.159079   0.000937
    23  H   -0.149258   0.302369
    24  H    0.006336   0.120884
 Sum of Mulliken charges =  -1.00000   1.00000

 Dipole moment (field-independent basis, Debye):
    X=              3.4079    Y=              2.2226    Z=             -0.4837  Tot=              4.0973
 Quadrupole moment (field-independent basis, Debye-Ang):
   XX=           -146.6873   YY=           -117.7559   ZZ=            -98.3418
   XY=              8.5848   XZ=              4.4014   YZ=              0.9032

 Summary of Natural Population Analysis:

                                       Natural Population
                Natural  -----------------------------------------------
    Atom  No    Charge         Core      Valence    Rydberg      Total
 -----------------------------------------------------------------------
      C    1   -0.29043      0.99964     2.28444    0.00634     3.29043
      C    2   -0.00439      0.99959     1.99225    0.01255     3.00439
      C    3   -0.08603      0.99959     2.07502    0.01142     3.08603
      N    4   -0.32250      0.99968     2.81166    0.01116     3.82250
      C    5    0.14980      0.99952     1.83515    0.01553     2.85020
      N    6   -0.14988      0.99969     2.63672    0.01347     3.64988
      N    7   -0.15064      0.99964     2.63768    0.01331     3.65064
      C    8   -0.01057      0.99943     2.00087    0.01027     3.01057
      C    9    0.07593      0.99941     1.91368    0.01098     2.92407
      N   10   -0.25540      0.99964     2.74544    0.01031     3.75540
      C   11   -0.17722      0.99964     2.16940    0.00819     3.17722
      C   12    0.13470      0.99964     1.84762    0.01803     2.86530
      N   13   -0.16671      0.99979     2.65879    0.00813     3.66671
      H   14    0.10620      0.00000     0.39159    0.00221     0.39380
      H   15    0.10294      0.00000     0.39543    0.00163     0.39706
      H   16    0.10116      0.00000     0.39761    0.00122     0.39884
      H   17    0.08761      0.00000     0.41010    0.00228     0.41239
      H   18    0.08519      0.00000     0.41290    0.00191     0.41481
      H   19    0.10235      0.00000     0.39581    0.00184     0.39765
      H   20    0.18692      0.00000     0.30983    0.00325     0.31308
      H   21    0.19266      0.00000     0.30585    0.00149     0.30734
      H   22    0.10471      0.00000     0.39404    0.00124     0.39529
      H   23    0.08621      0.00000     0.41229    0.00149     0.41379
      H   24    0.09743      0.00000     0.40147    0.00110     0.40257
 =======================================================================
   * Total *    0.00007     12.99490    33.83568    0.16935    46.99993

 Normal termination of Gaussian 16 at Mon Dec 14 16:57:31 2020.
