 Gaussian 16, Revision A.03,

 -----------------------------------------------------------
 # opt freq B3LYP/6-31G(d) empiricaldispersion=gd3bj scf=xqc
 -----------------------------------------------------------

 -------------------------------
 CID_152849229_JID_2825_neutraal
 -------------------------------
 Symbolic Z-matrix:
 Charge =  0 Multiplicity = 1

 SCF Done:  E(RB3LYP) =  -591.896593186     A.U. after   15 cycles
 SCF Done:  E(RB3LYP) =  -591.902547662     A.U. after   12 cycles
 SCF Done:  E(RB3LYP) =  -591.902729166     A.U. after   13 cycles
 SCF Done:  E(RB3LYP) =  -591.903138820     A.U. after   12 cycles
 SCF Done:  E(RB3LYP) =  -591.903508100     A.U. after   12 cycles
 SCF Done:  E(RB3LYP) =  -591.903881423     A.U. after   13 cycles
 SCF Done:  E(RB3LYP) =  -591.904308542     A.U. after   14 cycles
 SCF Done:  E(RB3LYP) =  -591.903194663     A.U. after   15 cycles
 SCF Done:  E(RB3LYP) =  -591.904563519     A.U. after   12 cycles
 SCF Done:  E(RB3LYP) =  -591.904867741     A.U. after   11 cycles
 SCF Done:  E(RB3LYP) =  -591.905108757     A.U. after    9 cycles
 SCF Done:  E(RB3LYP) =  -591.905109536     A.U. after    9 cycles
 SCF Done:  E(RB3LYP) =  -591.905110395     A.U. after   10 cycles
 SCF Done:  E(RB3LYP) =  -591.905111172     A.U. after   10 cycles
 SCF Done:  E(RB3LYP) =  -591.905111408     A.U. after    9 cycles
 Optimization completed.
    -- Stationary point found.
 Normal termination of Gaussian 16 at Wed Dec  9 18:11:29 2020.

 --------------------------------------------------------------------
 #N Geom=AllCheck Guess=TCheck SCRF=Check GenChk RB3LYP/6-31G(d) Freq
 --------------------------------------------------------------------

 Structure from the checkpoint file:  "JID_2825.chk"
 -------------------------------
 CID_152849229_JID_2825_neutraal
 -------------------------------
 Charge =  0 Multiplicity = 1

 SCF Done:  E(RB3LYP) =  -591.905111408     A.U. after    1 cycles

  Exact polarizability: 111.681  16.272  83.810  -1.375  -0.309  82.755
 Approx polarizability: 158.379  30.526 123.651  -2.798  -4.646 132.528

                      1                      2                      3
                      A                      A                      A
 Frequencies --     15.5335                58.1589                76.3837
 Red. masses --      3.9123                 3.0967                 5.5964
 Frc consts  --      0.0006                 0.0062                 0.0192
 IR Inten    --      0.8622                 0.6784                 0.8116

                      4                      5                      6
                      A                      A                      A
 Frequencies --     86.0744               121.6031               144.6293
 Red. masses --      8.7664                 2.7184                 5.1762
 Frc consts  --      0.0383                 0.0237                 0.0638
 IR Inten    --      1.4232                 2.3569                 0.5098

                      7                      8                      9
                      A                      A                      A
 Frequencies --    164.5208               269.2476               300.6427
 Red. masses --      3.1560                 3.0989                 2.4040
 Frc consts  --      0.0503                 0.1324                 0.1280
 IR Inten    --      2.3257                14.3069                 3.5176

                     10                     11                     12
                      A                      A                      A
 Frequencies --    351.6528               427.2809               445.4196
 Red. masses --      4.3997                 4.9784                 2.8210
 Frc consts  --      0.3206                 0.5355                 0.3298
 IR Inten    --      0.1477                 0.6400                13.3264

                     13                     14                     15
                      A                      A                      A
 Frequencies --    495.9910               538.1943               608.6368
 Red. masses --      2.8601                 2.7270                 3.7585
 Frc consts  --      0.4146                 0.4654                 0.8203
 IR Inten    --      4.8640                30.9030                11.9127

                     16                     17                     18
                      A                      A                      A
 Frequencies --    634.7246               704.0409               707.0549
 Red. masses --      2.0016                 2.9495                 2.3325
 Frc consts  --      0.4751                 0.8614                 0.6870
 IR Inten    --     49.8380                23.1108                82.5073

                     19                     20                     21
                      A                      A                      A
 Frequencies --    738.0534               753.7309               796.3747
 Red. masses --      1.2047                 3.9437                 2.4189
 Frc consts  --      0.3866                 1.3200                 0.9039
 IR Inten    --      6.1019                 8.6047                14.2189

                     22                     23                     24
                      A                      A                      A
 Frequencies --    860.3380               874.0557               907.0940
 Red. masses --      1.4987                 2.6040                 3.3927
 Frc consts  --      0.6536                 1.1721                 1.6448
 IR Inten    --      4.1941                 6.2730                30.0776

                     25                     26                     27
                      A                      A                      A
 Frequencies --    929.9513               944.0745               983.6656
 Red. masses --      3.0188                 2.0938                 2.6761
 Frc consts  --      1.5382                 1.0995                 1.5256
 IR Inten    --     30.3169                10.5312                 2.8178

                     28                     29                     30
                      A                      A                      A
 Frequencies --    995.8631              1010.6442              1026.9490
 Red. masses --      1.9345                 2.1092                 3.5259
 Frc consts  --      1.1304                 1.2693                 2.1909
 IR Inten    --     74.7473                20.6898                27.3051

                     31                     32                     33
                      A                      A                      A
 Frequencies --   1087.8146              1112.6500              1175.0172
 Red. masses --      1.5812                 2.0052                 1.6229
 Frc consts  --      1.1024                 1.4626                 1.3202
 IR Inten    --      1.0303                46.0921                73.1690

                     34                     35                     36
                      A                      A                      A
 Frequencies --   1208.9905              1219.8069              1226.0863
 Red. masses --      1.3714                 2.3224                 1.2188
 Frc consts  --      1.1810                 2.0360                 1.0795
 IR Inten    --     30.8497               102.1323                 3.3134

                     37                     38                     39
                      A                      A                      A
 Frequencies --   1250.3268              1268.8770              1306.0929
 Red. masses --      1.2721                 1.1714                 1.4159
 Frc consts  --      1.1717                 1.1112                 1.4231
 IR Inten    --     47.8247                 1.5540                20.5684

                     40                     41                     42
                      A                      A                      A
 Frequencies --   1325.6714              1330.8283              1347.6569
 Red. masses --      1.4695                 1.3887                 1.7483
 Frc consts  --      1.5216                 1.4491                 1.8708
 IR Inten    --      3.1920                16.1230                24.0044

                     43                     44                     45
                      A                      A                      A
 Frequencies --   1379.9669              1403.0743              1432.5309
 Red. masses --      2.5070                 1.8579                 1.6356
 Frc consts  --      2.8128                 2.1549                 1.9776
 IR Inten    --     30.6988                93.9514                22.8693

                     46                     47                     48
                      A                      A                      A
 Frequencies --   1473.5445              1476.1426              1520.1591
 Red. masses --      1.0925                 1.1096                 1.0959
 Frc consts  --      1.3977                 1.4246                 1.4921
 IR Inten    --     27.4488                 4.5332                 0.2607

                     49                     50                     51
                      A                      A                      A
 Frequencies --   1543.9727              1731.8723              1749.1791
 Red. masses --      1.1029                 9.1344                 7.8809
 Frc consts  --      1.5491                16.1423                14.2067
 IR Inten    --      3.4570               122.6573                30.1784

                     52                     53                     54
                      A                      A                      A
 Frequencies --   1842.0923              3028.5657              3044.7610
 Red. masses --      9.5517                 1.0687                 1.0648
 Frc consts  --     19.0965                 5.7754                 5.8158
 IR Inten    --    245.5451                53.4564                13.8807

                     55                     56                     57
                      A                      A                      A
 Frequencies --   3077.5755              3088.9794              3089.3142
 Red. masses --      1.0874                 1.0628                 1.0650
 Frc consts  --      6.0684                 5.9752                 5.9886
 IR Inten    --     14.4773                17.3397                21.0502

                     58                     59                     60
                      A                      A                      A
 Frequencies --   3104.0850              3142.7752              3147.6878
 Red. masses --      1.0973                 1.1105                 1.1018
 Frc consts  --      6.2291                 6.4627                 6.4316
 IR Inten    --      5.0606                32.1515                 0.6559

                     61                     62                     63
                      A                      A                      A
 Frequencies --   3256.2250              3388.1000              3688.0851
 Red. masses --      1.0955                 1.0746                 1.0639
 Frc consts  --      6.8438                 7.2680                 8.5263
 IR Inten    --      3.5864                11.2589                45.9373

 - Thermochemistry -
 -------------------
 Temperature   298.150 Kelvin.  Pressure   1.00000 Atm.
 Atom     1 has atomic number  6 and mass  12.00000

 Molecular mass:   169.07389 amu.
 Principal axes and moments of inertia in atomic units:
                           1         2         3
     Eigenvalues --  1346.690112176.585342748.35750
           X            0.99971   0.02395  -0.00127
           Y           -0.02393   0.99966   0.01019
           Z            0.00152  -0.01016   0.99995
 This molecule is an asymmetric top.
 Rotational symmetry number  1.
 Warning -- assumption of classical behavior for rotation
           may cause significant error
 Rotational temperatures (Kelvin)      0.06432     0.03979     0.03151
 Rotational constants (GHZ):           1.34013     0.82916     0.65666
 Zero-point vibrational energy     493095.3 (Joules/Mol)
                                  117.85260 (Kcal/Mol)
 Warning -- explicit consideration of  15 degrees of freedom as
           vibrations may cause significant error
 Vibrational temperatures:     22.35    83.68   109.90   123.84   174.96
          (Kelvin)            208.09   236.71   387.39   432.56   505.95
                              614.76   640.86   713.62   774.34   875.69
                              913.23  1012.96  1017.29  1061.89  1084.45
                             1145.81  1237.83  1257.57  1305.11  1337.99
                             1358.31  1415.28  1432.82  1454.09  1477.55
                             1565.12  1600.86  1690.59  1739.47  1755.03
                             1764.06  1798.94  1825.63  1879.18  1907.35
                             1914.77  1938.98  1985.46  2018.71  2061.09
                             2120.10  2123.84  2187.17  2221.43  2491.78
                             2516.68  2650.36  4357.43  4380.73  4427.94
                             4444.35  4444.83  4466.09  4521.75  4528.82
                             4684.98  4874.72  5306.33

 Zero-point correction=                           0.187810 (Hartree/Particle)
 Thermal correction to Energy=                    0.199522
 Thermal correction to Enthalpy=                  0.200467
 Thermal correction to Gibbs Free Energy=         0.148056
 Sum of electronic and zero-point Energies=           -591.717301
 Sum of electronic and thermal Energies=              -591.705589
 Sum of electronic and thermal Enthalpies=            -591.704645
 Sum of electronic and thermal Free Energies=         -591.757056

                     E (Thermal)             CV                S
                      KCal/Mol        Cal/Mol-Kelvin    Cal/Mol-Kelvin
 Total                  125.202             42.421            110.308
 Electronic               0.000              0.000              0.000
 Translational            0.889              2.981             41.283
 Rotational               0.889              2.981             30.467
 Vibrational            123.425             36.460             38.558
 Vibration     1          0.593              1.986              7.136
 Vibration     2          0.596              1.974              4.519
 Vibration     3          0.599              1.965              3.982
 Vibration     4          0.601              1.959              3.747
 Vibration     5          0.609              1.931              3.075
 Vibration     6          0.616              1.908              2.742
 Vibration     7          0.623              1.886              2.497
 Vibration     8          0.674              1.730              1.601
 Vibration     9          0.693              1.672              1.413
 Vibration    10          0.728              1.572              1.159
 Vibration    11          0.789              1.411              0.868
 Vibration    12          0.805              1.371              0.810
 Vibration    13          0.852              1.259              0.668
 Vibration    14          0.893              1.166              0.569
 Vibration    15          0.968              1.014              0.435

                           ! Non-Optimized Parameters !
 Normal termination of Gaussian 16 at Wed Dec  9 18:16:58 2020.

 ----------------------------------------------------------------------
 # B3LYP/6-311++G(d,p) empiricaldispersion=gd3bj scf=xqc pop=npa geom=c
 heck
 ----------------------------------------------------------------------

 ---------------------------------------
 CID_152849229_JID_2825_Energie_neutraal
 ---------------------------------------
 Structure from the checkpoint file:  "JID_2825.chk"
 Charge =  0 Multiplicity = 1

 SCF Done:  E(RB3LYP) =  -592.088007506     A.U. after   15 cycles
 Normal termination of Gaussian 16 at Wed Dec  9 18:19:12 2020.

 ----------------------------------------------------------------------
 # B3LYP/6-311++G(d,p) empiricaldispersion=gd3bj scf=xqc pop=npa geom=c
 heck
 ----------------------------------------------------------------------

 -------------------------------------
 CID_152849229_JID_2825_Energie_kation
 -------------------------------------
 Structure from the checkpoint file:  "JID_2825.chk"
 Charge =  1 Multiplicity = 2

 SCF Done:  E(UB3LYP) =  -591.787868490     A.U. after   21 cycles
 Normal termination of Gaussian 16 at Wed Dec  9 18:23:35 2020.
 Gaussian 16:  ES64L-G16RevA.03 25-Dec-2016

 ----------------------------------------------------------------------
 # B3LYP/6-311++G(d,p) empiricaldispersion=gd3bj scf=xqc pop=npa geom=c
 heck
 ----------------------------------------------------------------------

 ------------------------------------
 CID_152849229_JID_2825_Energie_anion
 ------------------------------------
 Structure from the checkpoint file:  "JID_2825.chk"
 Charge = -1 Multiplicity = 2

                         Standard orientation:
 ---------------------------------------------------------------------
 Center     Atomic      Atomic             Coordinates (Angstroms)
 Number     Number       Type             X           Y           Z
 ---------------------------------------------------------------------
      1          6           0       -2.771455   -0.069645    0.498651
      2          6           0       -2.382995    0.268714   -0.960980
      3          8           0       -1.187813    1.096615   -0.890846
      4          6           0       -0.701940    0.981323    0.390838
      5          6           0       -1.518727    0.342931    1.233730
      6          6           0        0.664932    1.539502    0.596192
      7          6           0        1.788212    0.814457   -0.161486
      8          7           0        2.994916    1.220145   -0.183783
      9          6           0        1.444246   -0.431796   -0.949943
     10          6           0        0.763244   -1.529858   -0.158018
     11          8           0       -0.107665   -2.260930   -0.575602
     12          8           0        1.285191   -1.652900    1.087250
     13          1           0       -3.655183    0.488048    0.839433
     14          1           0       -2.995396   -1.136679    0.608880
     15          1           0       -2.118842   -0.632818   -1.521147
     16          1           0       -3.141570    0.833570   -1.506711
     17          1           0       -1.316339    0.157590    2.279993
     18          1           0        0.681658    2.592795    0.285606
     19          1           0        0.899579    1.511111    1.665624
     20          1           0        3.094010    2.087489    0.359017
     21          1           0        0.778928   -0.180968   -1.779323
     22          1           0        2.379828   -0.831733   -1.354061
     23          1           0        0.798100   -2.385466    1.508859
 ---------------------------------------------------------------------

 SCF Done:  E(UB3LYP) =  -592.074773628     A.U. after   33 cycles
 SCF Done:  E(UB3LYP) =  -592.074773628     a.u. after    1 cycles

 The electronic state is 2-A.
 Alpha  occ. eigenvalues --  -19.06526 -19.04305 -19.01522 -14.20110 -10.21015
 Alpha  occ. eigenvalues --  -10.13611 -10.12262 -10.12101 -10.09009 -10.08934
 Alpha  occ. eigenvalues --  -10.07455 -10.05619  -1.00803  -0.96359  -0.91976
 Alpha  occ. eigenvalues --   -0.81944  -0.69471  -0.68376  -0.66516  -0.59901
 Alpha  occ. eigenvalues --   -0.52355  -0.50935  -0.46941  -0.44801  -0.41362
 Alpha  occ. eigenvalues --   -0.40403  -0.38951  -0.37862  -0.37289  -0.35839
 Alpha  occ. eigenvalues --   -0.34461  -0.31890  -0.31347  -0.29817  -0.28911
 Alpha  occ. eigenvalues --   -0.28457  -0.27665  -0.26754  -0.24761  -0.23616
 Alpha  occ. eigenvalues --   -0.22505  -0.21353  -0.18696  -0.17161  -0.11335
 Alpha  occ. eigenvalues --    0.04676
 Alpha virt. eigenvalues --    0.07034   0.07194   0.07665   0.08749   0.09040
 Alpha virt. eigenvalues --    0.09989   0.10281   0.10476   0.10991   0.12004
 Alpha virt. eigenvalues --    0.12727   0.12997   0.13921   0.14630   0.15387

  Beta  occ. eigenvalues --  -19.06470 -19.04296 -19.01507 -14.20094 -10.21007
  Beta  occ. eigenvalues --  -10.13608 -10.12265 -10.12086 -10.08988 -10.08902
  Beta  occ. eigenvalues --  -10.07433 -10.05591  -1.00733  -0.96341  -0.91916
  Beta  occ. eigenvalues --   -0.81921  -0.69439  -0.68336  -0.66472  -0.59851
  Beta  occ. eigenvalues --   -0.52254  -0.50880  -0.46887  -0.44748  -0.41329
  Beta  occ. eigenvalues --   -0.40342  -0.38917  -0.37833  -0.37252  -0.35795
  Beta  occ. eigenvalues --   -0.34415  -0.31843  -0.31314  -0.29768  -0.28883
  Beta  occ. eigenvalues --   -0.28421  -0.27625  -0.26708  -0.24737  -0.23595
  Beta  occ. eigenvalues --   -0.22459  -0.21320  -0.18661  -0.17135  -0.11312
  Beta virt. eigenvalues --    0.07079   0.07508   0.07962   0.08697   0.09193
  Beta virt. eigenvalues --    0.09307   0.10375   0.10608   0.10978   0.11686
  Beta virt. eigenvalues --    0.12327   0.13173   0.13282   0.14279   0.14721

 Mulliken charges and spin densities:
               1          2
     1  C    2.711053  -3.373511
     2  C   -0.881093   0.774276
     3  O   -0.075234   0.024252
     4  C    0.634571  -0.524704
     5  C   -2.310995   2.481504
     6  C    1.207398  -1.734109
     7  C    0.164511  -0.372609
     8  N   -0.333600   0.128082
     9  C    0.116985  -0.525834
    10  C    0.753826  -0.837507
    11  O   -0.282611   0.068658
    12  O   -0.108050   0.047772
    13  H   -0.307013   0.446532
    14  H   -0.076116   0.226974
    15  H    0.126710   0.055143
    16  H   -0.155769   0.316403
    17  H   -1.376356   1.587058
    18  H   -0.301210   0.492189
    19  H   -0.333885   0.567431
    20  H   -0.011287   0.217303
    21  H    0.126737   0.106800
    22  H    0.112728   0.115373
    23  H   -0.401301   0.712521
 Sum of Mulliken charges =  -1.00000   1.00000

 Dipole moment (field-independent basis, Debye):
    X=              0.2538    Y=              0.6447    Z=             -5.6700  Tot=              5.7122
 Quadrupole moment (field-independent basis, Debye-Ang):
   XX=           -118.9656   YY=           -111.3908   ZZ=           -112.5073
   XY=             -0.6632   XZ=              2.4333   YZ=              4.3963

 Summary of Natural Population Analysis:

                                       Natural Population
                Natural  -----------------------------------------------
    Atom  No    Charge         Core      Valence    Rydberg      Total
 -----------------------------------------------------------------------
      C    1   -0.21329      0.99964     2.20531    0.00834     3.21329
      C    2   -0.00846      0.99959     1.99830    0.01057     3.00846
      O    3   -0.29213      0.99987     3.28309    0.00917     4.29213
      C    4    0.15099      0.99941     1.83229    0.01731     2.84901
      C    5   -0.13152      0.99943     2.12090    0.01119     3.13152
      C    6   -0.24738      0.99952     2.23594    0.01191     3.24738
      C    7    0.17167      0.99964     1.81212    0.01657     2.82833
      N    8   -0.31765      0.99970     2.80946    0.00849     3.81765
      C    9   -0.26863      0.99951     2.25981    0.00931     3.26863
      C   10    0.41043      0.99972     1.56347    0.02637     2.58957
      O   11   -0.30805      0.99987     3.30197    0.00621     4.30805
      O   12   -0.34276      0.99987     3.33535    0.00754     4.34276
      H   13    0.09942      0.00000     0.39896    0.00162     0.40058
      H   14    0.10694      0.00000     0.39167    0.00140     0.39306
      H   15    0.09132      0.00000     0.40748    0.00119     0.40868
      H   16    0.08755      0.00000     0.41114    0.00130     0.41245
      H   17    0.11309      0.00000     0.38196    0.00495     0.38691
      H   18    0.11563      0.00000     0.38280    0.00157     0.38437
      H   19    0.12527      0.00000     0.37230    0.00242     0.37473
      H   20    0.16114      0.00000     0.33661    0.00225     0.33886
      H   21    0.12480      0.00000     0.37388    0.00132     0.37520
      H   22    0.12431      0.00000     0.37439    0.00129     0.37569
      H   23    0.24730      0.00000     0.23830    0.01440     0.25270
 =======================================================================
   * Total *    0.00000     11.99578    32.82751    0.17671    45.00000

 Normal termination of Gaussian 16 at Wed Dec  9 18:29:47 2020.
