 Gaussian 16, Revision A.03,

 -----------------------------------------------------------
 # opt freq B3LYP/6-31G(d) empiricaldispersion=gd3bj scf=xqc
 -----------------------------------------------------------

 -------------------------------
 CID_146644146_JID_1560_neutraal
 -------------------------------
 Symbolic Z-matrix:
 Charge =  0 Multiplicity = 1

 SCF Done:  E(RB3LYP) =  -512.813798616     A.U. after   15 cycles
 SCF Done:  E(RB3LYP) =  -512.807437411     A.U. after   16 cycles
 SCF Done:  E(RB3LYP) =  -512.816290791     A.U. after   14 cycles
 SCF Done:  E(RB3LYP) =  -512.819963887     A.U. after   16 cycles
 SCF Done:  E(RB3LYP) =  -512.820110278     A.U. after   13 cycles
 SCF Done:  E(RB3LYP) =  -512.823000643     A.U. after   13 cycles
 SCF Done:  E(RB3LYP) =  -512.822991856     A.U. after   13 cycles
 SCF Done:  E(RB3LYP) =  -512.825235540     A.U. after   12 cycles
 SCF Done:  E(RB3LYP) =  -512.828358156     A.U. after   14 cycles
 SCF Done:  E(RB3LYP) =  -512.831098891     A.U. after   14 cycles
 SCF Done:  E(RB3LYP) =  -512.837565954     A.U. after    9 cycles
 SCF Done:  E(RB3LYP) =  -512.837569440     A.U. after    9 cycles
 SCF Done:  E(RB3LYP) =  -512.837572014     A.U. after    9 cycles
 SCF Done:  E(RB3LYP) =  -512.837572802     A.U. after    9 cycles
 SCF Done:  E(RB3LYP) =  -512.837573038     A.U. after    8 cycles
 Optimization completed.
    -- Stationary point found.
 Normal termination of Gaussian 16 at Tue Dec  8 21:01:11 2020.

 --------------------------------------------------------------------
 #N Geom=AllCheck Guess=TCheck SCRF=Check GenChk RB3LYP/6-31G(d) Freq
 --------------------------------------------------------------------

 Structure from the checkpoint file:  "JID_1560.chk"
 -------------------------------
 CID_146644146_JID_1560_neutraal
 -------------------------------
 Charge =  0 Multiplicity = 1

 SCF Done:  E(RB3LYP) =  -512.837573038     A.U. after    1 cycles

  Exact polarizability: 131.605   5.014  89.848 -11.306  -1.741  73.616
 Approx polarizability: 172.445  13.159 138.233 -24.857 -10.618 119.043

                      1                      2                      3
                      A                      A                      A
 Frequencies --     38.6480                52.7614                75.5720
 Red. masses --      4.8854                 3.2383                 3.5335
 Frc consts  --      0.0043                 0.0053                 0.0119
 IR Inten    --      1.5213                 0.3058                 0.4608

                      4                      5                      6
                      A                      A                      A
 Frequencies --    113.5791               189.3490               252.6300
 Red. masses --      6.1438                 5.7975                 2.7256
 Frc consts  --      0.0467                 0.1225                 0.1025
 IR Inten    --      1.6519                 3.9696                11.5873

                      7                      8                      9
                      A                      A                      A
 Frequencies --    270.8752               279.5356               315.2357
 Red. masses --      2.3101                 1.7301                 2.7535
 Frc consts  --      0.0999                 0.0797                 0.1612
 IR Inten    --     43.4608               113.1565                32.2201

                     10                     11                     12
                      A                      A                      A
 Frequencies --    322.4657               370.9385               384.2753
 Red. masses --      3.6563                 3.7320                 3.3042
 Frc consts  --      0.2240                 0.3025                 0.2875
 IR Inten    --     25.1508                 4.3394                 8.8182

                     13                     14                     15
                      A                      A                      A
 Frequencies --    464.1613               510.1704               597.6203
 Red. masses --      1.1217                 2.9251                 1.4811
 Frc consts  --      0.1424                 0.4486                 0.3117
 IR Inten    --     33.2545                 6.1505                 3.2139

                     16                     17                     18
                      A                      A                      A
 Frequencies --    643.5598               676.8395               731.6832
 Red. masses --      2.0916                 3.8019                 1.1704
 Frc consts  --      0.5104                 1.0262                 0.3692
 IR Inten    --     11.6320                10.6993                12.3071

                     19                     20                     21
                      A                      A                      A
 Frequencies --    740.7674               763.1215               774.4129
 Red. masses --      3.0548                 2.8773                 2.9796
 Frc consts  --      0.9876                 0.9872                 1.0528
 IR Inten    --     16.0672                81.3289                17.5591

                     22                     23                     24
                      A                      A                      A
 Frequencies --    787.7208               806.4965               822.5608
 Red. masses --      1.4555                 1.1581                 1.6320
 Frc consts  --      0.5321                 0.4438                 0.6506
 IR Inten    --     44.3963                 2.2466               257.8082

                     25                     26                     27
                      A                      A                      A
 Frequencies --    837.5571               870.0366               925.9301
 Red. masses --      1.8918                 2.8549                 2.6450
 Frc consts  --      0.7819                 1.2733                 1.3361
 IR Inten    --     11.8305                 7.8772                 4.7534

                     28                     29                     30
                      A                      A                      A
 Frequencies --    949.8000              1012.8969              1063.1436
 Red. masses --      3.3256                 1.5483                 1.4579
 Frc consts  --      1.7676                 0.9359                 0.9709
 IR Inten    --     40.6309                 8.1359                84.1960

                     31                     32                     33
                      A                      A                      A
 Frequencies --   1090.0028              1094.5711              1126.1923
 Red. masses --      1.7278                 1.3423                 1.4502
 Frc consts  --      1.2095                 0.9475                 1.0837
 IR Inten    --    138.1111                 3.1527                15.7269

                     34                     35                     36
                      A                      A                      A
 Frequencies --   1139.6431              1192.5034              1222.2820
 Red. masses --      1.1112                 1.5951                 1.3624
 Frc consts  --      0.8503                 1.3364                 1.1992
 IR Inten    --      2.0358                19.5050                 0.3373

                     37                     38                     39
                      A                      A                      A
 Frequencies --   1231.7854              1285.2893              1349.5631
 Red. masses --      2.0119                 2.4453                 2.5184
 Frc consts  --      1.7985                 2.3801                 2.7025
 IR Inten    --     15.9120               135.1851                32.5861

                     40                     41                     42
                      A                      A                      A
 Frequencies --   1433.2367              1455.0731              1472.7970
 Red. masses --      2.5444                 2.7790                 1.2807
 Frc consts  --      3.0794                 3.4667                 1.6368
 IR Inten    --    204.1894                27.9197                11.3438

                     43                     44                     45
                      A                      A                      A
 Frequencies --   1479.3028              1516.0970              1636.0081
 Red. masses --      1.0902                 1.3855                 1.4588
 Frc consts  --      1.4056                 1.8764                 2.3004
 IR Inten    --      2.1849                14.8595                72.7649

                     46                     47                     48
                      A                      A                      A
 Frequencies --   1676.4106              1682.1695              1720.2580
 Red. masses --      4.4544                 3.5869                 4.0144
 Frc consts  --      7.3757                 5.9802                 6.9994
 IR Inten    --    208.3242               886.5957               130.5366

                     49                     50                     51
                      A                      A                      A
 Frequencies --   1726.6457              3156.7120              3159.3696
 Red. masses --      1.6517                 1.0508                 1.0570
 Frc consts  --      2.9013                 6.1695                 6.2164
 IR Inten    --    138.8448                16.4744                14.7400

                     52                     53                     54
                      A                      A                      A
 Frequencies --   3179.4917              3209.0365              3240.2307
 Red. masses --      1.0612                 1.0913                 1.1200
 Frc consts  --      6.3204                 6.6211                 6.9282
 IR Inten    --      6.5126                 5.2619                 0.4605

                     55                     56                     57
                      A                      A                      A
 Frequencies --   3253.9074              3272.4205              3417.0826
 Red. masses --      1.1166                 1.1141                 1.0608
 Frc consts  --      6.9657                 7.0293                 7.2978
 IR Inten    --     10.5828                 6.4715               314.7394

                     58                     59                     60
                      A                      A                      A
 Frequencies --   3593.5996              3603.3777              3731.2140
 Red. masses --      1.0462                 1.0875                 1.1040
 Frc consts  --      7.9599                 8.3195                 9.0556
 IR Inten    --     71.6896                33.2473                46.1456

 - Thermochemistry -
 -------------------
 Temperature   298.150 Kelvin.  Pressure   1.00000 Atm.
 Atom     1 has atomic number  6 and mass  12.00000

 Molecular mass:   153.09021 amu.
 Principal axes and moments of inertia in atomic units:
                           1         2         3
     Eigenvalues --   827.450672817.098263126.86468
           X            1.00000  -0.00265  -0.00094
           Y            0.00266   0.99984   0.01783
           Z            0.00089  -0.01784   0.99984
 This molecule is an asymmetric top.
 Rotational symmetry number  1.
 Warning -- assumption of classical behavior for rotation
           may cause significant error
 Rotational temperatures (Kelvin)      0.10468     0.03075     0.02770
 Rotational constants (GHZ):           2.18109     0.64064     0.57717
 Zero-point vibrational energy     478450.1 (Joules/Mol)
                                  114.35233 (Kcal/Mol)
 Warning -- explicit consideration of  15 degrees of freedom as
           vibrations may cause significant error
 Vibrational temperatures:     55.61    75.91   108.73   163.41   272.43
          (Kelvin)            363.48   389.73   402.19   453.55   463.96
                              533.70   552.89   667.82   734.02   859.84
                              925.94   973.82  1052.73  1065.80  1097.96
                             1114.21  1133.35  1160.37  1183.48  1205.06
                             1251.79  1332.21  1366.55  1457.33  1529.63
                             1568.27  1574.84  1620.34  1639.69  1715.75
                             1758.59  1772.26  1849.24  1941.72  2062.11
                             2093.53  2119.03  2128.39  2181.33  2353.85
                             2411.98  2420.27  2475.07  2484.26  4541.80
                             4545.63  4574.58  4617.09  4661.97  4681.65
                             4708.28  4916.42  5170.39  5184.46  5368.38

 Zero-point correction=                           0.182232 (Hartree/Particle)
 Thermal correction to Energy=                    0.193650
 Thermal correction to Enthalpy=                  0.194594
 Thermal correction to Gibbs Free Energy=         0.144320
 Sum of electronic and zero-point Energies=           -512.655341
 Sum of electronic and thermal Energies=              -512.643923
 Sum of electronic and thermal Enthalpies=            -512.642979
 Sum of electronic and thermal Free Energies=         -512.693253

                     E (Thermal)             CV                S
                      KCal/Mol        Cal/Mol-Kelvin    Cal/Mol-Kelvin
 Total                  121.517             42.715            105.809
 Electronic               0.000              0.000              0.000
 Translational            0.889              2.981             40.987
 Rotational               0.889              2.981             30.367
 Vibrational            119.740             36.753             34.455
 Vibration     1          0.594              1.981              5.327
 Vibration     2          0.596              1.977              4.711
 Vibration     3          0.599              1.965              4.003
 Vibration     4          0.607              1.938              3.207
 Vibration     5          0.633              1.855              2.234
 Vibration     6          0.664              1.758              1.712
 Vibration     7          0.675              1.727              1.591
 Vibration     8          0.680              1.711              1.537
 Vibration     9          0.703              1.645              1.335
 Vibration    10          0.707              1.630              1.298
 Vibration    11          0.743              1.532              1.076
 Vibration    12          0.753              1.504              1.022
 Vibration    13          0.822              1.330              0.754
 Vibration    14          0.865              1.227              0.633
 Vibration    15          0.956              1.037              0.454

 Optimization completed.
    -- Stationary point found.
 Normal termination of Gaussian 16 at Tue Dec  8 21:07:13 2020.

 ----------------------------------------------------------------------
 # B3LYP/6-311++G(d,p) empiricaldispersion=gd3bj scf=xqc pop=npa geom=c
 heck
 ----------------------------------------------------------------------

 ---------------------------------------
 CID_146644146_JID_1560_Energie_neutraal
 ---------------------------------------
 Structure from the checkpoint file:  "JID_1560.chk"
 Charge =  0 Multiplicity = 1

 SCF Done:  E(RB3LYP) =  -512.997625037     A.U. after   14 cycles
 Normal termination of Gaussian 16 at Tue Dec  8 21:09:37 2020.

 ----------------------------------------------------------------------
 # B3LYP/6-311++G(d,p) empiricaldispersion=gd3bj scf=xqc pop=npa geom=c
 heck
 ----------------------------------------------------------------------

 -------------------------------------
 CID_146644146_JID_1560_Energie_kation
 -------------------------------------
 Structure from the checkpoint file:  "JID_1560.chk"
 Charge =  1 Multiplicity = 2

 SCF Done:  E(UB3LYP) =  -512.699768153     A.U. after   26 cycles
 Normal termination of Gaussian 16 at Tue Dec  8 21:15:01 2020.
 Gaussian 16:  ES64L-G16RevA.03 25-Dec-2016

 ----------------------------------------------------------------------
 # B3LYP/6-311++G(d,p) empiricaldispersion=gd3bj scf=xqc pop=npa geom=c
 heck
 ----------------------------------------------------------------------

 ------------------------------------
 CID_146644146_JID_1560_Energie_anion
 ------------------------------------
 Structure from the checkpoint file:  "JID_1560.chk"
 Charge = -1 Multiplicity = 2

                         Standard orientation:
 ---------------------------------------------------------------------
 Center     Atomic      Atomic             Coordinates (Angstroms)
 Number     Number       Type             X           Y           Z
 ---------------------------------------------------------------------
      1          6           0        2.889056   -0.588861   -1.230164
      2          6           0        2.034637   -0.561005   -0.186925
      3          6           0        1.378104    0.746756    0.173170
      4          7           0        0.115854    1.002588    0.312251
      5          6           0       -0.925880    0.102784    0.336874
      6          8           0       -0.943956   -0.969777    0.953066
      7          6           0       -2.140339    0.583597   -0.379491
      8          6           0       -3.022368   -0.470140   -1.031163
      9          6           0       -3.494834    0.213952    0.206785
     10          7           0        2.249269    1.782666    0.268978
     11          7           0        1.749790   -1.616017    0.663504
     12          1           0        3.088010    0.300510   -1.814103
     13          1           0        3.373102   -1.511628   -1.536636
     14          1           0       -2.043242    1.545129   -0.870719
     15          1           0       -3.478029   -0.212332   -1.982546
     16          1           0       -2.681354   -1.496193   -0.937216
     17          1           0       -3.466849   -0.350181    1.133370
     18          1           0       -4.283917    0.955971    0.130941
     19          1           0        3.239694    1.604333    0.315546
     20          1           0        1.888926    2.686066    0.544116
     21          1           0        1.994327   -2.525771    0.289722
     22          1           0        0.806326   -1.584842    1.055348
 ---------------------------------------------------------------------

 SCF Done:  E(UB3LYP) =  -512.988205318     A.U. after   33 cycles
 SCF Done:  E(UB3LYP) =  -512.988205318     a.u. after    1 cycles

 The electronic state is 2-A.
 Alpha  occ. eigenvalues --  -18.93994 -14.19079 -14.17476 -14.14274 -10.11069
 Alpha  occ. eigenvalues --  -10.10103 -10.07978 -10.05414 -10.05349 -10.04973
 Alpha  occ. eigenvalues --  -10.01356  -0.88726  -0.82003  -0.77217  -0.73593
 Alpha  occ. eigenvalues --   -0.72416  -0.60867  -0.55168  -0.48939  -0.48324
 Alpha  occ. eigenvalues --   -0.45293  -0.41149  -0.40122  -0.37878  -0.36955
 Alpha  occ. eigenvalues --   -0.33979  -0.33717  -0.31612  -0.27951  -0.27398
 Alpha  occ. eigenvalues --   -0.26737  -0.25474  -0.24832  -0.22984  -0.20481
 Alpha  occ. eigenvalues --   -0.18930  -0.16317  -0.14078  -0.11336  -0.10214
 Alpha  occ. eigenvalues --   -0.08179   0.05734
 Alpha virt. eigenvalues --    0.08305   0.08452   0.09102   0.10442   0.10896
 Alpha virt. eigenvalues --    0.11283   0.12168   0.12545   0.13057   0.13942
 Alpha virt. eigenvalues --    0.14327   0.15573   0.16701   0.17484   0.18050

  Beta  occ. eigenvalues --  -18.93766 -14.18964 -14.17430 -14.14342 -10.10830
  Beta  occ. eigenvalues --  -10.09684 -10.07968 -10.05384 -10.05303 -10.04988
  Beta  occ. eigenvalues --  -10.01257  -0.88297  -0.81593  -0.77114  -0.73476
  Beta  occ. eigenvalues --   -0.72237  -0.60633  -0.54647  -0.48589  -0.48232
  Beta  occ. eigenvalues --   -0.45107  -0.41011  -0.39988  -0.37782  -0.36851
  Beta  occ. eigenvalues --   -0.33734  -0.33500  -0.31337  -0.27638  -0.26933
  Beta  occ. eigenvalues --   -0.26427  -0.25313  -0.24455  -0.22088  -0.20131
  Beta  occ. eigenvalues --   -0.18770  -0.15916  -0.13867  -0.10861  -0.09929
  Beta  occ. eigenvalues --   -0.07706
  Beta virt. eigenvalues --    0.08271   0.08790   0.09393   0.10211   0.10775
  Beta virt. eigenvalues --    0.10963   0.11670   0.12722   0.12803   0.13335
  Beta virt. eigenvalues --    0.14191   0.14806   0.15575   0.16610   0.17534

 Mulliken charges and spin densities:
               1          2
     1  C   -0.524415   0.067653
     2  C    0.537368  -0.146578
     3  C    0.455616  -0.525268
     4  N   -0.222225   0.095482
     5  C   -0.130252  -0.309318
     6  O   -0.424566   0.078092
     7  C    0.133354   0.362127
     8  C    0.049603  -0.515286
     9  C   -0.498461   0.101709
    10  N   -0.365751   0.123222
    11  N   -0.391921   0.033415
    12  H   -0.255185   0.407526
    13  H    0.110147  -0.050258
    14  H   -0.230406   0.486286
    15  H   -0.064683   0.179871
    16  H    0.126148   0.031331
    17  H    0.134986   0.018363
    18  H    0.128989  -0.023145
    19  H    0.189067   0.049982
    20  H   -0.211415   0.470837
    21  H    0.134840   0.077260
    22  H    0.319162  -0.013306
 Sum of Mulliken charges =  -1.00000   1.00000

 Dipole moment (field-independent basis, Debye):
    X=             -1.4126    Y=             -2.3762    Z=              1.0153  Tot=              2.9450
 Quadrupole moment (field-independent basis, Debye-Ang):
   XX=            -96.3644   YY=            -90.6009   ZZ=            -88.1223
   XY=             -5.6228   XZ=              2.5124   YZ=              4.0378

 Summary of Natural Population Analysis:

                                       Natural Population
                Natural  -----------------------------------------------
    Atom  No    Charge         Core      Valence    Rydberg      Total
 -----------------------------------------------------------------------
      C    1   -0.24672      0.99955     2.23863    0.00853     3.24672
      C    2    0.06729      0.99950     1.91887    0.01433     2.93271
      C    3    0.30198      0.99953     1.68122    0.01727     2.69802
      N    4   -0.32318      0.99959     2.81272    0.01087     3.82318
      C    5    0.36956      0.99963     1.60627    0.02455     2.63044
      O    6   -0.33138      0.99987     3.32645    0.00506     4.33138
      C    7   -0.14999      0.99956     2.13888    0.01155     3.14999
      C    8   -0.19180      0.99963     2.18405    0.00812     3.19180
      C    9   -0.18849      0.99963     2.18108    0.00778     3.18849
      N   10   -0.37157      0.99970     2.86300    0.00887     3.87157
      N   11   -0.40426      0.99970     2.89565    0.00892     3.90426
      H   12    0.09940      0.00000     0.39932    0.00128     0.40060
      H   13    0.08479      0.00000     0.41421    0.00100     0.41521
      H   14    0.11025      0.00000     0.38861    0.00114     0.38975
      H   15    0.09663      0.00000     0.40247    0.00090     0.40337
      H   16    0.10798      0.00000     0.39097    0.00105     0.39202
      H   17    0.10725      0.00000     0.39166    0.00110     0.39275
      H   18    0.09409      0.00000     0.40508    0.00083     0.40591
      H   19    0.19132      0.00000     0.30709    0.00159     0.30868
      H   20    0.19315      0.00000     0.30263    0.00423     0.30685
      H   21    0.17445      0.00000     0.32366    0.00189     0.32555
      H   22    0.20923      0.00000     0.28820    0.00256     0.29077
 =======================================================================
   * Total *    0.00000     10.99588    29.86072    0.14340    41.00000

 Normal termination of Gaussian 16 at Tue Dec  8 21:24:02 2020.
