 Gaussian 16, Revision A.03,

 -----------------------------------------------------------
 # opt freq B3LYP/6-31G(d) empiricaldispersion=gd3bj scf=xqc
 -----------------------------------------------------------

 -------------------------------
 CID_137444109_JID_4916_neutraal
 -------------------------------
 Symbolic Z-matrix:
 Charge =  0 Multiplicity = 1

 SCF Done:  E(RB3LYP) =  -596.291558019     A.U. after   14 cycles
 SCF Done:  E(RB3LYP) =  -596.301852577     A.U. after   12 cycles
 SCF Done:  E(RB3LYP) =  -596.302415095     A.U. after   11 cycles
 SCF Done:  E(RB3LYP) =  -596.302593242     A.U. after   11 cycles
 SCF Done:  E(RB3LYP) =  -596.302693855     A.U. after   11 cycles
 SCF Done:  E(RB3LYP) =  -596.302767468     A.U. after   10 cycles
 SCF Done:  E(RB3LYP) =  -596.302876673     A.U. after   11 cycles
 SCF Done:  E(RB3LYP) =  -596.302931801     A.U. after   11 cycles
 SCF Done:  E(RB3LYP) =  -596.302940360     A.U. after   10 cycles
 SCF Done:  E(RB3LYP) =  -596.302940876     A.U. after    7 cycles
 Optimization completed.
    -- Stationary point found.
 Normal termination of Gaussian 16 at Thu Dec 10 10:49:00 2020.

 --------------------------------------------------------------------
 #N Geom=AllCheck Guess=TCheck SCRF=Check GenChk RB3LYP/6-31G(d) Freq
 --------------------------------------------------------------------

 Structure from the checkpoint file:  "JID_4916.chk"
 -------------------------------
 CID_137444109_JID_4916_neutraal
 -------------------------------
 Charge =  0 Multiplicity = 1

 SCF Done:  E(RB3LYP) =  -596.302940876     A.U. after    1 cycles

  Exact polarizability: 159.315   3.843 150.242   5.443  -3.612  79.685
 Approx polarizability: 222.537   5.097 236.468  14.913  -9.227 124.219

                      1                      2                      3
                      A                      A                      A
 Frequencies --     50.8484                82.2567                98.4846
 Red. masses --      2.5666                 3.7304                 2.6063
 Frc consts  --      0.0039                 0.0149                 0.0149
 IR Inten    --      0.3062                 0.2696                 4.4977

                      4                      5                      6
                      A                      A                      A
 Frequencies --    137.7316               153.4540               214.6744
 Red. masses --      3.5053                 2.6797                 2.5008
 Frc consts  --      0.0392                 0.0372                 0.0679
 IR Inten    --      0.2761                 0.7031                 0.7117

                      7                      8                      9
                      A                      A                      A
 Frequencies --    257.4016               300.6423               315.8704
 Red. masses --      2.1175                 3.7672                 2.7995
 Frc consts  --      0.0827                 0.2006                 0.1646
 IR Inten    --     29.4405                 0.7855                15.4905

                     10                     11                     12
                      A                      A                      A
 Frequencies --    349.8315               437.9837               444.6463
 Red. masses --      3.4681                 3.1076                 4.2463
 Frc consts  --      0.2501                 0.3512                 0.4946
 IR Inten    --      3.6213                42.2419                 5.0848

                     13                     14                     15
                      A                      A                      A
 Frequencies --    482.1059               513.2283               515.3397
 Red. masses --      2.5824                 4.1700                 3.4617
 Frc consts  --      0.3536                 0.6472                 0.5417
 IR Inten    --     27.0542                 2.4416                16.0928

                     16                     17                     18
                      A                      A                      A
 Frequencies --    567.3492               598.0438               620.1529
 Red. masses --      3.5563                 5.0991                 2.9110
 Frc consts  --      0.6744                 1.0745                 0.6596
 IR Inten    --     16.5244                 2.3550                 0.6093

                     19                     20                     21
                      A                      A                      A
 Frequencies --    666.1128               715.7496               739.7874
 Red. masses --      2.2900                 2.2385                 2.5505
 Frc consts  --      0.5987                 0.6757                 0.8224
 IR Inten    --      2.3468                 5.2286                22.4587

                     22                     23                     24
                      A                      A                      A
 Frequencies --    787.6700               799.3872               813.3061
 Red. masses --      1.6190                 1.3489                 2.3864
 Frc consts  --      0.5918                 0.5079                 0.9300
 IR Inten    --     22.3317                 2.5990                 3.1059

                     25                     26                     27
                      A                      A                      A
 Frequencies --    857.6229               893.3279               902.5122
 Red. masses --      3.1533                 1.3711                 2.4547
 Frc consts  --      1.3665                 0.6447                 1.1780
 IR Inten    --      7.7603                 0.7819                 5.7249

                     28                     29                     30
                      A                      A                      A
 Frequencies --    912.1215               942.0167               945.8688
 Red. masses --      2.1142                 1.2449                 2.1884
 Frc consts  --      1.0363                 0.6509                 1.1535
 IR Inten    --      1.0306                 1.0011                 1.3540

                     31                     32                     33
                      A                      A                      A
 Frequencies --    953.3490               968.2996               990.3879
 Red. masses --      2.3059                 1.5327                 2.9925
 Frc consts  --      1.2348                 0.8467                 1.7294
 IR Inten    --      3.0400                 1.4849                12.2857

                     34                     35                     36
                      A                      A                      A
 Frequencies --   1030.9813              1060.1409              1080.1043
 Red. masses --      2.0308                 2.6987                 2.5812
 Frc consts  --      1.2718                 1.7870                 1.7742
 IR Inten    --      0.7119                 7.8329                 2.7145

                     37                     38                     39
                      A                      A                      A
 Frequencies --   1110.7785              1124.2221              1141.7614
 Red. masses --      1.7798                 2.5805                 2.4066
 Frc consts  --      1.2938                 1.9216                 1.8484
 IR Inten    --      5.0990                36.5594                 2.1222

                     40                     41                     42
                      A                      A                      A
 Frequencies --   1152.5186              1197.4871              1210.5789
 Red. masses --      2.2026                 1.2273                 1.3334
 Frc consts  --      1.7238                 1.0369                 1.1513
 IR Inten    --     36.3965                 3.9019                 3.3936

                     43                     44                     45
                      A                      A                      A
 Frequencies --   1251.9926              1257.6105              1269.3908
 Red. masses --      1.4369                 2.2879                 1.5104
 Frc consts  --      1.3270                 2.1320                 1.4339
 IR Inten    --      3.5574                32.6701                 5.1636

                     46                     47                     48
                      A                      A                      A
 Frequencies --   1271.6561              1273.7639              1291.4007
 Red. masses --      1.3712                 1.2009                 1.3900
 Frc consts  --      1.3065                 1.1480                 1.3658
 IR Inten    --      3.5802                12.2546                 0.1848

                     49                     50                     51
                      A                      A                      A
 Frequencies --   1296.7144              1300.5222              1311.0161
 Red. masses --      1.4476                 1.3831                 1.5748
 Frc consts  --      1.4341                 1.3783                 1.5947
 IR Inten    --      6.4350                 5.4932                 3.0587

                     52                     53                     54
                      A                      A                      A
 Frequencies --   1322.8924              1361.6497              1386.8712
 Red. masses --      2.5938                 2.9457                 1.7867
 Frc consts  --      2.6745                 3.2178                 2.0247
 IR Inten    --     91.1047                52.0503                20.8457

                     55                     56                     57
                      A                      A                      A
 Frequencies --   1409.3328              1421.6795              1476.4874
 Red. masses --      1.4511                 1.3655                 1.4945
 Frc consts  --      1.6981                 1.6261                 1.9196
 IR Inten    --     11.4898                23.3618                 5.9582

                     58                     59                     60
                      A                      A                      A
 Frequencies --   1508.0414              1512.4154              1516.6537
 Red. masses --      1.1073                 1.8818                 1.0875
 Frc consts  --      1.4837                 2.5361                 1.4738
 IR Inten    --      2.8461               112.7333                 2.0908

                     61                     62                     63
                      A                      A                      A
 Frequencies --   1520.2215              1527.6950              1540.1236
 Red. masses --      1.2784                 1.4206                 2.0374
 Frc consts  --      1.7407                 1.9534                 2.8473
 IR Inten    --     11.5431                47.8838                15.5468

                     64                     65                     66
                      A                      A                      A
 Frequencies --   1541.2974              1645.4734              1662.5633
 Red. masses --      1.1407                 6.0078                 6.6976
 Frc consts  --      1.5965                 9.5840                10.9075
 IR Inten    --      0.7090                22.9037                 7.4736

                     67                     68                     69
                      A                      A                      A
 Frequencies --   2986.3445              3022.0737              3044.8875
 Red. masses --      1.0829                 1.0703                 1.0657
 Frc consts  --      5.6902                 5.7591                 5.8213
 IR Inten    --     31.2923                55.4469                55.9172

                     70                     71                     72
                      A                      A                      A
 Frequencies --   3068.1142              3072.8578              3082.0887
 Red. masses --      1.0588                 1.0585                 1.0610
 Frc consts  --      5.8725                 5.8886                 5.9384
 IR Inten    --     49.1026                43.5438                13.9502

                     73                     74                     75
                      A                      A                      A
 Frequencies --   3108.8441              3112.6525              3126.3199
 Red. masses --      1.0994                 1.1064                 1.0981
 Frc consts  --      6.2604                 6.3156                 6.3233
 IR Inten    --     33.0483                20.2685                57.3324

                     76                     77                     78
                      A                      A                      A
 Frequencies --   3126.4119              3137.8188              3191.5665
 Red. masses --      1.1080                 1.1084                 1.0857
 Frc consts  --      6.3807                 6.4298                 6.5160
 IR Inten    --     19.9080                58.7165                 5.4340

                     79                     80                     81
                      A                      A                      A
 Frequencies --   3207.8691              3217.1101              3577.7596
 Red. masses --      1.0903                 1.0960                 1.0763
 Frc consts  --      6.6107                 6.6835                 8.1172
 IR Inten    --     17.3466                18.5033                 5.0710

 - Thermochemistry -
 -------------------
 Temperature   298.150 Kelvin.  Pressure   1.00000 Atm.
 Atom     1 has atomic number  6 and mass  12.00000

 Molecular mass:   189.11536 amu.
 Principal axes and moments of inertia in atomic units:
                           1         2         3
     Eigenvalues --  1491.426863426.563314721.62691
           X            0.99996   0.00897  -0.00298
           Y           -0.00898   0.99996  -0.00221
           Z            0.00296   0.00223   0.99999
 This molecule is an asymmetric top.
 Rotational symmetry number  1.
 Warning -- assumption of classical behavior for rotation
           may cause significant error
 Rotational temperatures (Kelvin)      0.05807     0.02528     0.01834
 Rotational constants (GHZ):           1.21008     0.52669     0.38223
 Zero-point vibrational energy     658522.2 (Joules/Mol)
                                  157.39059 (Kcal/Mol)
 Warning -- explicit consideration of  18 degrees of freedom as
           vibrations may cause significant error
 Vibrational temperatures:     73.16   118.35   141.70   198.16   220.79
          (Kelvin)            308.87   370.34   432.56   454.47   503.33
                              630.16   639.75   693.64   738.42   741.46
                              816.29   860.45   892.26   958.39  1029.80
                             1064.39  1133.28  1150.14  1170.17  1233.93
                             1285.30  1298.51  1312.34  1355.35  1360.89
                             1371.66  1393.17  1424.95  1483.35  1525.31
                             1554.03  1598.16  1617.50  1642.74  1658.22
                             1722.92  1741.75  1801.34  1809.42  1826.37
                             1829.63  1832.66  1858.04  1865.68  1871.16
                             1886.26  1903.35  1959.11  1995.40  2027.72
                             2045.48  2124.34  2169.74  2176.03  2182.13
                             2187.26  2198.01  2215.89  2217.58  2367.47
                             2392.06  4296.68  4348.09  4380.91  4414.33
                             4421.16  4434.44  4472.93  4478.41  4498.08
                             4498.21  4514.62  4591.95  4615.41  4628.70
                             5147.60

 Zero-point correction=                           0.250818 (Hartree/Particle)
 Thermal correction to Energy=                    0.262592
 Thermal correction to Enthalpy=                  0.263536
 Thermal correction to Gibbs Free Energy=         0.212719
 Sum of electronic and zero-point Energies=           -596.052123
 Sum of electronic and thermal Energies=              -596.040349
 Sum of electronic and thermal Enthalpies=            -596.039404
 Sum of electronic and thermal Free Energies=         -596.090222

                     E (Thermal)             CV                S
                      KCal/Mol        Cal/Mol-Kelvin    Cal/Mol-Kelvin
 Total                  164.779             47.331            106.954
 Electronic               0.000              0.000              0.000
 Translational            0.889              2.981             41.617
 Rotational               0.889              2.981             31.557
 Vibrational            163.002             41.370             33.780
 Vibration     1          0.595              1.977              4.784
 Vibration     2          0.600              1.961              3.836
 Vibration     3          0.604              1.950              3.484
 Vibration     4          0.614              1.916              2.835
 Vibration     5          0.619              1.899              2.629
 Vibration     6          0.645              1.819              2.004
 Vibration     7          0.667              1.750              1.679
 Vibration     8          0.693              1.672              1.413
 Vibration     9          0.703              1.643              1.331
 Vibration    10          0.727              1.576              1.167
 Vibration    11          0.798              1.387              0.833
 Vibration    12          0.804              1.373              0.812
 Vibration    13          0.838              1.290              0.704
 Vibration    14          0.868              1.221              0.626
 Vibration    15          0.870              1.216              0.621
 Vibration    16          0.923              1.102              0.509
 Vibration    17          0.956              1.036              0.453
 Vibration    18          0.980              0.989              0.416

                           ! Non-Optimized Parameters !
 Normal termination of Gaussian 16 at Thu Dec 10 10:57:24 2020.

 ----------------------------------------------------------------------
 # B3LYP/6-311++G(d,p) empiricaldispersion=gd3bj scf=xqc pop=npa geom=c
 heck
 ----------------------------------------------------------------------

 ---------------------------------------
 CID_137444109_JID_4916_Energie_neutraal
 ---------------------------------------
 Structure from the checkpoint file:  "JID_4916.chk"
 Charge =  0 Multiplicity = 1

 SCF Done:  E(RB3LYP) =  -596.461793159     A.U. after   15 cycles
 Normal termination of Gaussian 16 at Thu Dec 10 11:02:10 2020.

 ----------------------------------------------------------------------
 # B3LYP/6-311++G(d,p) empiricaldispersion=gd3bj scf=xqc pop=npa geom=c
 heck
 ----------------------------------------------------------------------

 -------------------------------------
 CID_137444109_JID_4916_Energie_kation
 -------------------------------------
 Structure from the checkpoint file:  "JID_4916.chk"
 Charge =  1 Multiplicity = 2

 SCF Done:  E(UB3LYP) =  -596.194462359     A.U. after   23 cycles
 Normal termination of Gaussian 16 at Thu Dec 10 11:10:14 2020.
 Gaussian 16:  ES64L-G16RevA.03 25-Dec-2016

 ----------------------------------------------------------------------
 # B3LYP/6-311++G(d,p) empiricaldispersion=gd3bj scf=xqc pop=npa geom=c
 heck
 ----------------------------------------------------------------------

 ------------------------------------
 CID_137444109_JID_4916_Energie_anion
 ------------------------------------
 Structure from the checkpoint file:  "JID_4916.chk"
 Charge = -1 Multiplicity = 2

                         Standard orientation:
 ---------------------------------------------------------------------
 Center     Atomic      Atomic             Coordinates (Angstroms)
 Number     Number       Type             X           Y           Z
 ---------------------------------------------------------------------
      1          6           0        3.830505   -0.885997   -0.267192
      2          6           0        3.298887    0.430195    0.354554
      3          6           0        1.896828   -0.229191    0.456628
      4          6           0        2.369417   -1.262458   -0.616374
      5          6           0        0.649908    0.578753    0.215322
      6          6           0       -0.583168   -0.092759    0.066845
      7          6           0       -1.754237    0.657877   -0.144353
      8          6           0       -1.704019    2.046187   -0.255320
      9          6           0       -0.486551    2.704683   -0.119085
     10          6           0        0.676021    1.971695    0.131348
     11          8           0       -2.990073    0.054211   -0.244319
     12          6           0       -3.059814   -1.219992    0.388924
     13          6           0       -1.938289   -2.115327   -0.131125
     14          7           0       -0.638313   -1.497897    0.090263
     15          1           0        4.248904   -1.553693    0.493715
     16          1           0        4.546489   -0.803170   -1.090193
     17          1           0        3.760344    0.796384    1.276787
     18          1           0        3.299806    1.237210   -0.384761
     19          1           0        1.826621   -0.746464    1.427245
     20          1           0        2.087451   -0.925662   -1.618666
     21          1           0        2.059827   -2.304073   -0.499299
     22          1           0       -2.631917    2.583158   -0.424862
     23          1           0       -0.443502    3.786989   -0.195511
     24          1           0        1.620078    2.491637    0.257688
     25          1           0       -4.046596   -1.623736    0.148971
     26          1           0       -2.975610   -1.099588    1.479067
     27          1           0       -1.963340   -3.094683    0.356696
     28          1           0       -2.091290   -2.274069   -1.206736
     29          1           0       -0.081417   -1.920648    0.821532
 ---------------------------------------------------------------------

 SCF Done:  E(UB3LYP) =  -596.449697629     A.U. after   33 cycles
 SCF Done:  E(UB3LYP) =  -596.449697629     a.u. after    1 cycles

 The electronic state is 2-A.
 Alpha  occ. eigenvalues --  -19.04543 -14.21276 -10.12218 -10.11861 -10.10496
 Alpha  occ. eigenvalues --  -10.09560 -10.07602 -10.07408 -10.06913 -10.06862
 Alpha  occ. eigenvalues --  -10.06803 -10.06718 -10.06506 -10.06229  -0.96456
 Alpha  occ. eigenvalues --   -0.82565  -0.75688  -0.73741  -0.66332  -0.65256
 Alpha  occ. eigenvalues --   -0.59651  -0.56554  -0.56226  -0.54594  -0.50031
 Alpha  occ. eigenvalues --   -0.46927  -0.44695  -0.42748  -0.41757  -0.39767
 Alpha  occ. eigenvalues --   -0.37967  -0.36766  -0.35419  -0.34936  -0.33367
 Alpha  occ. eigenvalues --   -0.31787  -0.30639  -0.30034  -0.28912  -0.28696
 Alpha  occ. eigenvalues --   -0.26713  -0.26008  -0.24720  -0.23613  -0.22299
 Alpha  occ. eigenvalues --   -0.21775  -0.21000  -0.20427  -0.17800  -0.12718
 Alpha  occ. eigenvalues --   -0.09763   0.04632
 Alpha virt. eigenvalues --    0.06875   0.07442   0.08118   0.08756   0.09111
 Alpha virt. eigenvalues --    0.09280   0.09690   0.10169   0.10674   0.11046
 Alpha virt. eigenvalues --    0.11770   0.11956   0.12419   0.12759   0.13681

  Beta  occ. eigenvalues --  -19.04545 -14.21248 -10.12208 -10.11831 -10.10495
  Beta  occ. eigenvalues --  -10.09518 -10.07582 -10.07409 -10.06905 -10.06860
  Beta  occ. eigenvalues --  -10.06800 -10.06701 -10.06494 -10.06213  -0.96449
  Beta  occ. eigenvalues --   -0.82515  -0.75661  -0.73718  -0.66290  -0.65238
  Beta  occ. eigenvalues --   -0.59606  -0.56513  -0.56187  -0.54538  -0.49998
  Beta  occ. eigenvalues --   -0.46868  -0.44646  -0.42706  -0.41713  -0.39741
  Beta  occ. eigenvalues --   -0.37903  -0.36743  -0.35389  -0.34890  -0.33324
  Beta  occ. eigenvalues --   -0.31728  -0.30606  -0.29997  -0.28885  -0.28673
  Beta  occ. eigenvalues --   -0.26689  -0.25981  -0.24698  -0.23582  -0.22271
  Beta  occ. eigenvalues --   -0.21742  -0.20969  -0.20395  -0.17769  -0.12680
  Beta  occ. eigenvalues --   -0.09731
  Beta virt. eigenvalues --    0.06911   0.07584   0.07901   0.08602   0.09014
  Beta virt. eigenvalues --    0.09339   0.09762   0.10119   0.10505   0.10743
  Beta virt. eigenvalues --    0.11682   0.11982   0.12208   0.12762   0.12939

 Mulliken charges and spin densities:
               1          2
     1  C    0.169062  -0.455704
     2  C    0.529992  -1.123894
     3  C   -0.990466   1.635123
     4  C    0.312921  -0.849263
     5  C    2.090598  -1.358876
     6  C    0.112621   0.325710
     7  C   -0.549975  -0.277077
     8  C    1.075665  -1.213280
     9  C   -1.189851   0.638091
    10  C   -1.036339   0.344446
    11  O   -0.184561   0.053884
    12  C   -0.165354  -0.115938
    13  C    1.293925  -1.536517
    14  N   -0.332783   0.339951
    15  H   -0.291697   0.443531
    16  H    0.084360   0.044303
    17  H   -0.050235   0.199946
    18  H    0.116792  -0.013437
    19  H   -0.506440   0.729395
    20  H    0.037700   0.109149
    21  H   -0.005287   0.155491
    22  H    0.145186   0.007887
    23  H    0.113916   0.029812
    24  H    0.037122   0.063515
    25  H   -0.568825   0.747759
    26  H    0.032937   0.130417
    27  H   -1.335358   1.543470
    28  H    0.236495  -0.082777
    29  H   -0.182121   0.484885
 Sum of Mulliken charges =  -1.00000   1.00000

 Dipole moment (field-independent basis, Debye):
    X=              1.4836    Y=              8.2928    Z=             -4.0542  Tot=              9.3492
 Quadrupole moment (field-independent basis, Debye-Ang):
   XX=           -142.2889   YY=           -138.7629   ZZ=           -114.9628
   XY=             -6.3821   XZ=             -3.4586   YZ=             10.6923

 Summary of Natural Population Analysis:

                                       Natural Population
                Natural  -----------------------------------------------
    Atom  No    Charge         Core      Valence    Rydberg      Total
 -----------------------------------------------------------------------
      C    1   -0.19139      0.99965     2.18359    0.00815     3.19139
      C    2   -0.18455      0.99964     2.17640    0.00851     3.18455
      C    3   -0.11892      0.99958     2.10641    0.01293     3.11892
      C    4   -0.17957      0.99963     2.17109    0.00886     3.17957
      C    5   -0.02416      0.99948     2.01412    0.01056     3.02416
      C    6    0.06312      0.99941     1.92638    0.01109     2.93688
      C    7    0.13746      0.99934     1.84911    0.01408     2.86254
      C    8   -0.12117      0.99953     2.11259    0.00906     3.12117
      C    9   -0.11578      0.99958     2.10636    0.00985     3.11578
      C   10   -0.10803      0.99952     2.10056    0.00795     3.10803
      O   11   -0.28073      0.99987     3.27221    0.00865     4.28073
      C   12   -0.01513      0.99958     2.00304    0.01252     3.01513
      C   13   -0.09785      0.99963     2.08644    0.01178     3.09785
      N   14   -0.31990      0.99969     2.80806    0.01215     3.81990
      H   15    0.09817      0.00000     0.40019    0.00164     0.40183
      H   16    0.09136      0.00000     0.40786    0.00078     0.40864
      H   17    0.09697      0.00000     0.40213    0.00090     0.40303
      H   18    0.09356      0.00000     0.40513    0.00131     0.40644
      H   19    0.10640      0.00000     0.39063    0.00297     0.39360
      H   20    0.09502      0.00000     0.40390    0.00108     0.40498
      H   21    0.10361      0.00000     0.39514    0.00124     0.39639
      H   22    0.10261      0.00000     0.39643    0.00096     0.39739
      H   23    0.09585      0.00000     0.40339    0.00076     0.40415
      H   24    0.09869      0.00000     0.40026    0.00105     0.40131
      H   25    0.09376      0.00000     0.40460    0.00164     0.40624
      H   26    0.08452      0.00000     0.41373    0.00175     0.41548
      H   27    0.10941      0.00000     0.38284    0.00775     0.39059
      H   28    0.08957      0.00000     0.40904    0.00139     0.41043
      H   29    0.19708      0.00000     0.29533    0.00759     0.30292
 =======================================================================
   * Total *    0.00000     13.99411    36.82696    0.17893    51.00000

 Normal termination of Gaussian 16 at Thu Dec 10 11:19:41 2020.
