 Gaussian 16, Revision A.03,

 -----------------------------------------------------------
 # opt freq B3LYP/6-31G(d) empiricaldispersion=gd3bj scf=xqc
 -----------------------------------------------------------

 --------------------------------
 CID_141078541_JID_10257_neutraal
 --------------------------------
 Symbolic Z-matrix:
 Charge =  0 Multiplicity = 1

 SCF Done:  E(RB3LYP) =  -912.746406516     A.U. after   16 cycles
 SCF Done:  E(RB3LYP) =  -912.769445853     A.U. after   14 cycles
 SCF Done:  E(RB3LYP) =  -912.774119092     A.U. after   15 cycles
 SCF Done:  E(RB3LYP) =  -912.776111353     A.U. after   15 cycles
 SCF Done:  E(RB3LYP) =  -912.777675573     A.U. after   14 cycles
 SCF Done:  E(RB3LYP) =  -912.777848494     A.U. after   13 cycles
 SCF Done:  E(RB3LYP) =  -912.778287966     A.U. after   13 cycles
 SCF Done:  E(RB3LYP) =  -912.778390934     A.U. after   12 cycles
 SCF Done:  E(RB3LYP) =  -912.778445881     A.U. after   12 cycles
 SCF Done:  E(RB3LYP) =  -912.778460264     A.U. after   11 cycles
 SCF Done:  E(RB3LYP) =  -912.778468083     A.U. after   10 cycles
 SCF Done:  E(RB3LYP) =  -912.778468495     A.U. after   10 cycles
 SCF Done:  E(RB3LYP) =  -912.778468719     A.U. after    9 cycles
 SCF Done:  E(RB3LYP) =  -912.778468799     A.U. after    8 cycles
 SCF Done:  E(RB3LYP) =  -912.778468843     A.U. after    8 cycles
 Optimization completed.
    -- Stationary point found.
 Normal termination of Gaussian 16 at Thu Dec 17 20:17:09 2020.

 --------------------------------------------------------------------
 #N Geom=AllCheck Guess=TCheck SCRF=Check GenChk RB3LYP/6-31G(d) Freq
 --------------------------------------------------------------------

 Structure from the checkpoint file:  "JID_10257.chk"
 --------------------------------
 CID_141078541_JID_10257_neutraal
 --------------------------------
 Charge =  0 Multiplicity = 1

 SCF Done:  E(RB3LYP) =  -912.778468843     A.U. after    1 cycles

  Exact polarizability: 191.809   2.678 162.266  -6.592  -8.440 157.620
 Approx polarizability: 290.175  -3.034 246.896 -13.720 -14.135 280.352

                      1                      2                      3
                      A                      A                      A
 Frequencies --     14.9143                24.2375                37.5896
 Red. masses --      3.9227                11.2739                10.1839
 Frc consts  --      0.0005                 0.0039                 0.0085
 IR Inten    --      0.0084                 0.0779                 0.1742

                      4                      5                      6
                      A                      A                      A
 Frequencies --     49.9411                59.4051                70.8582
 Red. masses --      4.5445                 6.7691                 5.9838
 Frc consts  --      0.0067                 0.0141                 0.0177
 IR Inten    --      0.0568                 0.3822                 0.1591

                      7                      8                      9
                      A                      A                      A
 Frequencies --     93.6649               151.3009               169.2979
 Red. masses --      8.5331                 8.7405                 7.3660
 Frc consts  --      0.0441                 0.1179                 0.1244
 IR Inten    --      0.0944                 0.1038                 3.4868

                     10                     11                     12
                      A                      A                      A
 Frequencies --    217.2525               233.4369               261.3888
 Red. masses --      7.7500                 6.4443                 5.7376
 Frc consts  --      0.2155                 0.2069                 0.2310
 IR Inten    --      1.5260                 1.5719                 3.0161

                     13                     14                     15
                      A                      A                      A
 Frequencies --    288.2837               298.0572               338.1727
 Red. masses --      6.4566                 7.0858                 6.5679
 Frc consts  --      0.3162                 0.3709                 0.4425
 IR Inten    --      1.7399                 0.9660                 3.3875

                     16                     17                     18
                      A                      A                      A
 Frequencies --    367.7677               414.6459               418.9211
 Red. masses --      7.7769                 2.9845                 3.0353
 Frc consts  --      0.6197                 0.3023                 0.3138
 IR Inten    --      1.8289                 0.1520                 0.1073

                     19                     20                     21
                      A                      A                      A
 Frequencies --    449.1355               505.1507               508.0247
 Red. masses --      7.2205                 4.7338                10.2202
 Frc consts  --      0.8582                 0.7117                 1.5541
 IR Inten    --      0.9977                 0.9318                13.6489

                     22                     23                     24
                      A                      A                      A
 Frequencies --    535.3131               578.6668               598.8695
 Red. masses --      3.9973                10.3823                11.0397
 Frc consts  --      0.6749                 2.0483                 2.3328
 IR Inten    --      1.7240                15.4217                19.9229

                     25                     26                     27
                      A                      A                      A
 Frequencies --    635.4880               635.5779               651.9413
 Red. masses --      6.4442                 6.4451                 8.5990
 Frc consts  --      1.5333                 1.5340                 2.1534
 IR Inten    --      0.3697                 0.7223                10.0275

                     28                     29                     30
                      A                      A                      A
 Frequencies --    673.3064               680.0278               710.2051
 Red. masses --      7.9041                 7.2660                 1.8695
 Frc consts  --      2.1112                 1.9797                 0.5556
 IR Inten    --     42.4698                31.8079                39.4016

                     31                     32                     33
                      A                      A                      A
 Frequencies --    717.8278               749.4946               770.4853
 Red. masses --      1.8320                 4.7636                 1.8105
 Frc consts  --      0.5562                 1.5766                 0.6333
 IR Inten    --     38.1105                54.2376                20.6761

                     34                     35                     36
                      A                      A                      A
 Frequencies --    787.0153               860.2819               863.5725
 Red. masses --      2.5156                 1.2502                 1.2813
 Frc consts  --      0.9180                 0.5451                 0.5630
 IR Inten    --      3.7123                 0.1795                 0.2434

                     37                     38                     39
                      A                      A                      A
 Frequencies --    869.2006               933.4563               937.3285
 Red. masses --      6.9408                 1.4463                 1.5121
 Frc consts  --      3.0896                 0.7425                 0.7827
 IR Inten    --     15.7445                14.3043                17.6892

                     40                     41                     42
                      A                      A                      A
 Frequencies --    971.7004               973.8934               976.8366
 Red. masses --      4.6847                 1.4577                 1.3507
 Frc consts  --      2.6061                 0.8146                 0.7594
 IR Inten    --     55.0624                 9.1244                 0.6780

                     43                     44                     45
                      A                      A                      A
 Frequencies --    996.5282               999.8153              1006.2716
 Red. masses --      1.8540                 1.3063                 2.5823
 Frc consts  --      1.0848                 0.7694                 1.5406
 IR Inten    --     35.0849                 6.9056                49.7495

                     46                     47                     48
                      A                      A                      A
 Frequencies --   1016.2138              1024.4647              1025.9066
 Red. masses --      6.4056                 6.1479                 6.0162
 Frc consts  --      3.8974                 3.8017                 3.7307
 IR Inten    --     76.0334                 1.2327                 7.9485

                     49                     50                     51
                      A                      A                      A
 Frequencies --   1064.3724              1066.0913              1117.9350
 Red. masses --      2.1320                 2.0183                 1.5658
 Frc consts  --      1.4231                 1.3515                 1.1530
 IR Inten    --      0.1240                 3.2507                 0.2112

                     52                     53                     54
                      A                      A                      A
 Frequencies --   1127.9666              1195.7589              1195.7937
 Red. masses --      1.6008                 1.0979                 1.0963
 Frc consts  --      1.2000                 0.9249                 0.9236
 IR Inten    --      0.9350                 0.2563                 0.1463

                     55                     56                     57
                      A                      A                      A
 Frequencies --   1215.9886              1217.3934              1226.6959
 Red. masses --      1.1764                 1.2524                 2.7944
 Frc consts  --      1.0249                 1.0936                 2.4775
 IR Inten    --     12.7302                30.9141                38.5278

                     58                     59                     60
                      A                      A                      A
 Frequencies --   1261.2198              1348.8709              1356.9850
 Red. masses --      4.9877                 2.2767                 2.2504
 Frc consts  --      4.6744                 2.4406                 2.4415
 IR Inten    --     69.7796                 0.7787                 6.4444

                     61                     62                     63
                      A                      A                      A
 Frequencies --   1368.2737              1370.5397              1375.6579
 Red. masses --      2.2470                 2.2835                13.4479
 Frc consts  --      2.4786                 2.5272                14.9943
 IR Inten    --      0.1591                 1.1963                15.5561

                     64                     65                     66
                      A                      A                      A
 Frequencies --   1463.8498              1496.3074              1500.7551
 Red. masses --     13.8781                 2.2279                 2.2776
 Frc consts  --     17.5215                 2.9390                 3.0223
 IR Inten    --     53.7356                 3.3093                23.2661

                     67                     68                     69
                      A                      A                      A
 Frequencies --   1544.9797              1546.9994              1646.7204
 Red. masses --      2.1910                 2.1973                 5.6903
 Frc consts  --      3.0813                 3.0983                 9.0913
 IR Inten    --      6.5806                 4.5650                 0.0233

                     70                     71                     72
                      A                      A                      A
 Frequencies --   1649.7269              1664.3157              1667.3731
 Red. masses --      5.8000                 5.5581                 5.5595
 Frc consts  --      9.3004                 9.0708                 9.1065
 IR Inten    --      0.2231                 0.7238                 0.1328

                     73                     74                     75
                      A                      A                      A
 Frequencies --   2292.2587              2350.8047              3187.9169
 Red. masses --     12.7688                12.7139                 1.0855
 Frc consts  --     39.5302                41.3963                 6.4998
 IR Inten    --   1018.7289              1202.3653                 0.1032

                     76                     77                     78
                      A                      A                      A
 Frequencies --   3188.2891              3197.7725              3198.8022
 Red. masses --      1.0854                 1.0890                 1.0896
 Frc consts  --      6.5004                 6.5611                 6.5691
 IR Inten    --      0.1538                 9.2969                14.8024

                     79                     80                     81
                      A                      A                      A
 Frequencies --   3208.7140              3210.1099              3217.0033
 Red. masses --      1.0928                 1.0944                 1.0959
 Frc consts  --      6.6293                 6.6448                 6.6824
 IR Inten    --     27.8700                29.4199                15.3168

                     82                     83                     84
                      A                      A                      A
 Frequencies --   3223.6181              3231.6370              3231.7258
 Red. masses --      1.0935                 1.0924                 1.0925
 Frc consts  --      6.6948                 6.7219                 6.7224
 IR Inten    --      7.9586                 6.6674                 2.2049

 - Thermochemistry -
 -------------------
 Temperature   298.150 Kelvin.  Pressure   1.00000 Atm.
 Atom     1 has atomic number  6 and mass  12.00000

 Molecular mass:   266.06914 amu.
 Principal axes and moments of inertia in atomic units:
                           1         2         3
     Eigenvalues --  4716.427695979.286277537.67322
           X            0.99720   0.07475  -0.00207
           Y           -0.07478   0.99707  -0.01642
           Z            0.00083   0.01653   0.99986
 This molecule is an asymmetric top.
 Rotational symmetry number  1.
 Warning -- assumption of classical behavior for rotation
           may cause significant error
 Rotational temperatures (Kelvin)      0.01836     0.01449     0.01149
 Rotational constants (GHZ):           0.38265     0.30183     0.23943
 Zero-point vibrational energy     577678.8 (Joules/Mol)
                                  138.06855 (Kcal/Mol)
 Warning -- explicit consideration of  24 degrees of freedom as
           vibrations may cause significant error
 Vibrational temperatures:     21.46    34.87    54.08    71.85    85.47
          (Kelvin)            101.95   134.76   217.69   243.58   312.58
                              335.86   376.08   414.78   428.84   486.56
                              529.14   596.58   602.73   646.21   726.80
                              730.93   770.20   832.57   861.64   914.33
                              914.45   938.00   968.74   978.41  1021.83
                             1032.79  1078.36  1108.56  1132.34  1237.75
                             1242.49  1250.59  1343.04  1348.61  1398.06
                             1401.22  1405.45  1433.78  1438.51  1447.80
                             1462.11  1473.98  1476.05  1531.39  1533.87
                             1608.46  1622.89  1720.43  1720.48  1749.54
                             1751.56  1764.94  1814.61  1940.72  1952.40
                             1968.64  1971.90  1979.26  2106.15  2152.85
                             2159.25  2222.88  2225.79  2369.26  2373.59
                             2394.58  2398.98  3298.05  3382.28  4586.70
                             4587.24  4600.88  4602.36  4616.62  4618.63
                             4628.55  4638.07  4649.60  4649.73

 Zero-point correction=                           0.220026 (Hartree/Particle)
 Thermal correction to Energy=                    0.236899
 Thermal correction to Enthalpy=                  0.237843
 Thermal correction to Gibbs Free Energy=         0.171905
 Sum of electronic and zero-point Energies=           -912.558443
 Sum of electronic and thermal Energies=              -912.541570
 Sum of electronic and thermal Enthalpies=            -912.540626
 Sum of electronic and thermal Free Energies=         -912.606563

                     E (Thermal)             CV                S
                      KCal/Mol        Cal/Mol-Kelvin    Cal/Mol-Kelvin
 Total                  148.656             63.127            138.777
 Electronic               0.000              0.000              0.000
 Translational            0.889              2.981             42.635
 Rotational               0.889              2.981             33.719
 Vibrational            146.879             57.166             62.423
 Vibration     1          0.593              1.986              7.217
 Vibration     2          0.593              1.985              6.253
 Vibration     3          0.594              1.982              5.382
 Vibration     4          0.595              1.978              4.820
 Vibration     5          0.597              1.974              4.477
 Vibration     6          0.598              1.968              4.129
 Vibration     7          0.603              1.954              3.582
 Vibration     8          0.619              1.901              2.656
 Vibration     9          0.625              1.880              2.443
 Vibration    10          0.646              1.815              1.982
 Vibration    11          0.654              1.790              1.852
 Vibration    12          0.669              1.743              1.652
 Vibration    13          0.685              1.695              1.484
 Vibration    14          0.691              1.677              1.428
 Vibration    15          0.718              1.599              1.221
 Vibration    16          0.740              1.539              1.089
 Vibration    17          0.778              1.438              0.910
 Vibration    18          0.782              1.429              0.896
 Vibration    19          0.808              1.363              0.798
 Vibration    20          0.860              1.239              0.645
 Vibration    21          0.863              1.232              0.638
 Vibration    22          0.890              1.172              0.575
 Vibration    23          0.935              1.077              0.488
 Vibration    24          0.957              1.034              0.452

                           ! Non-Optimized Parameters !
 Normal termination of Gaussian 16 at Thu Dec 17 20:33:08 2020.

 ----------------------------------------------------------------------
 # B3LYP/6-311++G(d,p) empiricaldispersion=gd3bj scf=xqc pop=npa geom=c
 heck
 ----------------------------------------------------------------------

 ----------------------------------------
 CID_141078541_JID_10257_Energie_neutraal
 ----------------------------------------
 Structure from the checkpoint file:  "JID_10257.chk"
 Charge =  0 Multiplicity = 1

 SCF Done:  E(RB3LYP) =  -913.027577550     A.U. after   17 cycles
 Normal termination of Gaussian 16 at Thu Dec 17 20:40:14 2020.

 ----------------------------------------------------------------------
 # B3LYP/6-311++G(d,p) empiricaldispersion=gd3bj scf=xqc pop=npa geom=c
 heck
 ----------------------------------------------------------------------

 --------------------------------------
 CID_141078541_JID_10257_Energie_kation
 --------------------------------------
 Structure from the checkpoint file:  "JID_10257.chk"
 Charge =  1 Multiplicity = 2

 SCF Done:  E(UB3LYP) =  -912.712099994     A.U. after   33 cycles
 SCF Done:  E(UB3LYP) =  -912.712099994     a.u. after    1 cycles
 Normal termination of Gaussian 16 at Thu Dec 17 20:59:23 2020.
 Gaussian 16:  ES64L-G16RevA.03 25-Dec-2016

 ----------------------------------------------------------------------
 # B3LYP/6-311++G(d,p) empiricaldispersion=gd3bj scf=xqc pop=npa geom=c
 heck
 ----------------------------------------------------------------------

 -------------------------------------
 CID_141078541_JID_10257_Energie_anion
 -------------------------------------
 Structure from the checkpoint file:  "JID_10257.chk"
 Charge = -1 Multiplicity = 2

                         Standard orientation:
 ---------------------------------------------------------------------
 Center     Atomic      Atomic             Coordinates (Angstroms)
 Number     Number       Type             X           Y           Z
 ---------------------------------------------------------------------
      1          6           0       -4.338175   -0.408896   -0.391551
      2          6           0       -3.793692   -0.998655    0.748656
      3          6           0       -2.415165   -0.974418    0.961513
      4          6           0       -1.574779   -0.350613    0.037957
      5          6           0       -2.122911    0.244685   -1.103472
      6          6           0       -3.498153    0.210881   -1.319010
      7          6           0       -0.062216   -0.332723    0.238678
      8          6           0        0.521590    1.068244    0.066720
      9          6           0        1.038118    1.487721   -1.161991
     10          6           0        1.514353    2.790201   -1.313924
     11          6           0        1.470501    3.684135   -0.244690
     12          6           0        0.946401    3.269598    0.980997
     13          6           0        0.473557    1.968370    1.135808
     14          7           0        0.270021   -0.877661    1.534024
     15          6           0        1.347683   -1.134758    2.038474
     16          8           0        2.293192   -1.431423    2.667297
     17          8           0        0.396327   -1.228582   -0.805019
     18          7           0        1.803824   -1.386105   -0.685069
     19          6           0        2.346550   -2.289582   -1.324536
     20          8           0        3.032510   -3.069194   -1.869451
     21          1           0       -5.411718   -0.428087   -0.556285
     22          1           0       -4.440625   -1.480867    1.475797
     23          1           0       -1.985739   -1.433711    1.844143
     24          1           0       -1.475090    0.741959   -1.816909
     25          1           0       -3.914630    0.674832   -2.208344
     26          1           0        1.078703    0.793484   -1.992927
     27          1           0        1.923858    3.102588   -2.270268
     28          1           0        1.842675    4.697456   -0.364452
     29          1           0        0.905593    3.959546    1.818851
     30          1           0        0.061855    1.647614    2.087328
 ---------------------------------------------------------------------

 SCF Done:  E(UB3LYP) =  -913.045840154     A.U. after   26 cycles

 The electronic state is 2-A.
 Alpha  occ. eigenvalues --  -19.05627 -19.02868 -19.01087 -14.21561 -14.20672
 Alpha  occ. eigenvalues --  -10.19300 -10.16768 -10.12216 -10.07279 -10.07196
 Alpha  occ. eigenvalues --  -10.07080 -10.06845 -10.06713 -10.06596 -10.06500
 Alpha  occ. eigenvalues --  -10.06334 -10.06316 -10.05986 -10.05922 -10.05635
 Alpha  occ. eigenvalues --   -0.99414  -0.96107  -0.94609  -0.83840  -0.76031
 Alpha  occ. eigenvalues --   -0.74736  -0.73577  -0.66730  -0.64259  -0.63930
 Alpha  occ. eigenvalues --   -0.63495  -0.57908  -0.51152  -0.50054  -0.49578
 Alpha  occ. eigenvalues --   -0.48009  -0.44601  -0.42904  -0.41100  -0.39846
 Alpha  occ. eigenvalues --   -0.37959  -0.36988  -0.36063  -0.35014  -0.34704
 Alpha  occ. eigenvalues --   -0.34423  -0.33672  -0.33132  -0.32225  -0.31898
 Alpha  occ. eigenvalues --   -0.31236  -0.30904  -0.30073  -0.28963  -0.26566
 Alpha  occ. eigenvalues --   -0.25889  -0.25310  -0.24274  -0.23824  -0.23619
 Alpha  occ. eigenvalues --   -0.23267  -0.18990  -0.18243  -0.16268  -0.15461
 Alpha  occ. eigenvalues --   -0.15055  -0.14660  -0.13606  -0.10252   0.03797
 Alpha virt. eigenvalues --    0.07271   0.07628   0.08367   0.08590   0.08772
 Alpha virt. eigenvalues --    0.09363   0.09418   0.09709   0.10012   0.10980
 Alpha virt. eigenvalues --    0.11322   0.12169   0.12846   0.13464   0.13894

  Beta  occ. eigenvalues --  -19.05623 -19.02368 -19.00704 -14.21545 -14.20547
  Beta  occ. eigenvalues --  -10.19292 -10.16744 -10.11752 -10.07241 -10.07204
  Beta  occ. eigenvalues --  -10.07094 -10.06752 -10.06682 -10.06541 -10.06532
  Beta  occ. eigenvalues --  -10.06315 -10.06284 -10.05938 -10.05760 -10.05537
  Beta  occ. eigenvalues --   -0.99398  -0.95199  -0.93821  -0.83687  -0.75789
  Beta  occ. eigenvalues --   -0.74570  -0.73112  -0.66391  -0.64177  -0.63734
  Beta  occ. eigenvalues --   -0.63354  -0.57648  -0.51056  -0.49928  -0.49353
  Beta  occ. eigenvalues --   -0.47897  -0.43990  -0.42799  -0.40865  -0.39777
  Beta  occ. eigenvalues --   -0.37697  -0.36744  -0.35550  -0.34864  -0.34631
  Beta  occ. eigenvalues --   -0.34223  -0.33592  -0.32871  -0.32057  -0.31788
  Beta  occ. eigenvalues --   -0.31118  -0.30619  -0.29569  -0.27373  -0.26296
  Beta  occ. eigenvalues --   -0.25702  -0.24988  -0.24221  -0.23661  -0.23546
  Beta  occ. eigenvalues --   -0.22808  -0.18785  -0.18014  -0.15521  -0.15022
  Beta  occ. eigenvalues --   -0.14665  -0.14243  -0.13056  -0.09857
  Beta virt. eigenvalues --    0.07175   0.07567   0.08252   0.08623   0.08826
  Beta virt. eigenvalues --    0.09274   0.09552   0.09721   0.10231   0.10911
  Beta virt. eigenvalues --    0.11093   0.11580   0.12381   0.13389   0.13608

 Mulliken charges and spin densities:
               1          2
     1  C   -0.248550   0.071443
     2  C   -0.432317  -0.010960
     3  C    0.190644   0.101525
     4  C   -0.032000   0.005929
     5  C   -0.691392   0.050114
     6  C   -0.223594   0.059262
     7  C   -0.289383  -0.047364
     8  C    0.973872   0.054201
     9  C   -0.607098   0.070737
    10  C   -0.261609  -0.020989
    11  C   -0.332731   0.021063
    12  C   -0.395557   0.001427
    13  C    0.130510   0.033760
    14  N   -0.030133   0.001394
    15  C    0.425755  -0.012015
    16  O   -0.282596  -0.000192
    17  O    0.232525  -0.054968
    18  N   -0.364623   0.129011
    19  C    0.302383   0.288963
    20  O   -0.363016   0.117575
    21  H    0.108589  -0.006876
    22  H    0.129147   0.013863
    23  H    0.146689   0.027924
    24  H    0.079107   0.013497
    25  H    0.130868   0.017496
    26  H    0.162037   0.042828
    27  H    0.144582   0.004699
    28  H    0.118386  -0.005286
    29  H    0.135093   0.008797
    30  H    0.144413   0.023140
 Sum of Mulliken charges =  -1.00000   1.00000

 Dipole moment (field-independent basis, Debye):
    X=             -3.7418    Y=              5.0225    Z=              1.1383  Tot=              6.3658
 Quadrupole moment (field-independent basis, Debye-Ang):
   XX=           -154.8701   YY=           -143.7426   ZZ=           -128.7860
   XY=             14.9799   XZ=              1.0073   YZ=             -7.7849

 Summary of Natural Population Analysis:

                                       Natural Population
                Natural  -----------------------------------------------
    Atom  No    Charge         Core      Valence    Rydberg      Total
 -----------------------------------------------------------------------
      C    1   -0.07809      0.99957     2.06967    0.00885     3.07809
      C    2   -0.11489      0.99957     2.10584    0.00948     3.11489
      C    3   -0.07758      0.99951     2.06941    0.00865     3.07758
      C    4   -0.00972      0.99944     1.99807    0.01221     3.00972
      C    5   -0.07976      0.99951     2.07217    0.00807     3.07976
      C    6   -0.10809      0.99957     2.09900    0.00951     3.10809
      C    7    0.22082      0.99942     1.75923    0.02053     2.77918
      C    8   -0.01555      0.99945     2.00415    0.01195     3.01555
      C    9   -0.08532      0.99951     2.07661    0.00920     3.08532
      C   10   -0.10699      0.99957     2.09884    0.00858     3.10699
      C   11   -0.09249      0.99957     2.08404    0.00888     3.09249
      C   12   -0.10704      0.99957     2.09877    0.00870     3.10704
      C   13   -0.09198      0.99951     2.08412    0.00835     3.09198
      N   14   -0.29648      0.99950     2.78719    0.00979     3.79648
      C   15    0.44224      0.99960     1.53864    0.01952     2.55776
      O   16   -0.26253      0.99986     3.25580    0.00687     4.26253
      O   17   -0.17691      0.99987     3.16766    0.00938     4.17691
      N   18   -0.18457      0.99950     2.67264    0.01243     3.68457
      C   19    0.46824      0.99968     1.51299    0.01909     2.53176
      O   20   -0.23270      0.99987     3.22578    0.00706     4.23270
      H   21    0.09145      0.00000     0.40761    0.00093     0.40855
      H   22    0.09414      0.00000     0.40499    0.00087     0.40586
      H   23    0.10724      0.00000     0.39175    0.00101     0.39276
      H   24    0.10354      0.00000     0.39472    0.00174     0.39646
      H   25    0.09411      0.00000     0.40481    0.00108     0.40589
      H   26    0.11122      0.00000     0.38737    0.00141     0.38878
      H   27    0.09599      0.00000     0.40314    0.00087     0.40401
      H   28    0.09312      0.00000     0.40593    0.00095     0.40688
      H   29    0.09531      0.00000     0.40379    0.00089     0.40469
      H   30    0.10329      0.00000     0.39529    0.00142     0.39671
 =======================================================================
   * Total *    0.00000     19.99168    48.78006    0.22826    69.00000

 Normal termination of Gaussian 16 at Thu Dec 17 21:14:24 2020.
