 Gaussian 16, Revision A.03,

 -----------------------------------------------------------
 # opt freq B3LYP/6-31G(d) empiricaldispersion=gd3bj scf=xqc
 -----------------------------------------------------------

 ------------------------------
 CID_69968787_JID_4664_neutraal
 ------------------------------
 Symbolic Z-matrix:
 Charge =  0 Multiplicity = 1

 SCF Done:  E(RB3LYP) =  -741.168354861     A.U. after   14 cycles
 SCF Done:  E(RB3LYP) =  -741.165587295     A.U. after   14 cycles
 SCF Done:  E(RB3LYP) =  -741.172480386     A.U. after   13 cycles
 SCF Done:  E(RB3LYP) =  -741.173195063     A.U. after   13 cycles
 SCF Done:  E(RB3LYP) =  -741.173180349     A.U. after   12 cycles
 SCF Done:  E(RB3LYP) =  -741.173983318     A.U. after   13 cycles
 SCF Done:  E(RB3LYP) =  -741.175599594     A.U. after   13 cycles
 SCF Done:  E(RB3LYP) =  -741.176120456     A.U. after   11 cycles
 SCF Done:  E(RB3LYP) =  -741.176488381     A.U. after   12 cycles
 SCF Done:  E(RB3LYP) =  -741.176556563     A.U. after   11 cycles
 SCF Done:  E(RB3LYP) =  -741.176670280     A.U. after    9 cycles
 SCF Done:  E(RB3LYP) =  -741.176670460     A.U. after    7 cycles
 SCF Done:  E(RB3LYP) =  -741.176670547     A.U. after    7 cycles
 SCF Done:  E(RB3LYP) =  -741.176670588     A.U. after    6 cycles
 SCF Done:  E(RB3LYP) =  -741.176670625     A.U. after    6 cycles
 SCF Done:  E(RB3LYP) =  -741.176670644     A.U. after    6 cycles
 Optimization completed.
    -- Stationary point found.
 Normal termination of Gaussian 16 at Thu Dec 10 10:21:34 2020.

 --------------------------------------------------------------------
 #N Geom=AllCheck Guess=TCheck SCRF=Check GenChk RB3LYP/6-31G(d) Freq
 --------------------------------------------------------------------

 Structure from the checkpoint file:  "JID_4664.chk"
 ------------------------------
 CID_69968787_JID_4664_neutraal
 ------------------------------
 Charge =  0 Multiplicity = 1

 SCF Done:  E(RB3LYP) =  -741.176670644     A.U. after    1 cycles

  Exact polarizability: 132.717  -3.312 120.098  -0.543  -6.207  58.374
 Approx polarizability: 193.075  -5.064 194.038  -5.905 -10.380  93.115

                      1                      2                      3
                      A                      A                      A
 Frequencies --     66.2602                74.2834                80.6032
 Red. masses --      9.0057                 5.9386                 5.8900
 Frc consts  --      0.0233                 0.0193                 0.0225
 IR Inten    --      1.0585                 0.0472                 1.8291

                      4                      5                      6
                      A                      A                      A
 Frequencies --    108.7466               113.5807               127.5677
 Red. masses --      4.9349                 2.6499                 1.2377
 Frc consts  --      0.0344                 0.0201                 0.0119
 IR Inten    --      0.3109                 0.7038                 0.6081

                      7                      8                      9
                      A                      A                      A
 Frequencies --    193.1124               243.9897               279.2176
 Red. masses --      4.6621                 4.6283                 3.9901
 Frc consts  --      0.1024                 0.1623                 0.1833
 IR Inten    --      0.5915                 5.3903                 6.5083

                     10                     11                     12
                      A                      A                      A
 Frequencies --    293.9801               321.1615               332.4698
 Red. masses --      6.4234                 4.9234                 4.4263
 Frc consts  --      0.3271                 0.2992                 0.2883
 IR Inten    --      2.5411                 1.2542                10.4385

                     13                     14                     15
                      A                      A                      A
 Frequencies --    366.0790               414.2072               427.0448
 Red. masses --      4.0229                 3.9550                 1.3117
 Frc consts  --      0.3176                 0.3998                 0.1409
 IR Inten    --     15.7290                32.8805                84.3797

                     16                     17                     18
                      A                      A                      A
 Frequencies --    526.0464               544.7290               570.7450
 Red. masses --      5.2727                 3.7278                 5.7993
 Frc consts  --      0.8597                 0.6517                 1.1130
 IR Inten    --      3.9647                 2.4177                15.8413

                     19                     20                     21
                      A                      A                      A
 Frequencies --    576.0674               584.4294               612.6878
 Red. masses --      1.2901                 3.1767                 1.3980
 Frc consts  --      0.2522                 0.6393                 0.3092
 IR Inten    --    120.9275                38.0850                35.9557

                     22                     23                     24
                      A                      A                      A
 Frequencies --    643.0791               671.1180               728.9051
 Red. masses --      3.4671                 5.3793                 6.1014
 Frc consts  --      0.8448                 1.4275                 1.9099
 IR Inten    --     32.5495                25.2517                 4.0420

                     25                     26                     27
                      A                      A                      A
 Frequencies --    757.7399               782.4196               784.9143
 Red. masses --      7.0472                 7.8603                 5.4658
 Frc consts  --      2.3840                 2.8351                 1.9840
 IR Inten    --      2.8524                62.4776                12.9966

                     28                     29                     30
                      A                      A                      A
 Frequencies --    916.8376               932.2028               976.4375
 Red. masses --      1.3771                 4.3869                 1.7506
 Frc consts  --      0.6820                 2.2461                 0.9834
 IR Inten    --      3.1859                 9.6674                23.8082

                     31                     32                     33
                      A                      A                      A
 Frequencies --   1021.3848              1028.3797              1069.0283
 Red. masses --      1.9494                 4.2314                 1.8752
 Frc consts  --      1.1982                 2.6366                 1.2626
 IR Inten    --     13.8246                12.3186                31.2995

                     34                     35                     36
                      A                      A                      A
 Frequencies --   1070.3650              1116.9885              1217.7227
 Red. masses --      3.5684                 5.0987                 1.2200
 Frc consts  --      2.4087                 3.7480                 1.0658
 IR Inten    --     65.3251                54.8301                46.6068

                     37                     38                     39
                      A                      A                      A
 Frequencies --   1232.5149              1252.0324              1279.2358
 Red. masses --      1.8440                 5.2353                 4.9804
 Frc consts  --      1.6504                 4.8353                 4.8019
 IR Inten    --    557.4018                86.0507                64.7500

                     40                     41                     42
                      A                      A                      A
 Frequencies --   1324.5535              1332.7142              1370.3628
 Red. masses --      1.8257                 2.6518                 1.7876
 Frc consts  --      1.8872                 2.7750                 1.9779
 IR Inten    --     23.1222                54.9351                85.2196

                     43                     44                     45
                      A                      A                      A
 Frequencies --   1395.3685              1433.0529              1437.9877
 Red. masses --      1.3041                 1.3851                 1.5924
 Frc consts  --      1.4960                 1.6760                 1.9401
 IR Inten    --     14.5369                78.1334               153.2626

                     46                     47                     48
                      A                      A                      A
 Frequencies --   1454.6823              1485.7265              1501.6825
 Red. masses --      1.8424                 3.6016                 1.2329
 Frc consts  --      2.2970                 4.6841                 1.6381
 IR Inten    --    258.9356               125.2965                16.0047

                     49                     50                     51
                      A                      A                      A
 Frequencies --   1508.6896              1523.8182              1533.1126
 Red. masses --      1.1103                 1.3887                 1.6595
 Frc consts  --      1.4890                 1.8998                 2.2981
 IR Inten    --      9.6518                 2.5427                13.5482

                     52                     53                     54
                      A                      A                      A
 Frequencies --   1616.9382              1654.2300              1818.5098
 Red. masses --      5.9782                 9.0404                 9.4553
 Frc consts  --      9.2088                14.5756                18.4229
 IR Inten    --      1.7562                40.8189               333.7000

                     55                     56                     57
                      A                      A                      A
 Frequencies --   2999.7769              3058.2563              3110.5883
 Red. masses --      1.0717                 1.0379                 1.0996
 Frc consts  --      5.6821                 5.7194                 6.2688
 IR Inten    --     61.6800                14.2943                12.5368

                     58                     59                     60
                      A                      A                      A
 Frequencies --   3117.7029              3166.3479              3176.3993
 Red. masses --      1.0924                 1.1019                 1.0905
 Frc consts  --      6.2563                 6.5088                 6.4828
 IR Inten    --     22.7009                 8.8327                22.5280

                     61                     62                     63
                      A                      A                      A
 Frequencies --   3550.5006              3734.3756              3748.7006
 Red. masses --      1.0662                 1.0650                 1.0656
 Frc consts  --      7.9191                 8.7506                 8.8228
 IR Inten    --    362.2196               130.4428                25.9743

 - Thermochemistry -
 -------------------
 Temperature   298.150 Kelvin.  Pressure   1.00000 Atm.
 Atom     1 has atomic number  6 and mass  12.00000

 Molecular mass:   199.04807 amu.
 Principal axes and moments of inertia in atomic units:
                           1         2         3
     Eigenvalues --  2011.396762878.794774612.76727
           X            0.99871  -0.05065   0.00358
           Y            0.05069   0.99865  -0.01134
           Z           -0.00300   0.01151   0.99993
 This molecule is an asymmetric top.
 Rotational symmetry number  1.
 Warning -- assumption of classical behavior for rotation
           may cause significant error
 Rotational temperatures (Kelvin)      0.04306     0.03009     0.01878
 Rotational constants (GHZ):           0.89726     0.62691     0.39125
 Zero-point vibrational energy     456928.0 (Joules/Mol)
                                  109.20841 (Kcal/Mol)
 Warning -- explicit consideration of  21 degrees of freedom as
           vibrations may cause significant error
 Vibrational temperatures:     95.33   106.88   115.97   156.46   163.42
          (Kelvin)            183.54   277.85   351.05   401.73   422.97
                              462.08   478.35   526.71   595.95   614.42
                              756.86   783.74   821.17   828.83   840.86
                              881.52   925.25   965.59  1048.73  1090.22
                             1125.73  1129.32  1319.12  1341.23  1404.88
                             1469.54  1479.61  1538.09  1540.02  1607.10
                             1752.03  1773.31  1801.40  1840.53  1905.74
                             1917.48  1971.65  2007.62  2061.84  2068.94
                             2092.96  2137.63  2160.59  2170.67  2192.43
                             2205.81  2326.41  2380.07  2616.43  4316.01
                             4400.15  4475.44  4485.68  4555.67  4570.13
                             5108.38  5372.93  5393.54

 Zero-point correction=                           0.174035 (Hartree/Particle)
 Thermal correction to Energy=                    0.187096
 Thermal correction to Enthalpy=                  0.188040
 Thermal correction to Gibbs Free Energy=         0.134219
 Sum of electronic and zero-point Energies=           -741.002636
 Sum of electronic and thermal Energies=              -740.989575
 Sum of electronic and thermal Enthalpies=            -740.988631
 Sum of electronic and thermal Free Energies=         -741.042451

                     E (Thermal)             CV                S
                      KCal/Mol        Cal/Mol-Kelvin    Cal/Mol-Kelvin
 Total                  117.404             48.472            113.275
 Electronic               0.000              0.000              0.000
 Translational            0.889              2.981             41.770
 Rotational               0.889              2.981             31.658
 Vibrational            115.627             42.510             39.847
 Vibration     1          0.598              1.970              4.261
 Vibration     2          0.599              1.966              4.037
 Vibration     3          0.600              1.962              3.876
 Vibration     4          0.606              1.942              3.291
 Vibration     5          0.607              1.938              3.207
 Vibration     6          0.611              1.926              2.982
 Vibration     7          0.635              1.849              2.198
 Vibration     8          0.659              1.773              1.774
 Vibration     9          0.680              1.712              1.538
 Vibration    10          0.689              1.685              1.451
 Vibration    11          0.707              1.633              1.304
 Vibration    12          0.714              1.611              1.248
 Vibration    13          0.739              1.542              1.096
 Vibration    14          0.778              1.439              0.912
 Vibration    15          0.789              1.411              0.868
 Vibration    16          0.881              1.192              0.596
 Vibration    17          0.900              1.151              0.555
 Vibration    18          0.927              1.095              0.503
 Vibration    19          0.932              1.083              0.493
 Vibration    20          0.941              1.065              0.477
 Vibration    21          0.972              1.005              0.428

 Optimization completed.
    -- Stationary point found.
 Normal termination of Gaussian 16 at Thu Dec 10 10:27:50 2020.

 ----------------------------------------------------------------------
 # B3LYP/6-311++G(d,p) empiricaldispersion=gd3bj scf=xqc pop=npa geom=c
 heck
 ----------------------------------------------------------------------

 --------------------------------------
 CID_69968787_JID_4664_Energie_neutraal
 --------------------------------------
 Structure from the checkpoint file:  "JID_4664.chk"
 Charge =  0 Multiplicity = 1

 SCF Done:  E(RB3LYP) =  -741.413008350     A.U. after   16 cycles
 Normal termination of Gaussian 16 at Thu Dec 10 10:30:09 2020.

 ----------------------------------------------------------------------
 # B3LYP/6-311++G(d,p) empiricaldispersion=gd3bj scf=xqc pop=npa geom=c
 heck
 ----------------------------------------------------------------------

 ------------------------------------
 CID_69968787_JID_4664_Energie_kation
 ------------------------------------
 Structure from the checkpoint file:  "JID_4664.chk"
 Charge =  1 Multiplicity = 2

 SCF Done:  E(UB3LYP) =  -741.091480563     A.U. after   28 cycles
 Normal termination of Gaussian 16 at Thu Dec 10 10:35:16 2020.
 Gaussian 16:  ES64L-G16RevA.03 25-Dec-2016

 ----------------------------------------------------------------------
 # B3LYP/6-311++G(d,p) empiricaldispersion=gd3bj scf=xqc pop=npa geom=c
 heck
 ----------------------------------------------------------------------

 -----------------------------------
 CID_69968787_JID_4664_Energie_anion
 -----------------------------------
 Structure from the checkpoint file:  "JID_4664.chk"
 Charge = -1 Multiplicity = 2

                         Standard orientation:
 ---------------------------------------------------------------------
 Center     Atomic      Atomic             Coordinates (Angstroms)
 Number     Number       Type             X           Y           Z
 ---------------------------------------------------------------------
      1          6           0        3.483652   -1.195995    0.185861
      2          6           0        2.313321   -0.266367    0.024223
      3          7           0        2.553941    1.013552   -0.264840
      4          6           0        1.518202    1.850670   -0.402945
      5          6           0        0.185658    1.477218   -0.255917
      6          6           0       -0.048583    0.135407    0.056650
      7          6           0        1.002702   -0.770526    0.195956
      8          8           0        0.861588   -2.079185    0.526944
      9          8           0       -1.398833   -0.177724    0.325721
     10          6           0       -2.002451   -1.253151   -0.187186
     11          8           0       -1.479522   -2.166673   -0.797028
     12          8           0       -3.306485   -1.166891    0.091263
     13          6           0       -0.954572    2.460985   -0.401990
     14          8           0       -1.678250    2.676392    0.801688
     15          1           0        4.404538   -0.651224   -0.029128
     16          1           0        3.531172   -1.598394    1.204504
     17          1           0        3.397540   -2.056360   -0.487040
     18          1           0        1.761757    2.883163   -0.645938
     19          1           0        0.057871   -2.419281    0.080316
     20          1           0       -3.719882   -1.973115   -0.264468
     21          1           0       -0.548732    3.434373   -0.690026
     22          1           0       -1.625059    2.132218   -1.211881
     23          1           0       -2.112350    1.836962    1.020919
 ---------------------------------------------------------------------

 SCF Done:  E(UB3LYP) =  -741.414158996     A.U. after   29 cycles

 The electronic state is 2-A.
 Alpha  occ. eigenvalues --  -19.09583 -19.07340 -19.04017 -19.02705 -19.01526
 Alpha  occ. eigenvalues --  -14.19136 -10.26355 -10.13492 -10.13289 -10.11996
 Alpha  occ. eigenvalues --  -10.09647 -10.09376 -10.07432 -10.06276  -1.06235
 Alpha  occ. eigenvalues --   -0.97567  -0.95580  -0.93709  -0.91759  -0.83270
 Alpha  occ. eigenvalues --   -0.71202  -0.67328  -0.62360  -0.59470  -0.55923
 Alpha  occ. eigenvalues --   -0.51782  -0.48730  -0.47775  -0.43006  -0.41993
 Alpha  occ. eigenvalues --   -0.40677  -0.39929  -0.39421  -0.36260  -0.34301
 Alpha  occ. eigenvalues --   -0.33950  -0.33335  -0.32050  -0.31440  -0.30317
 Alpha  occ. eigenvalues --   -0.29153  -0.28203  -0.26514  -0.25785  -0.25246
 Alpha  occ. eigenvalues --   -0.23802  -0.22948  -0.20640  -0.18147  -0.16372
 Alpha  occ. eigenvalues --   -0.14838  -0.13057   0.04259
 Alpha virt. eigenvalues --    0.06562   0.08034   0.08585   0.09485   0.10205
 Alpha virt. eigenvalues --    0.11033   0.11194   0.11508   0.12111   0.12263
 Alpha virt. eigenvalues --    0.13313   0.14687   0.15010   0.15118   0.16434

  Beta  occ. eigenvalues --  -19.09564 -19.07223 -19.04013 -19.02666 -19.01495
  Beta  occ. eigenvalues --  -14.18986 -10.26309 -10.13345 -10.13276 -10.11987
  Beta  occ. eigenvalues --  -10.09506 -10.09406 -10.07358 -10.06285  -1.06099
  Beta  occ. eigenvalues --   -0.97399  -0.95559  -0.93601  -0.91682  -0.83022
  Beta  occ. eigenvalues --   -0.70926  -0.67149  -0.62203  -0.59349  -0.55866
  Beta  occ. eigenvalues --   -0.51692  -0.48562  -0.47612  -0.42872  -0.41891
  Beta  occ. eigenvalues --   -0.40589  -0.39780  -0.39275  -0.36143  -0.34174
  Beta  occ. eigenvalues --   -0.33754  -0.33246  -0.31920  -0.31349  -0.30278
  Beta  occ. eigenvalues --   -0.29029  -0.28156  -0.26314  -0.25677  -0.25124
  Beta  occ. eigenvalues --   -0.23663  -0.22771  -0.20589  -0.18070  -0.15604
  Beta  occ. eigenvalues --   -0.14637  -0.12659
  Beta virt. eigenvalues --    0.07567   0.08118   0.08501   0.08719   0.09587
  Beta virt. eigenvalues --    0.10656   0.11109   0.11296   0.11758   0.12234
  Beta virt. eigenvalues --    0.12511   0.13454   0.14688   0.15082   0.15251

 Mulliken charges and spin densities:
               1          2
     1  C   -0.479698  -0.056249
     2  C   -0.008150  -0.193935
     3  N   -0.013980   0.077824
     4  C   -0.455747  -0.149022
     5  C   -0.039588   1.092193
     6  C    0.942013  -0.757512
     7  C   -0.138903   0.040826
     8  O   -0.285122  -0.012451
     9  O   -0.116017  -0.082019
    10  C    0.533915  -0.391658
    11  O   -0.281838  -0.023155
    12  O   -0.208810   0.026525
    13  C   -0.064091  -0.559203
    14  O   -0.259760   0.004798
    15  H    0.148103   0.000439
    16  H    0.150506   0.005468
    17  H    0.116121   0.040206
    18  H    0.144688  -0.000210
    19  H    0.192496   0.109230
    20  H   -1.000771   1.338319
    21  H    0.142669   0.023114
    22  H   -0.162927   0.332237
    23  H    0.144892   0.134233
 Sum of Mulliken charges =  -1.00000   1.00000

 Dipole moment (field-independent basis, Debye):
    X=              6.7483    Y=              2.0804    Z=              0.1036  Tot=              7.0625
 Quadrupole moment (field-independent basis, Debye-Ang):
   XX=           -147.9614   YY=           -117.2784   ZZ=            -96.5541
   XY=            -14.3787   XZ=             -1.8084   YZ=             -6.5517

 Summary of Natural Population Analysis:

                                       Natural Population
                Natural  -----------------------------------------------
    Atom  No    Charge         Core      Valence    Rydberg      Total
 -----------------------------------------------------------------------
      C    1   -0.29954      0.99964     2.29466    0.00523     3.29954
      C    2    0.11288      0.99954     1.87418    0.01339     2.88712
      N    3   -0.22472      0.99968     2.71292    0.01212     3.72472
      C    4    0.01686      0.99955     1.97045    0.01314     2.98314
      C    5   -0.05105      0.99946     2.04201    0.00958     3.05105
      C    6    0.16523      0.99924     1.82228    0.01326     2.83477
      C    7    0.11844      0.99929     1.86905    0.01322     2.88156
      O    8   -0.35517      0.99987     3.34890    0.00640     4.35517
      O    9   -0.27714      0.99982     3.26544    0.01187     4.27714
      C   10    0.52932      0.99974     1.44366    0.02728     2.47068
      O   11   -0.33642      0.99985     3.32991    0.00666     4.33642
      O   12   -0.32802      0.99987     3.32151    0.00665     4.32802
      C   13   -0.01630      0.99956     2.00205    0.01468     3.01630
      O   14   -0.37001      0.99990     3.36382    0.00629     4.37001
      H   15    0.10420      0.00000     0.39445    0.00135     0.39580
      H   16    0.10403      0.00000     0.39489    0.00108     0.39597
      H   17    0.10505      0.00000     0.39373    0.00122     0.39495
      H   18    0.08543      0.00000     0.41308    0.00149     0.41457
      H   19    0.25012      0.00000     0.24649    0.00339     0.24988
      H   20    0.25849      0.00000     0.16446    0.07705     0.24151
      H   21    0.08700      0.00000     0.41188    0.00112     0.41300
      H   22    0.08523      0.00000     0.41339    0.00138     0.41477
      H   23    0.23609      0.00000     0.26050    0.00341     0.26391
 =======================================================================
   * Total *   -0.00000     13.99501    37.75372    0.25126    52.00000

 Normal termination of Gaussian 16 at Thu Dec 10 10:41:56 2020.
