 Gaussian 16, Revision A.03,

 -----------------------------------------------------------
 # opt freq B3LYP/6-31G(d) empiricaldispersion=gd3bj scf=xqc
 -----------------------------------------------------------

 -------------------------------
 CID_115655589_JID_2168_neutraal
 -------------------------------
 Symbolic Z-matrix:
 Charge =  0 Multiplicity = 1

 SCF Done:  E(RB3LYP) =  -524.928629854     A.U. after   13 cycles
 SCF Done:  E(RB3LYP) =  -524.931631957     A.U. after   11 cycles
 SCF Done:  E(RB3LYP) =  -524.931709948     A.U. after   10 cycles
 SCF Done:  E(RB3LYP) =  -524.932087333     A.U. after   10 cycles
 SCF Done:  E(RB3LYP) =  -524.932178000     A.U. after   10 cycles
 SCF Done:  E(RB3LYP) =  -524.932237975     A.U. after    9 cycles
 SCF Done:  E(RB3LYP) =  -524.932251574     A.U. after    9 cycles
 SCF Done:  E(RB3LYP) =  -524.932254442     A.U. after    8 cycles
 SCF Done:  E(RB3LYP) =  -524.932255558     A.U. after    8 cycles
 SCF Done:  E(RB3LYP) =  -524.932256154     A.U. after    7 cycles
 SCF Done:  E(RB3LYP) =  -524.932256299     A.U. after    6 cycles
 Optimization completed.
    -- Stationary point found.
 Normal termination of Gaussian 16 at Wed Dec  9 16:53:05 2020.

 --------------------------------------------------------------------
 #N Geom=AllCheck Guess=TCheck SCRF=Check GenChk RB3LYP/6-31G(d) Freq
 --------------------------------------------------------------------

 Structure from the checkpoint file:  "JID_2168.chk"
 -------------------------------
 CID_115655589_JID_2168_neutraal
 -------------------------------
 Charge =  0 Multiplicity = 1

 SCF Done:  E(RB3LYP) =  -524.932256299     A.U. after    1 cycles

  Exact polarizability: 134.974   0.898 115.946   2.468  -1.353 102.429
 Approx polarizability: 159.851   2.716 160.395   2.491  -2.074 154.603

                      1                      2                      3
                      A                      A                      A
 Frequencies --     40.2757                48.8856                61.7078
 Red. masses --      2.8705                 3.1755                 2.7436
 Frc consts  --      0.0027                 0.0045                 0.0062
 IR Inten    --      0.1629                 0.6287                 0.1552

                      4                      5                      6
                      A                      A                      A
 Frequencies --     89.4159               109.1483               164.4820
 Red. masses --      2.6030                 3.0060                 3.1185
 Frc consts  --      0.0123                 0.0211                 0.0497
 IR Inten    --      0.4499                 0.2462                 5.6780

                      7                      8                      9
                      A                      A                      A
 Frequencies --    185.9162               231.7954               240.5515
 Red. masses --      1.6744                 1.1998                 2.4344
 Frc consts  --      0.0341                 0.0380                 0.0830
 IR Inten    --      0.9670                 0.1272                 0.9596

                     10                     11                     12
                      A                      A                      A
 Frequencies --    255.5702               262.9603               277.9956
 Red. masses --      1.7580                 1.2237                 1.0722
 Frc consts  --      0.0677                 0.0499                 0.0488
 IR Inten    --      0.8358                 0.1415                 0.0851

                     13                     14                     15
                      A                      A                      A
 Frequencies --    285.7357               305.0771               326.5999
 Red. masses --      1.3937                 1.1670                 2.0310
 Frc consts  --      0.0670                 0.0640                 0.1276
 IR Inten    --      0.5372                 0.2578                 1.3586

                     16                     17                     18
                      A                      A                      A
 Frequencies --    332.2889               363.0713               382.6431
 Red. masses --      2.2158                 2.3191                 2.4603
 Frc consts  --      0.1442                 0.1801                 0.2122
 IR Inten    --      0.1594                 0.8892                 3.4476

                     19                     20                     21
                      A                      A                      A
 Frequencies --    402.8663               414.4419               423.7533
 Red. masses --      2.4268                 2.1402                 2.2153
 Frc consts  --      0.2321                 0.2166                 0.2344
 IR Inten    --      0.7318                 3.3484                 0.8808

                     22                     23                     24
                      A                      A                      A
 Frequencies --    475.5746               566.3626               578.6104
 Red. masses --      2.7155                 2.3705                 2.6961
 Frc consts  --      0.3619                 0.4480                 0.5318
 IR Inten    --     12.4681                 5.5591                 0.7903

                     25                     26                     27
                      A                      A                      A
 Frequencies --    685.9591               755.5076               769.0324
 Red. masses --      1.5064                 2.6516                 2.4328
 Frc consts  --      0.4176                 0.8917                 0.8477
 IR Inten    --     83.4313                32.7950                11.4547

                     28                     29                     30
                      A                      A                      A
 Frequencies --    816.3151               883.6497               896.2576
 Red. masses --      1.2309                 1.8458                 2.2809
 Frc consts  --      0.4833                 0.8492                 1.0795
 IR Inten    --      0.4693                 0.4611                 5.6281

                     31                     32                     33
                      A                      A                      A
 Frequencies --    917.5060               936.0754               945.0566
 Red. masses --      1.9152                 1.5279                 1.7009
 Frc consts  --      0.9499                 0.7888                 0.8951
 IR Inten    --      5.8100                 5.9171                 4.7492

                     34                     35                     36
                      A                      A                      A
 Frequencies --    952.8164               958.8365               970.4862
 Red. masses --      1.5971                 1.5165                 1.2066
 Frc consts  --      0.8543                 0.8215                 0.6696
 IR Inten    --      2.2057                 2.6149                 0.0860

                     37                     38                     39
                      A                      A                      A
 Frequencies --   1030.6298              1060.6308              1069.4533
 Red. masses --      2.1299                 1.6810                 1.6460
 Frc consts  --      1.3329                 1.1142                 1.1092
 IR Inten    --      5.3614                 2.7217                 9.8474

                     40                     41                     42
                      A                      A                      A
 Frequencies --   1089.2792              1129.9954              1140.3537
 Red. masses --      2.3364                 1.9046                 2.0688
 Frc consts  --      1.6333                 1.4329                 1.5851
 IR Inten    --     30.1526                24.9242                 1.0024

                     43                     44                     45
                      A                      A                      A
 Frequencies --   1157.2726              1180.9841              1201.4934
 Red. masses --      1.9250                 2.6706                 2.7225
 Frc consts  --      1.5189                 2.1946                 2.3156
 IR Inten    --     14.1677               121.8010                35.7447

                     46                     47                     48
                      A                      A                      A
 Frequencies --   1213.8709              1240.3361              1251.9935
 Red. masses --      2.0097                 1.6937                 2.3811
 Frc consts  --      1.7448                 1.5352                 2.1990
 IR Inten    --     37.3550                21.2084                 3.6110

                     49                     50                     51
                      A                      A                      A
 Frequencies --   1282.9953              1288.2119              1332.5899
 Red. masses --      2.1011                 2.2252                 1.3388
 Frc consts  --      2.0377                 2.1757                 1.4008
 IR Inten    --      9.0309                 3.7466                 9.1632

                     52                     53                     54
                      A                      A                      A
 Frequencies --   1350.2495              1366.9633              1405.3087
 Red. masses --      1.1069                 1.2816                 1.2387
 Frc consts  --      1.1890                 1.4110                 1.4413
 IR Inten    --      5.7772                 2.8263                 4.0337

                     55                     56                     57
                      A                      A                      A
 Frequencies --   1413.0516              1425.2068              1427.3924
 Red. masses --      1.2053                 1.2626                 1.2630
 Frc consts  --      1.4179                 1.5110                 1.5162
 IR Inten    --      1.2784                 6.6760                 2.3769

                     58                     59                     60
                      A                      A                      A
 Frequencies --   1428.6662              1432.1865              1437.1541
 Red. masses --      1.2205                 1.3845                 1.2522
 Frc consts  --      1.4677                 1.6731                 1.5238
 IR Inten    --      0.7059                 4.4388                15.2698

                     61                     62                     63
                      A                      A                      A
 Frequencies --   1441.0838              1459.5343              1503.2567
 Red. masses --      1.2804                 1.2375                 1.0827
 Frc consts  --      1.5667                 1.5532                 1.4415
 IR Inten    --     18.3144                 9.5316                 5.3924

                     64                     65                     66
                      A                      A                      A
 Frequencies --   1510.4909              1512.3229              1515.8778
 Red. masses --      1.1410                 1.0670                 1.0485
 Frc consts  --      1.5338                 1.4378                 1.4196
 IR Inten    --     17.1262                 2.5653                10.3953

                     67                     68                     69
                      A                      A                      A
 Frequencies --   1516.8083              1519.5315              1524.0982
 Red. masses --      1.0568                 1.0477                 1.1231
 Frc consts  --      1.4326                 1.4253                 1.5371
 IR Inten    --      0.3741                 1.0715                14.7602

                     70                     71                     72
                      A                      A                      A
 Frequencies --   1525.9919              1529.6668              1537.8984
 Red. masses --      1.0584                 1.0534                 1.0662
 Frc consts  --      1.4521                 1.4522                 1.4857
 IR Inten    --      7.1340                 6.5519                 9.8132

                     73                     74                     75
                      A                      A                      A
 Frequencies --   1539.3684              1544.8056              1549.9922
 Red. masses --      1.0640                 1.0833                 1.0590
 Frc consts  --      1.4856                 1.5231                 1.4990
 IR Inten    --      9.8822                14.4337                11.0630

                     76                     77                     78
                      A                      A                      A
 Frequencies --   1553.7089              2986.8726              3005.5180
 Red. masses --      1.0772                 1.0667                 1.0647
 Frc consts  --      1.5321                 5.6068                 5.6665
 IR Inten    --      2.6798                66.8809                45.6241

                     79                     80                     81
                      A                      A                      A
 Frequencies --   3034.9478              3036.3481              3037.6668
 Red. masses --      1.0347                 1.0638                 1.0361
 Frc consts  --      5.6153                 5.7783                 5.6327
 IR Inten    --     41.8599                48.5522                33.9263

                     82                     83                     84
                      A                      A                      A
 Frequencies --   3039.6111              3046.1344              3052.9771
 Red. masses --      1.0886                 1.0400                 1.0372
 Frc consts  --      5.9257                 5.6858                 5.6959
 IR Inten    --     25.2140                12.5097                20.7129

                     85                     86                     87
                      A                      A                      A
 Frequencies --   3056.3589              3058.0996              3069.8597
 Red. masses --      1.0404                 1.0935                 1.0878
 Frc consts  --      5.7263                 6.0254                 6.0401
 IR Inten    --     18.4984                38.7837                38.1314

                     88                     89                     90
                      A                      A                      A
 Frequencies --   3086.2801              3098.1241              3101.8060
 Red. masses --      1.0994                 1.1022                 1.1022
 Frc consts  --      6.1697                 6.2329                 6.2477
 IR Inten    --     24.0336                 4.0132                24.0876

                     91                     92                     93
                      A                      A                      A
 Frequencies --   3103.1647              3104.4619              3109.2760
 Red. masses --      1.1024                 1.1011                 1.1014
 Frc consts  --      6.2548                 6.2525                 6.2736
 IR Inten    --      4.4934                79.4938                77.0571

                     94                     95                     96
                      A                      A                      A
 Frequencies --   3118.9457              3122.4185              3129.8819
 Red. masses --      1.0999                 1.1012                 1.1027
 Frc consts  --      6.3040                 6.3253                 6.3647
 IR Inten    --     58.6651                38.2656                25.6606

                     97                     98                     99
                      A                      A                      A
 Frequencies --   3136.4788              3138.5875              3551.1692
 Red. masses --      1.1030                 1.0971                 1.0732
 Frc consts  --      6.3933                 6.3677                 7.9741
 IR Inten    --     36.7880                29.9360                 4.2815

 - Thermochemistry -
 -------------------
 Temperature   298.150 Kelvin.  Pressure   1.00000 Atm.
 Atom     1 has atomic number  6 and mass  12.00000

 Molecular mass:   173.17796 amu.
 Principal axes and moments of inertia in atomic units:
                           1         2         3
     Eigenvalues --  1214.419853857.325064285.31304
           X            0.99995  -0.00131   0.00944
           Y            0.00144   0.99990  -0.01393
           Z           -0.00942   0.01395   0.99986
 This molecule is an asymmetric top.
 Rotational symmetry number  1.
 Warning -- assumption of classical behavior for rotation
           may cause significant error
 Rotational temperatures (Kelvin)      0.07132     0.02245     0.02021
 Rotational constants (GHZ):           1.48609     0.46787     0.42115
 Zero-point vibrational energy     856400.1 (Joules/Mol)
                                  204.68455 (Kcal/Mol)
 Warning -- explicit consideration of  24 degrees of freedom as
           vibrations may cause significant error
 Vibrational temperatures:     57.95    70.34    88.78   128.65   157.04
          (Kelvin)            236.65   267.49   333.50   346.10   367.71
                              378.34   399.97   411.11   438.94   469.90
                              478.09   522.38   550.54   579.63   596.29
                              609.69   684.25   814.87   832.49   986.94
                             1087.01  1106.47  1174.50  1271.37  1289.51
                             1320.09  1346.80  1359.73  1370.89  1379.55
                             1396.31  1482.85  1526.01  1538.70  1567.23
                             1625.81  1640.71  1665.06  1699.17  1728.68
                             1746.49  1784.57  1801.34  1845.94  1853.45
                             1917.30  1942.71  1966.76  2021.93  2033.07
                             2050.55  2053.70  2055.53  2060.60  2067.74
                             2073.40  2099.94  2162.85  2173.26  2175.90
                             2181.01  2182.35  2186.27  2192.84  2195.56
                             2200.85  2212.69  2214.81  2222.63  2230.09
                             2235.44  4297.44  4324.27  4366.61  4368.63
                             4370.52  4373.32  4382.71  4392.55  4397.42
                             4399.92  4416.84  4440.47  4457.51  4462.81
                             4464.76  4466.63  4473.55  4487.47  4492.46
                             4503.20  4512.69  4515.73  5109.34

 Zero-point correction=                           0.326186 (Hartree/Particle)
 Thermal correction to Energy=                    0.341568
 Thermal correction to Enthalpy=                  0.342512
 Thermal correction to Gibbs Free Energy=         0.284279
 Sum of electronic and zero-point Energies=           -524.606071
 Sum of electronic and thermal Energies=              -524.590688
 Sum of electronic and thermal Enthalpies=            -524.589744
 Sum of electronic and thermal Free Energies=         -524.647977

                     E (Thermal)             CV                S
                      KCal/Mol        Cal/Mol-Kelvin    Cal/Mol-Kelvin
 Total                  214.337             57.821            122.562
 Electronic               0.000              0.000              0.000
 Translational            0.889              2.981             41.355
 Rotational               0.889              2.981             31.374
 Vibrational            212.560             51.860             49.833
 Vibration     1          0.594              1.981              5.245
 Vibration     2          0.595              1.978              4.862
 Vibration     3          0.597              1.973              4.402
 Vibration     4          0.602              1.957              3.673
 Vibration     5          0.606              1.942              3.284
 Vibration     6          0.623              1.886              2.498
 Vibration     7          0.632              1.859              2.268
 Vibration     8          0.653              1.792              1.865
 Vibration     9          0.658              1.778              1.799
 Vibration    10          0.666              1.753              1.692
 Vibration    11          0.670              1.741              1.642
 Vibration    12          0.679              1.714              1.546
 Vibration    13          0.684              1.700              1.499
 Vibration    14          0.696              1.664              1.389
 Vibration    15          0.710              1.622              1.277
 Vibration    16          0.714              1.611              1.249
 Vibration    17          0.737              1.548              1.109
 Vibration    18          0.752              1.507              1.029
 Vibration    19          0.768              1.464              0.952
 Vibration    20          0.778              1.439              0.911
 Vibration    21          0.786              1.419              0.879
 Vibration    22          0.832              1.304              0.722
 Vibration    23          0.922              1.104              0.511
 Vibration    24          0.935              1.078              0.488

 Optimization completed.
    -- Stationary point found.
 Normal termination of Gaussian 16 at Wed Dec  9 17:02:25 2020.

 ----------------------------------------------------------------------
 # B3LYP/6-311++G(d,p) empiricaldispersion=gd3bj scf=xqc pop=npa geom=c
 heck
 ----------------------------------------------------------------------

 ---------------------------------------
 CID_115655589_JID_2168_Energie_neutraal
 ---------------------------------------
 Structure from the checkpoint file:  "JID_2168.chk"
 Charge =  0 Multiplicity = 1

 SCF Done:  E(RB3LYP) =  -525.087090538     A.U. after   13 cycles
 Normal termination of Gaussian 16 at Wed Dec  9 17:06:54 2020.

 ----------------------------------------------------------------------
 # B3LYP/6-311++G(d,p) empiricaldispersion=gd3bj scf=xqc pop=npa geom=c
 heck
 ----------------------------------------------------------------------

 -------------------------------------
 CID_115655589_JID_2168_Energie_kation
 -------------------------------------
 Structure from the checkpoint file:  "JID_2168.chk"
 Charge =  1 Multiplicity = 2

 SCF Done:  E(UB3LYP) =  -524.801570891     A.U. after   19 cycles
 Normal termination of Gaussian 16 at Wed Dec  9 17:16:19 2020.
 Gaussian 16:  ES64L-G16RevA.03 25-Dec-2016

 ----------------------------------------------------------------------
 # B3LYP/6-311++G(d,p) empiricaldispersion=gd3bj scf=xqc pop=npa geom=c
 heck
 ----------------------------------------------------------------------

 ------------------------------------
 CID_115655589_JID_2168_Energie_anion
 ------------------------------------
 Structure from the checkpoint file:  "JID_2168.chk"
 Charge = -1 Multiplicity = 2

                         Standard orientation:
 ---------------------------------------------------------------------
 Center     Atomic      Atomic             Coordinates (Angstroms)
 Number     Number       Type             X           Y           Z
 ---------------------------------------------------------------------
      1          6           0        1.748053    2.053755    0.555542
      2          6           0        2.755628    1.356764   -0.357545
      3          8           0        2.277181    0.187126   -1.007026
      4          6           0        2.118038   -1.033653   -0.263200
      5          6           0        3.185460   -1.269297    0.801962
      6          6           0        0.696248   -1.149089    0.300835
      7          7           0       -0.259830   -0.976399   -0.776440
      8          6           0       -1.676363   -1.125076   -0.488966
      9          6           0       -2.478066    0.086895    0.065781
     10          6           0       -2.399767    1.259245   -0.925136
     11          6           0       -3.942968   -0.360710    0.206673
     12          6           0       -1.959704    0.542692    1.439135
     13          1           0        0.801202    2.215521    0.029627
     14          1           0        2.139055    3.030493    0.865094
     15          1           0        1.542469    1.474377    1.460593
     16          1           0        3.020657    2.028275   -1.181423
     17          1           0        3.681781    1.147855    0.194849
     18          1           0        2.213764   -1.803713   -1.036878
     19          1           0        3.088976   -0.582022    1.649752
     20          1           0        3.087950   -2.288591    1.190487
     21          1           0        4.190592   -1.163254    0.381533
     22          1           0        0.572176   -2.159229    0.715955
     23          1           0        0.581819   -0.451133    1.146407
     24          1           0       -0.043597   -0.134605   -1.300573
     25          1           0       -2.174580   -1.434637   -1.420249
     26          1           0       -1.783406   -1.966282    0.209345
     27          1           0       -2.783973    0.971200   -1.911432
     28          1           0       -2.990040    2.112308   -0.570318
     29          1           0       -1.367750    1.607003   -1.054066
     30          1           0       -4.035596   -1.188999    0.920124
     31          1           0       -4.571734    0.462310    0.566395
     32          1           0       -4.349901   -0.698655   -0.754086
     33          1           0       -1.924561   -0.292987    2.148576
     34          1           0       -0.956171    0.970846    1.369193
     35          1           0       -2.617111    1.312554    1.861890
 ---------------------------------------------------------------------

 SCF Done:  E(UB3LYP) =  -525.071478889     A.U. after   27 cycles

 The electronic state is 2-A.
 Alpha  occ. eigenvalues --  -19.02050 -14.18940 -10.12109 -10.11550 -10.08909
 Alpha  occ. eigenvalues --  -10.08731 -10.08231 -10.06485 -10.06051 -10.06046
 Alpha  occ. eigenvalues --  -10.06000 -10.05561  -0.92999  -0.80236  -0.71727
 Alpha  occ. eigenvalues --   -0.67992  -0.64381  -0.59853  -0.59018  -0.58580
 Alpha  occ. eigenvalues --   -0.54594  -0.52848  -0.46595  -0.44321  -0.40386
 Alpha  occ. eigenvalues --   -0.39892  -0.37199  -0.36033  -0.35486  -0.34619
 Alpha  occ. eigenvalues --   -0.33127  -0.32553  -0.31646  -0.31005  -0.30694
 Alpha  occ. eigenvalues --   -0.29016  -0.28551  -0.28121  -0.27381  -0.26827
 Alpha  occ. eigenvalues --   -0.26326  -0.25323  -0.24645  -0.23539  -0.22681
 Alpha  occ. eigenvalues --   -0.22563  -0.20265  -0.16120  -0.11457   0.04438
 Alpha virt. eigenvalues --    0.06239   0.07002   0.07959   0.08587   0.08601
 Alpha virt. eigenvalues --    0.09084   0.09936   0.10064   0.10747   0.11063
 Alpha virt. eigenvalues --    0.11666   0.11781   0.12171   0.13401   0.13580

  Beta  occ. eigenvalues --  -19.02047 -14.18935 -10.12103 -10.11529 -10.08898
  Beta  occ. eigenvalues --  -10.08717 -10.08229 -10.06445 -10.06024 -10.06011
  Beta  occ. eigenvalues --  -10.05974 -10.05537  -0.92988  -0.80224  -0.71710
  Beta  occ. eigenvalues --   -0.67963  -0.64337  -0.59811  -0.58969  -0.58533
  Beta  occ. eigenvalues --   -0.54534  -0.52798  -0.46535  -0.44274  -0.40360
  Beta  occ. eigenvalues --   -0.39872  -0.37169  -0.36000  -0.35453  -0.34592
  Beta  occ. eigenvalues --   -0.33086  -0.32524  -0.31611  -0.30963  -0.30662
  Beta  occ. eigenvalues --   -0.28978  -0.28517  -0.28090  -0.27346  -0.26799
  Beta  occ. eigenvalues --   -0.26297  -0.25295  -0.24615  -0.23512  -0.22656
  Beta  occ. eigenvalues --   -0.22538  -0.20244  -0.16090  -0.11446
  Beta virt. eigenvalues --    0.06498   0.07156   0.07758   0.08406   0.09012
  Beta virt. eigenvalues --    0.09200   0.09558   0.10239   0.10436   0.11112
  Beta virt. eigenvalues --    0.11462   0.12042   0.12126   0.12502   0.13818

 Mulliken charges and spin densities:
               1          2
     1  C    0.059011  -0.444820
     2  C    0.381638  -0.683452
     3  O   -0.129483   0.019407
     4  C   -1.610349   1.666333
     5  C    1.297152  -1.939132
     6  C    0.147433  -0.708874
     7  N   -0.043214   0.096319
     8  C    0.843720  -1.463544
     9  C   -1.576608   2.436440
    10  C    0.429729  -0.994535
    11  C    0.148107  -0.679360
    12  C    0.725189  -1.384144
    13  H    0.116555   0.039936
    14  H   -0.532925   0.678738
    15  H   -0.028935   0.168967
    16  H   -0.122441   0.286701
    17  H   -0.061388   0.204572
    18  H    0.084136   0.103216
    19  H   -0.348005   0.530973
    20  H   -0.199596   0.339533
    21  H   -0.340042   0.499752
    22  H    0.077771   0.066032
    23  H    0.435245  -0.346374
    24  H    0.104350   0.122306
    25  H    0.178729  -0.011965
    26  H   -0.067049   0.207389
    27  H   -0.035966   0.182010
    28  H   -0.240059   0.390378
    29  H    0.128454  -0.016892
    30  H   -0.108866   0.245128
    31  H   -0.139947   0.280809
    32  H   -0.124917   0.252408
    33  H   -0.168499   0.326473
    34  H   -0.117737   0.222171
    35  H   -0.161193   0.307100
 Sum of Mulliken charges =  -1.00000   1.00000

 Dipole moment (field-independent basis, Debye):
    X=             -1.1292    Y=             -1.6644    Z=             -2.3875  Tot=              3.1218
 Quadrupole moment (field-independent basis, Debye-Ang):
   XX=           -159.8226   YY=           -124.7264   ZZ=           -117.6815
   XY=              0.9649   XZ=             -3.7919   YZ=             -0.9733

 Summary of Natural Population Analysis:

                                       Natural Population
                Natural  -----------------------------------------------
    Atom  No    Charge         Core      Valence    Rydberg      Total
 -----------------------------------------------------------------------
      C    1   -0.30136      0.99966     2.29647    0.00523     3.30136
      C    2   -0.01079      0.99958     1.99779    0.01342     3.01079
      O    3   -0.31043      0.99988     3.30099    0.00955     4.31043
      C    4    0.06539      0.99954     1.91984    0.01523     2.93461
      C    5   -0.30379      0.99964     2.29890    0.00525     3.30379
      C    6   -0.09498      0.99958     2.08472    0.01067     3.09498
      N    7   -0.34692      0.99973     2.83634    0.01084     3.84692
      C    8   -0.07932      0.99957     2.06679    0.01296     3.07932
      C    9   -0.05733      0.99958     2.04715    0.01060     3.05733
      C   10   -0.28678      0.99962     2.27945    0.00771     3.28678
      C   11   -0.28467      0.99963     2.27769    0.00735     3.28467
      C   12   -0.28610      0.99962     2.27900    0.00748     3.28610
      H   13    0.09844      0.00000     0.40006    0.00151     0.40156
      H   14    0.10211      0.00000     0.39645    0.00144     0.39789
      H   15    0.09712      0.00000     0.40117    0.00171     0.40288
      H   16    0.08688      0.00000     0.41194    0.00118     0.41312
      H   17    0.08065      0.00000     0.41781    0.00154     0.41935
      H   18    0.08967      0.00000     0.40859    0.00174     0.41033
      H   19    0.10149      0.00000     0.39713    0.00139     0.39851
      H   20    0.10573      0.00000     0.39316    0.00111     0.39427
      H   21    0.10377      0.00000     0.39513    0.00110     0.39623
      H   22    0.09171      0.00000     0.40687    0.00142     0.40829
      H   23    0.08060      0.00000     0.41729    0.00211     0.41940
      H   24    0.18080      0.00000     0.31542    0.00378     0.31920
      H   25    0.09025      0.00000     0.40866    0.00108     0.40975
      H   26    0.09258      0.00000     0.40633    0.00109     0.40742
      H   27    0.09823      0.00000     0.40086    0.00091     0.40177
      H   28    0.10148      0.00000     0.39761    0.00091     0.39852
      H   29    0.09760      0.00000     0.40088    0.00152     0.40240
      H   30    0.09939      0.00000     0.39962    0.00099     0.40061
      H   31    0.10051      0.00000     0.39843    0.00106     0.39949
      H   32    0.09820      0.00000     0.40080    0.00100     0.40180
      H   33    0.09937      0.00000     0.39954    0.00109     0.40063
      H   34    0.10113      0.00000     0.39722    0.00165     0.39887
      H   35    0.09937      0.00000     0.39960    0.00103     0.40063
 =======================================================================
   * Total *   -0.00000     11.99565    36.85571    0.14864    49.00000

 Normal termination of Gaussian 16 at Wed Dec  9 17:28:59 2020.
