 Gaussian 16, Revision A.03,

 -----------------------------------------------------------
 # opt freq B3LYP/6-31G(d) empiricaldispersion=gd3bj scf=xqc
 -----------------------------------------------------------

 ------------------------------
 CID_80616812_JID_6083_neutraal
 ------------------------------
 Symbolic Z-matrix:
 Charge =  0 Multiplicity = 1

 SCF Done:  E(RB3LYP) =  -1119.04545495     A.U. after   15 cycles
 SCF Done:  E(RB3LYP) =  -1119.05395776     A.U. after   13 cycles
 SCF Done:  E(RB3LYP) =  -1119.05451840     A.U. after   13 cycles
 SCF Done:  E(RB3LYP) =  -1119.05560924     A.U. after   13 cycles
 SCF Done:  E(RB3LYP) =  -1119.05601053     A.U. after   13 cycles
 SCF Done:  E(RB3LYP) =  -1119.05623898     A.U. after   13 cycles
 SCF Done:  E(RB3LYP) =  -1119.05637502     A.U. after   12 cycles
 SCF Done:  E(RB3LYP) =  -1119.05652382     A.U. after   12 cycles
 SCF Done:  E(RB3LYP) =  -1119.05658348     A.U. after   12 cycles
 SCF Done:  E(RB3LYP) =  -1119.05672419     A.U. after   11 cycles
 SCF Done:  E(RB3LYP) =  -1119.05688781     A.U. after    9 cycles
 SCF Done:  E(RB3LYP) =  -1119.05689106     A.U. after   10 cycles
 SCF Done:  E(RB3LYP) =  -1119.05689150     A.U. after    8 cycles
 SCF Done:  E(RB3LYP) =  -1119.05689185     A.U. after    8 cycles
 SCF Done:  E(RB3LYP) =  -1119.05689194     A.U. after    8 cycles
 Optimization completed.
    -- Stationary point found.
 Normal termination of Gaussian 16 at Thu Dec 10 21:16:46 2020.

 --------------------------------------------------------------------
 #N Geom=AllCheck Guess=TCheck SCRF=Check GenChk RB3LYP/6-31G(d) Freq
 --------------------------------------------------------------------

 Structure from the checkpoint file:  "JID_6083.chk"
 ------------------------------
 CID_80616812_JID_6083_neutraal
 ------------------------------
 Charge =  0 Multiplicity = 1

 SCF Done:  E(RB3LYP) =  -1119.05689194     A.U. after    1 cycles

  Exact polarizability: 195.416 -16.122 142.183  10.691   5.122  94.453
 Approx polarizability: 261.414 -13.130 253.718  26.109  27.509 151.979

                      1                      2                      3
                      A                      A                      A
 Frequencies --     19.9748                44.7037                45.7266
 Red. masses --      5.6201                 6.1243                 4.1574
 Frc consts  --      0.0013                 0.0072                 0.0051
 IR Inten    --      2.2888                 1.2064                 2.2801

                      4                      5                      6
                      A                      A                      A
 Frequencies --     71.9154                95.9158               110.5652
 Red. masses --      3.6512                 6.4137                 2.5903
 Frc consts  --      0.0111                 0.0348                 0.0187
 IR Inten    --      4.9627                 2.7299                 1.2909

                      7                      8                      9
                      A                      A                      A
 Frequencies --    120.4208               122.0516               159.5406
 Red. masses --      2.4000                 2.8756                 3.9525
 Frc consts  --      0.0205                 0.0252                 0.0593
 IR Inten    --      9.0676                 4.4810                 7.6176

                     10                     11                     12
                      A                      A                      A
 Frequencies --    172.3229               215.4757               245.9228
 Red. masses --      1.8898                 3.2686                 3.7704
 Frc consts  --      0.0331                 0.0894                 0.1344
 IR Inten    --      2.2029                 4.0813                 4.5178

                     13                     14                     15
                      A                      A                      A
 Frequencies --    284.9207               301.9353               337.7291
 Red. masses --      3.4688                 6.1422                 3.2012
 Frc consts  --      0.1659                 0.3299                 0.2151
 IR Inten    --      0.1086                 0.1824                 6.7584

                     16                     17                     18
                      A                      A                      A
 Frequencies --    381.2546               398.9331               431.9406
 Red. masses --      3.1674                 1.4965                 2.4183
 Frc consts  --      0.2713                 0.1403                 0.2658
 IR Inten    --     13.6726                95.5844                 0.7937

                     19                     20                     21
                      A                      A                      A
 Frequencies --    492.6681               541.0226               546.0152
 Red. masses --      3.7200                 4.5573                 5.1956
 Frc consts  --      0.5320                 0.7859                 0.9126
 IR Inten    --      8.8547                 8.3399                 1.1493

                     22                     23                     24
                      A                      A                      A
 Frequencies --    608.0044               616.3096               636.3183
 Red. masses --      4.0936                 1.5442                10.4884
 Frc consts  --      0.8916                 0.3456                 2.5021
 IR Inten    --     26.3474                82.4083                 8.4690

                     25                     26                     27
                      A                      A                      A
 Frequencies --    662.0601               687.8779               699.7619
 Red. masses --      6.1935                 9.1716                 3.9602
 Frc consts  --      1.5995                 2.5569                 1.1425
 IR Inten    --     37.0100                 4.8958                 5.1830

                     28                     29                     30
                      A                      A                      A
 Frequencies --    741.2217               749.0933               795.9978
 Red. masses --      7.4456                 3.6511                 8.2926
 Frc consts  --      2.4102                 1.2071                 3.0957
 IR Inten    --     35.3893                20.5305                 6.2759

                     31                     32                     33
                      A                      A                      A
 Frequencies --    824.6853               861.2471               930.8205
 Red. masses --      1.6594                 2.2323                 2.9255
 Frc consts  --      0.6649                 0.9756                 1.4934
 IR Inten    --      2.0042                 0.6707                12.7574

                     34                     35                     36
                      A                      A                      A
 Frequencies --    933.9001               962.5955               978.1054
 Red. masses --      2.4084                 2.0774                 2.3560
 Frc consts  --      1.2376                 1.1341                 1.3280
 IR Inten    --     18.8960                12.9019                46.1219

                     37                     38                     39
                      A                      A                      A
 Frequencies --   1011.2224              1053.6225              1065.7588
 Red. masses --      2.0523                 2.7556                 2.2142
 Frc consts  --      1.2365                 1.8023                 1.4818
 IR Inten    --     13.9203                10.5371                26.0273

                     40                     41                     42
                      A                      A                      A
 Frequencies --   1110.4270              1124.8773              1142.5446
 Red. masses --      1.6867                 5.1402                 2.9446
 Frc consts  --      1.2254                 3.8322                 2.2648
 IR Inten    --     10.1959                67.1114               101.1367

                     43                     44                     45
                      A                      A                      A
 Frequencies --   1161.8567              1164.2229              1179.0791
 Red. masses --      2.8611                 1.5085                 2.2455
 Frc consts  --      2.2755                 1.2046                 1.8393
 IR Inten    --     28.9884                 8.9429                26.3596

                     46                     47                     48
                      A                      A                      A
 Frequencies --   1214.0568              1223.7770              1239.4911
 Red. masses --      3.3658                 1.4199                 1.2728
 Frc consts  --      2.9229                 1.2529                 1.1522
 IR Inten    --     28.2800                 2.8116                 3.5209

                     49                     50                     51
                      A                      A                      A
 Frequencies --   1258.8659              1276.0246              1316.2502
 Red. masses --      1.2142                 1.2603                 1.5009
 Frc consts  --      1.1337                 1.2091                 1.5320
 IR Inten    --      9.4247                10.8415                37.0125

                     52                     53                     54
                      A                      A                      A
 Frequencies --   1332.2150              1336.4543              1368.8555
 Red. masses --      3.9058                 1.3695                 1.4306
 Frc consts  --      4.0842                 1.4412                 1.5793
 IR Inten    --     27.2878                 3.1142                48.5531

                     55                     56                     57
                      A                      A                      A
 Frequencies --   1376.8154              1414.7381              1420.3926
 Red. masses --      1.3128                 1.6169                 1.4841
 Frc consts  --      1.4662                 1.9067                 1.7641
 IR Inten    --      8.7152               126.9569                73.8395

                     58                     59                     60
                      A                      A                      A
 Frequencies --   1424.7668              1442.1851              1494.8869
 Red. masses --      1.4828                 1.8349                 1.2364
 Frc consts  --      1.7734                 2.2486                 1.6279
 IR Inten    --      2.2772                20.9416                38.9129

                     61                     62                     63
                      A                      A                      A
 Frequencies --   1508.7596              1513.6793              1521.7075
 Red. masses --      1.8278                 1.0722                 1.1976
 Frc consts  --      2.4514                 1.4474                 1.6339
 IR Inten    --     90.8659                14.3600                18.7224

                     64                     65                     66
                      A                      A                      A
 Frequencies --   1527.3146              1538.5646              1541.4509
 Red. masses --      1.1320                 2.2640                 1.3626
 Frc consts  --      1.5558                 3.1576                 1.9075
 IR Inten    --      3.2983               139.3002                95.4765

                     67                     68                     69
                      A                      A                      A
 Frequencies --   1543.1808              1559.8370              1608.0437
 Red. masses --      1.1013                 1.1028                 3.7468
 Frc consts  --      1.5453                 1.5810                 5.7082
 IR Inten    --     17.3719                 7.3032               399.8349

                     70                     71                     72
                      A                      A                      A
 Frequencies --   1741.5535              2980.2959              3027.3430
 Red. masses --      7.2176                 1.0723                 1.0716
 Frc consts  --     12.8979                 5.6113                 5.7866
 IR Inten    --    318.5604                96.2988                78.8563

                     73                     74                     75
                      A                      A                      A
 Frequencies --   3029.6912              3050.5380              3059.5709
 Red. masses --      1.0440                 1.0747                 1.0812
 Frc consts  --      5.6459                 5.8925                 5.9634
 IR Inten    --     47.3153                30.9846                51.0102

                     76                     77                     78
                      A                      A                      A
 Frequencies --   3080.7597              3092.3567              3093.5355
 Red. masses --      1.0699                 1.0916                 1.0971
 Frc consts  --      5.9826                 6.1503                 6.1861
 IR Inten    --     51.4597                40.7971                21.6444

                     79                     80                     81
                      A                      A                      A
 Frequencies --   3120.3105              3136.8508              3158.1439
 Red. masses --      1.0945                 1.1001                 1.0998
 Frc consts  --      6.2788                 6.3778                 6.4631
 IR Inten    --      6.4404                37.1306                17.6165

                     82                     83                     84
                      A                      A                      A
 Frequencies --   3184.1279              3582.4066              3613.4457
 Red. masses --      1.0926                 1.0751                 1.0763
 Frc consts  --      6.5266                 8.1295                 8.2797
 IR Inten    --      3.4553                33.2670                64.0890

 - Thermochemistry -
 -------------------
 Temperature   298.150 Kelvin.  Pressure   1.00000 Atm.
 Atom     1 has atomic number  6 and mass  12.00000

 Molecular mass:   242.08375 amu.
 Principal axes and moments of inertia in atomic units:
                           1         2         3
     Eigenvalues --  2090.968226419.643707948.91248
           X            0.99991  -0.01364  -0.00137
           Y            0.01361   0.99978  -0.01576
           Z            0.00159   0.01574   0.99987
 This molecule is an asymmetric top.
 Rotational symmetry number  1.
 Warning -- assumption of classical behavior for rotation
           may cause significant error
 Rotational temperatures (Kelvin)      0.04142     0.01349     0.01090
 Rotational constants (GHZ):           0.86311     0.28113     0.22704
 Zero-point vibrational energy     638780.8 (Joules/Mol)
                                  152.67227 (Kcal/Mol)
 Warning -- explicit consideration of  23 degrees of freedom as
           vibrations may cause significant error
 Vibrational temperatures:     28.74    64.32    65.79   103.47   138.00
          (Kelvin)            159.08   173.26   175.61   229.54   247.93
                              310.02   353.83   409.94   434.42   485.92
                              548.54   573.98   621.47   708.84   778.41
                              785.59   874.78   886.73   915.52   952.56
                              989.70  1006.80  1066.45  1077.78  1145.26
                             1186.54  1239.14  1339.24  1343.67  1384.96
                             1407.28  1454.92  1515.93  1533.39  1597.66
                             1618.45  1643.87  1671.65  1675.06  1696.43
                             1746.76  1760.74  1783.35  1811.23  1835.91
                             1893.79  1916.76  1922.86  1969.48  1980.93
                             2035.49  2043.63  2049.92  2074.98  2150.81
                             2170.77  2177.85  2189.40  2197.47  2213.65
                             2217.80  2220.29  2244.26  2313.62  2505.71
                             4287.98  4355.67  4359.05  4389.04  4402.04
                             4432.53  4449.21  4450.91  4489.43  4513.23
                             4543.86  4581.25  5154.28  5198.94

 Zero-point correction=                           0.243299 (Hartree/Particle)
 Thermal correction to Energy=                    0.259183
 Thermal correction to Enthalpy=                  0.260128
 Thermal correction to Gibbs Free Energy=         0.197705
 Sum of electronic and zero-point Energies=          -1118.813593
 Sum of electronic and thermal Energies=             -1118.797709
 Sum of electronic and thermal Enthalpies=           -1118.796764
 Sum of electronic and thermal Free Energies=        -1118.859187

                     E (Thermal)             CV                S
                      KCal/Mol        Cal/Mol-Kelvin    Cal/Mol-Kelvin
 Total                  162.640             57.589            131.380
 Electronic               0.000              0.000              0.000
 Translational            0.889              2.981             42.353
 Rotational               0.889              2.981             33.034
 Vibrational            160.863             51.628             55.993
 Vibration     1          0.593              1.986              6.637
 Vibration     2          0.595              1.980              5.039
 Vibration     3          0.595              1.979              4.994
 Vibration     4          0.598              1.967              4.100
 Vibration     5          0.603              1.952              3.536
 Vibration     6          0.606              1.941              3.259
 Vibration     7          0.609              1.932              3.094
 Vibration     8          0.610              1.931              3.068
 Vibration     9          0.621              1.892              2.555
 Vibration    10          0.626              1.877              2.410
 Vibration    11          0.645              1.817              1.997
 Vibration    12          0.660              1.770              1.760
 Vibration    13          0.683              1.702              1.504
 Vibration    14          0.694              1.670              1.406
 Vibration    15          0.718              1.600              1.223
 Vibration    16          0.751              1.510              1.034
 Vibration    17          0.765              1.472              0.967
 Vibration    18          0.793              1.401              0.852
 Vibration    19          0.848              1.266              0.677
 Vibration    20          0.896              1.159              0.563
 Vibration    21          0.901              1.148              0.552
 Vibration    22          0.967              1.015              0.436
 Vibration    23          0.976              0.997              0.422

                           ! Non-Optimized Parameters !
 Normal termination of Gaussian 16 at Thu Dec 10 21:25:54 2020.

 ----------------------------------------------------------------------
 # B3LYP/6-311++G(d,p) empiricaldispersion=gd3bj scf=xqc pop=npa geom=c
 heck
 ----------------------------------------------------------------------

 --------------------------------------
 CID_80616812_JID_6083_Energie_neutraal
 --------------------------------------
 Structure from the checkpoint file:  "JID_6083.chk"
 Charge =  0 Multiplicity = 1

 SCF Done:  E(RB3LYP) =  -1119.29033757     A.U. after   15 cycles
 Normal termination of Gaussian 16 at Thu Dec 10 21:29:58 2020.

 ----------------------------------------------------------------------
 # B3LYP/6-311++G(d,p) empiricaldispersion=gd3bj scf=xqc pop=npa geom=c
 heck
 ----------------------------------------------------------------------

 ------------------------------------
 CID_80616812_JID_6083_Energie_kation
 ------------------------------------
 Structure from the checkpoint file:  "JID_6083.chk"
 Charge =  1 Multiplicity = 2

 SCF Done:  E(UB3LYP) =  -1118.99023386     A.U. after   28 cycles
 Normal termination of Gaussian 16 at Thu Dec 10 21:41:17 2020.
 Gaussian 16:  ES64L-G16RevA.03 25-Dec-2016

 ----------------------------------------------------------------------
 # B3LYP/6-311++G(d,p) empiricaldispersion=gd3bj scf=xqc pop=npa geom=c
 heck
 ----------------------------------------------------------------------

 -----------------------------------
 CID_80616812_JID_6083_Energie_anion
 -----------------------------------
 Structure from the checkpoint file:  "JID_6083.chk"
 Charge = -1 Multiplicity = 2

                         Standard orientation:
 ---------------------------------------------------------------------
 Center     Atomic      Atomic             Coordinates (Angstroms)
 Number     Number       Type             X           Y           Z
 ---------------------------------------------------------------------
      1          6           0        4.995391   -0.942391    0.159359
      2          7           0        3.696893   -1.544581   -0.073351
      3          6           0        2.554985   -0.826729   -0.181962
      4          7           0        1.421548   -1.365568   -0.607736
      5          7           0        0.407705   -0.464715   -0.599544
      6          6           0        0.741286    0.724418   -0.193185
      7         16           0        2.446490    0.867605    0.253553
      8          6           0       -0.083632    1.951866   -0.031507
      9          8           0        0.466678    2.961012    0.414354
     10          7           0       -1.399737    1.947785   -0.376398
     11          6           0       -2.268595    0.884893   -0.869174
     12          6           0       -3.214472    0.330442    0.210103
     13          6           0       -2.470899   -0.432569    1.322661
     14          6           0       -2.384855   -1.875940    0.773155
     15          8           0       -3.244391   -1.938430   -0.375731
     16          6           0       -4.083804   -0.793625   -0.366196
     17          1           0        4.989385   -0.383557    1.102042
     18          1           0        5.291350   -0.258705   -0.648827
     19          1           0        5.739846   -1.736487    0.240899
     20          1           0        3.648170   -2.463352   -0.493635
     21          1           0       -1.831085    2.843300   -0.177919
     22          1           0       -2.861161    1.298795   -1.694576
     23          1           0       -1.651973    0.081707   -1.268321
     24          1           0       -3.824425    1.147210    0.615249
     25          1           0       -3.051948   -0.401296    2.250189
     26          1           0       -1.486422   -0.009079    1.535437
     27          1           0       -1.376667   -2.134171    0.439972
     28          1           0       -2.711339   -2.610437    1.522540
     29          1           0       -4.974850   -0.952735    0.264907
     30          1           0       -4.418305   -0.616164   -1.394102
 ---------------------------------------------------------------------

 SCF Done:  E(UB3LYP) =  -1119.29514077     A.U. after   33 cycles
 SCF Done:  E(UB3LYP) =  -1119.29514077     a.u. after    1 cycles

 The electronic state is 2-A.
 Alpha  occ. eigenvalues --  -88.73687 -19.02161 -18.94070 -14.22136 -14.20663
 Alpha  occ. eigenvalues --  -14.18827 -14.18303 -10.12839 -10.12375 -10.12216
 Alpha  occ. eigenvalues --  -10.10675 -10.10047 -10.09198 -10.08075 -10.07348
 Alpha  occ. eigenvalues --  -10.06834  -7.82337  -5.78624  -5.78292  -5.77909
 Alpha  occ. eigenvalues --   -0.93901  -0.90041  -0.88589  -0.82591  -0.79636
 Alpha  occ. eigenvalues --   -0.69545  -0.67558  -0.65606  -0.64239  -0.59093
 Alpha  occ. eigenvalues --   -0.58253  -0.51274  -0.49606  -0.48048  -0.47339
 Alpha  occ. eigenvalues --   -0.44159  -0.41207  -0.39767  -0.38971  -0.37125
 Alpha  occ. eigenvalues --   -0.36417  -0.34646  -0.34571  -0.32499  -0.31255
 Alpha  occ. eigenvalues --   -0.30670  -0.30160  -0.29394  -0.28679  -0.28545
 Alpha  occ. eigenvalues --   -0.26689  -0.26183  -0.25053  -0.24039  -0.23583
 Alpha  occ. eigenvalues --   -0.22229  -0.19935  -0.17429  -0.15801  -0.15206
 Alpha  occ. eigenvalues --   -0.13075  -0.12740  -0.11719  -0.09464   0.04396
 Alpha virt. eigenvalues --    0.06244   0.06502   0.08372   0.09082   0.09429
 Alpha virt. eigenvalues --    0.09773   0.10723   0.11265   0.11541   0.12270
 Alpha virt. eigenvalues --    0.12341   0.13381   0.14023   0.14386   0.14745

  Beta  occ. eigenvalues --  -88.73648 -19.02161 -18.93840 -14.22075 -14.20598
  Beta  occ. eigenvalues --  -14.18957 -14.17852 -10.12648 -10.12213 -10.12147
  Beta  occ. eigenvalues --  -10.10670 -10.10012 -10.09204 -10.08066 -10.07151
  Beta  occ. eigenvalues --  -10.06833  -7.82302  -5.78610  -5.78279  -5.77776
  Beta  occ. eigenvalues --   -0.93899  -0.89624  -0.88243  -0.82338  -0.79447
  Beta  occ. eigenvalues --   -0.69510  -0.67249  -0.65250  -0.64227  -0.58939
  Beta  occ. eigenvalues --   -0.58193  -0.50710  -0.49594  -0.48026  -0.47161
  Beta  occ. eigenvalues --   -0.43936  -0.41077  -0.39734  -0.38832  -0.37031
  Beta  occ. eigenvalues --   -0.36252  -0.34623  -0.34315  -0.32366  -0.31143
  Beta  occ. eigenvalues --   -0.30465  -0.29607  -0.29058  -0.28445  -0.28350
  Beta  occ. eigenvalues --   -0.26062  -0.25906  -0.24969  -0.23897  -0.23421
  Beta  occ. eigenvalues --   -0.22215  -0.18750  -0.17323  -0.15770  -0.14526
  Beta  occ. eigenvalues --   -0.12450  -0.12116  -0.11496  -0.08527
  Beta virt. eigenvalues --    0.06390   0.07121   0.08296   0.09008   0.09585
  Beta virt. eigenvalues --    0.09719   0.10083   0.11064   0.11158   0.11682
  Beta virt. eigenvalues --    0.12221   0.12307   0.13333   0.14102   0.14475

 Mulliken charges and spin densities:
               1          2
     1  C    0.682307  -1.026645
     2  N   -0.192173   0.115898
     3  C   -0.443149   0.183566
     4  N    0.148285  -0.054859
     5  N   -0.299076   0.218738
     6  C    0.016048   0.131468
     7  S   -0.148262  -0.055679
     8  C    0.157154   0.166020
     9  O   -0.434787   0.082028
    10  N   -0.186015   0.023948
    11  C   -0.790092  -0.011076
    12  C    0.525396  -0.022556
    13  C   -0.135220  -0.011515
    14  C   -0.528806  -0.020707
    15  O   -0.133063   0.002228
    16  C   -0.439335  -0.017379
    17  H   -0.057177   0.204203
    18  H   -0.014286   0.170792
    19  H   -0.628435   0.765243
    20  H    0.221032   0.046959
    21  H    0.284038   0.004297
    22  H    0.141176  -0.003514
    23  H    0.253296  -0.001574
    24  H    0.145925   0.025414
    25  H    0.143723   0.013282
    26  H    0.129921   0.019472
    27  H    0.241592   0.013836
    28  H    0.099586   0.010819
    29  H    0.101921   0.007603
    30  H    0.138476   0.019693
 Sum of Mulliken charges =  -1.00000   1.00000

 Dipole moment (field-independent basis, Debye):
    X=             -7.6159    Y=             -0.0596    Z=              0.3161  Tot=              7.6227
 Quadrupole moment (field-independent basis, Debye-Ang):
   XX=           -156.8320   YY=           -141.1532   ZZ=           -115.0971
   XY=             -1.5166   XZ=             -5.1756   YZ=             -6.1270

 Summary of Natural Population Analysis:

                                       Natural Population
                Natural  -----------------------------------------------
    Atom  No    Charge         Core      Valence    Rydberg      Total
 -----------------------------------------------------------------------
      C    1   -0.17869      0.99965     2.17097    0.00806     3.17869
      N    2   -0.31007      0.99964     2.79802    0.01240     3.81007
      C    3    0.15438      0.99963     1.82477    0.02122     2.84562
      N    4   -0.22064      0.99965     2.70497    0.01602     3.72064
      N    5   -0.08802      0.99961     2.57310    0.01531     3.58802
      C    6    0.00297      0.99958     1.98187    0.01558     2.99703
      S    7    0.16989      4.99944     2.81016    0.02050     7.83011
      C    8    0.33794      0.99958     1.64027    0.02220     2.66206
      O    9   -0.31595      0.99988     3.31064    0.00543     4.31595
      N   10   -0.31187      0.99967     2.80096    0.01125     3.81187
      C   11   -0.09663      0.99959     2.08625    0.01079     3.09663
      C   12   -0.12360      0.99959     2.11509    0.00892     3.12360
      C   13   -0.20898      0.99963     2.20121    0.00814     3.20898
      C   14   -0.01590      0.99961     2.00525    0.01104     3.01590
      O   15   -0.30333      0.99990     3.29447    0.00896     4.30333
      C   16   -0.00918      0.99958     1.99684    0.01276     3.00918
      H   17    0.09615      0.00000     0.40259    0.00125     0.40385
      H   18    0.09026      0.00000     0.40832    0.00142     0.40974
      H   19    0.09869      0.00000     0.39966    0.00164     0.40131
      H   20    0.19206      0.00000     0.30450    0.00344     0.30794
      H   21    0.18423      0.00000     0.31398    0.00179     0.31577
      H   22    0.08565      0.00000     0.41329    0.00107     0.41435
      H   23    0.12637      0.00000     0.37164    0.00199     0.37363
      H   24    0.09520      0.00000     0.40310    0.00169     0.40480
      H   25    0.09285      0.00000     0.40604    0.00111     0.40715
      H   26    0.11718      0.00000     0.38151    0.00130     0.38282
      H   27    0.10574      0.00000     0.39270    0.00157     0.39426
      H   28    0.07327      0.00000     0.42547    0.00126     0.42673
      H   29    0.07304      0.00000     0.42534    0.00163     0.42696
      H   30    0.08700      0.00000     0.41108    0.00192     0.41300
 =======================================================================
   * Total *    0.00000     19.99424    43.77407    0.23169    64.00000

 Normal termination of Gaussian 16 at Thu Dec 10 21:54:05 2020.
