 Gaussian 16, Revision A.03,

 -----------------------------------------------------------
 # opt freq B3LYP/6-31G(d) empiricaldispersion=gd3bj scf=xqc
 -----------------------------------------------------------

 --------------------------------
 CID_108355032_JID_10716_neutraal
 --------------------------------
 Symbolic Z-matrix:
 Charge =  0 Multiplicity = 1

 SCF Done:  E(RB3LYP) =  -932.188503278     A.U. after   16 cycles
 SCF Done:  E(RB3LYP) =  -932.196460438     A.U. after   13 cycles
 SCF Done:  E(RB3LYP) =  -932.195406065     A.U. after   14 cycles
 SCF Done:  E(RB3LYP) =  -932.199744186     A.U. after   15 cycles
 SCF Done:  E(RB3LYP) =  -932.200988958     A.U. after   12 cycles
 SCF Done:  E(RB3LYP) =  -932.201492668     A.U. after   13 cycles
 SCF Done:  E(RB3LYP) =  -932.201736757     A.U. after   13 cycles
 SCF Done:  E(RB3LYP) =  -932.201843843     A.U. after   12 cycles
 SCF Done:  E(RB3LYP) =  -932.201937590     A.U. after   13 cycles
 SCF Done:  E(RB3LYP) =  -932.202010080     A.U. after   12 cycles
 SCF Done:  E(RB3LYP) =  -932.202646478     A.U. after    9 cycles
 SCF Done:  E(RB3LYP) =  -932.202646302     A.U. after    8 cycles
 SCF Done:  E(RB3LYP) =  -932.202646276     A.U. after    6 cycles
 SCF Done:  E(RB3LYP) =  -932.202646229     A.U. after    7 cycles
 SCF Done:  E(RB3LYP) =  -932.202646516     A.U. after    8 cycles
 SCF Done:  E(RB3LYP) =  -932.202646293     A.U. after    8 cycles
 Optimization completed.
    -- Stationary point found.
 Normal termination of Gaussian 16 at Sat Dec 12 16:23:26 2020.

 --------------------------------------------------------------------
 #N Geom=AllCheck Guess=TCheck SCRF=Check GenChk RB3LYP/6-31G(d) Freq
 --------------------------------------------------------------------

 Structure from the checkpoint file:  "JID_10716.chk"
 --------------------------------
 CID_108355032_JID_10716_neutraal
 --------------------------------
 Charge =  0 Multiplicity = 1

 SCF Done:  E(RB3LYP) =  -932.202646293     A.U. after    1 cycles

  Exact polarizability: 226.787   7.437 190.330  -9.883  -1.927 123.904
 Approx polarizability: 333.869  31.198 314.781 -23.844  -3.654 174.275

                      1                      2                      3
                      A                      A                      A
 Frequencies --     24.3173                27.2871                47.4239
 Red. masses --      4.3634                 4.4344                11.9734
 Frc consts  --      0.0015                 0.0019                 0.0159
 IR Inten    --      0.6789                 0.1923                 0.0030

                      4                      5                      6
                      A                      A                      A
 Frequencies --     65.8679                97.5761               106.3244
 Red. masses --      4.0722                 4.9118                 3.8981
 Frc consts  --      0.0104                 0.0276                 0.0260
 IR Inten    --      0.7190                 0.4087                 0.0721

                      7                      8                      9
                      A                      A                      A
 Frequencies --    131.9447               150.6651               163.2748
 Red. masses --      3.4062                 2.8510                 2.1617
 Frc consts  --      0.0349                 0.0381                 0.0340
 IR Inten    --      0.1850                 0.6028                 2.6634

                     10                     11                     12
                      A                      A                      A
 Frequencies --    172.6062               187.5617               206.6195
 Red. masses --      1.9037                 2.4132                 3.9141
 Frc consts  --      0.0334                 0.0500                 0.0985
 IR Inten    --      5.7741                 3.1226                 9.7529

                     13                     14                     15
                      A                      A                      A
 Frequencies --    220.3615               239.9665               243.2349
 Red. masses --      1.0780                 3.0413                 3.2823
 Frc consts  --      0.0308                 0.1032                 0.1144
 IR Inten    --      0.3793                 2.1480                 4.7716

                     16                     17                     18
                      A                      A                      A
 Frequencies --    265.1132               301.0352               312.0877
 Red. masses --      4.6569                 2.0045                 3.3930
 Frc consts  --      0.1928                 0.1070                 0.1947
 IR Inten    --      6.8404                 0.5046                 1.4246

                     19                     20                     21
                      A                      A                      A
 Frequencies --    329.6517               348.3705               387.8168
 Red. masses --      2.6768                 5.0228                 3.5318
 Frc consts  --      0.1714                 0.3591                 0.3130
 IR Inten    --      1.9049                10.2961                 0.8515

                     22                     23                     24
                      A                      A                      A
 Frequencies --    417.4990               434.1828               459.2768
 Red. masses --      3.5854                 4.9416                 2.9433
 Frc consts  --      0.3682                 0.5489                 0.3658
 IR Inten    --      9.6789                10.3343                83.2075

                     25                     26                     27
                      A                      A                      A
 Frequencies --    489.6125               514.0445               517.2468
 Red. masses --      2.4411                 1.5570                 1.7369
 Frc consts  --      0.3448                 0.2424                 0.2738
 IR Inten    --     31.5857                88.1184                39.4499

                     28                     29                     30
                      A                      A                      A
 Frequencies --    529.8439               552.0055               582.2370
 Red. masses --      5.9807                 1.7464                 4.2788
 Frc consts  --      0.9892                 0.3135                 0.8546
 IR Inten    --      5.6163                78.5353                 7.1430

                     31                     32                     33
                      A                      A                      A
 Frequencies --    646.8716               673.4937               697.5094
 Red. masses --      3.2316                 3.1561                 2.4510
 Frc consts  --      0.7967                 0.8435                 0.7026
 IR Inten    --     18.6221                 6.2931                36.2162

                     34                     35                     36
                      A                      A                      A
 Frequencies --    720.9822               737.4890               742.2458
 Red. masses --      3.2901                 2.2407                 2.4055
 Frc consts  --      1.0076                 0.7180                 0.7808
 IR Inten    --     16.5307                13.3288                 8.1908

                     37                     38                     39
                      A                      A                      A
 Frequencies --    762.0904               776.7258               807.4764
 Red. masses --     10.2729                 1.5384                 1.7661
 Frc consts  --      3.5153                 0.5468                 0.6785
 IR Inten    --     29.1118                 4.4435                 7.5560

                     40                     41                     42
                      A                      A                      A
 Frequencies --    815.5814               834.6886               841.2038
 Red. masses --      4.5253                 2.7166                 2.2313
 Frc consts  --      1.7735                 1.1151                 0.9303
 IR Inten    --     48.4488                 8.4114                 0.5213

                     43                     44                     45
                      A                      A                      A
 Frequencies --    851.7527               919.0805               940.8755
 Red. masses --      2.0488                 1.9753                 3.8837
 Frc consts  --      0.8758                 0.9831                 2.0256
 IR Inten    --     31.0622                 2.4217                15.2677

                     46                     47                     48
                      A                      A                      A
 Frequencies --    950.1733               968.6814               975.5307
 Red. masses --      1.8614                 2.2255                 1.8590
 Frc consts  --      0.9901                 1.2304                 1.0423
 IR Inten    --      1.0992                 0.9200                 5.3417

                     49                     50                     51
                      A                      A                      A
 Frequencies --    992.6797              1000.1803              1011.1112
 Red. masses --      1.7096                 5.7314                 2.5302
 Frc consts  --      0.9926                 3.3781                 1.5241
 IR Inten    --      9.9749                 4.4912                49.9673

                     52                     53                     54
                      A                      A                      A
 Frequencies --   1039.2093              1066.2517              1075.8274
 Red. masses --      2.1138                 1.6887                 2.4346
 Frc consts  --      1.3450                 1.1311                 1.6602
 IR Inten    --     18.9539                23.7199                 0.1980

                     55                     56                     57
                      A                      A                      A
 Frequencies --   1095.0432              1119.0196              1122.2578
 Red. masses --      2.1228                 1.8483                 1.5110
 Frc consts  --      1.4997                 1.3636                 1.1212
 IR Inten    --      2.0420                 0.4635                22.0999

                     58                     59                     60
                      A                      A                      A
 Frequencies --   1140.5382              1165.6763              1197.8578
 Red. masses --      1.9867                 2.1593                 2.0733
 Frc consts  --      1.5227                 1.7287                 1.7527
 IR Inten    --      0.5128                 3.5577                 0.8677

                     61                     62                     63
                      A                      A                      A
 Frequencies --   1207.7264              1227.9264              1245.7693
 Red. masses --      1.8733                 1.8169                 1.1972
 Frc consts  --      1.6098                 1.6141                 1.0947
 IR Inten    --      8.4199                14.7322                 0.8229

                     64                     65                     66
                      A                      A                      A
 Frequencies --   1273.4252              1278.4443              1291.6257
 Red. masses --      1.7126                 1.3735                 1.2457
 Frc consts  --      1.6363                 1.3226                 1.2245
 IR Inten    --     77.1906                 3.9216                22.9522

                     67                     68                     69
                      A                      A                      A
 Frequencies --   1322.9756              1334.1586              1348.0581
 Red. masses --      1.1951                 1.9700                 1.2601
 Frc consts  --      1.2324                 2.0660                 1.3491
 IR Inten    --      2.0931                30.3249                 2.8330

                     70                     71                     72
                      A                      A                      A
 Frequencies --   1358.5614              1369.8791              1373.0334
 Red. masses --      1.3689                 1.4660                 1.4301
 Frc consts  --      1.4886                 1.6209                 1.5884
 IR Inten    --      6.1806                 4.7927                26.5029

                     73                     74                     75
                      A                      A                      A
 Frequencies --   1383.7558              1396.0292              1406.5000
 Red. masses --      1.2993                 1.4725                 2.0498
 Frc consts  --      1.4658                 1.6908                 2.3891
 IR Inten    --      0.7113                19.5001                76.0272

                     76                     77                     78
                      A                      A                      A
 Frequencies --   1408.6510              1410.3258              1419.0063
 Red. masses --      4.1324                 1.7264                 1.4944
 Frc consts  --      4.8313                 2.0231                 1.7729
 IR Inten    --    172.2834                30.4611                 1.2294

                     79                     80                     81
                      A                      A                      A
 Frequencies --   1425.0821              1425.4881              1441.1128
 Red. masses --      1.4599                 1.7450                 1.3267
 Frc consts  --      1.7468                 2.0892                 1.6233
 IR Inten    --      2.8674                22.8476                 8.7738

                     82                     83                     84
                      A                      A                      A
 Frequencies --   1452.7219              1488.1357              1513.9703
 Red. masses --      1.7441                 3.2234                 1.1200
 Frc consts  --      2.1687                 4.2058                 1.5126
 IR Inten    --      5.3147               214.8008                 6.5797

                     85                     86                     87
                      A                      A                      A
 Frequencies --   1517.6088              1520.9335              1525.3935
 Red. masses --      1.0828                 1.4404                 1.1718
 Frc consts  --      1.4693                 1.9632                 1.6065
 IR Inten    --      4.6280               102.5236                72.7671

                     88                     89                     90
                      A                      A                      A
 Frequencies --   1528.2737              1531.1888              1532.6163
 Red. masses --      1.1742                 1.0841                 1.0742
 Frc consts  --      1.6158                 1.4975                 1.4866
 IR Inten    --     64.6605                16.4765                14.1464

                     91                     92                     93
                      A                      A                      A
 Frequencies --   1541.6342              1576.3832              1636.0940
 Red. masses --      1.1053                 2.2631                11.4403
 Frc consts  --      1.5477                 3.3134                18.0428
 IR Inten    --     12.8136               178.9995               594.9049

                     94                     95                     96
                      A                      A                      A
 Frequencies --   1642.9861              1681.8265              1747.4489
 Red. masses --      5.5203                 9.6282                 1.0635
 Frc consts  --      8.7797                16.0457                 1.9134
 IR Inten    --    288.5961               107.2166                23.6818

                     97                     98                     99
                      A                      A                      A
 Frequencies --   3005.1132              3025.9555              3027.9462
 Red. masses --      1.0703                 1.0695                 1.0818
 Frc consts  --      5.6948                 5.7695                 5.8440
 IR Inten    --     11.0365                12.4739                21.9662

                    100                    101                    102
                      A                      A                      A
 Frequencies --   3032.7678              3036.0143              3044.0075
 Red. masses --      1.0631                 1.0777                 1.0678
 Frc consts  --      5.7613                 5.8526                 5.8293
 IR Inten    --     17.5732                13.5127                15.6299

                    103                    104                    105
                      A                      A                      A
 Frequencies --   3050.9184              3054.6417              3063.0234
 Red. masses --      1.0373                 1.0691                 1.0898
 Frc consts  --      5.6885                 5.8773                 6.0241
 IR Inten    --     27.8114                21.4517                70.8499

                    106                    107                    108
                      A                      A                      A
 Frequencies --   3068.5280              3072.8754              3081.1213
 Red. masses --      1.0963                 1.0970                 1.0989
 Frc consts  --      6.0816                 6.1030                 6.1467
 IR Inten    --     27.7963                71.7051                30.1980

                    109                    110                    111
                      A                      A                      A
 Frequencies --   3093.9707              3116.4614              3123.4855
 Red. masses --      1.1029                 1.1025                 1.1019
 Frc consts  --      6.2207                 6.3089                 6.3342
 IR Inten    --     89.1512                33.8265                44.5633

                    112                    113                    114
                      A                      A                      A
 Frequencies --   3260.4139              3286.6418              3426.2622
 Red. masses --      1.0918                 1.0909                 1.0495
 Frc consts  --      6.8384                 6.9432                 7.2591
 IR Inten    --      5.2999                 5.9547                 3.9929

                    115                    116                    117
                      A                      A                      A
 Frequencies --   3505.3578              3611.2508              3611.8421
 Red. masses --      1.0917                 1.0771                 1.0753
 Frc consts  --      7.9037                 8.2758                 8.2647
 IR Inten    --      0.2922                53.6959                26.0167

 - Thermochemistry -
 -------------------
 Temperature   298.150 Kelvin.  Pressure   1.00000 Atm.
 Atom     1 has atomic number  6 and mass  12.00000

 Molecular mass:   279.16953 amu.
 Principal axes and moments of inertia in atomic units:
                           1         2         3
     Eigenvalues --  3924.810608753.27035**********
           X            0.99981   0.01953  -0.00066
           Y           -0.01953   0.99978  -0.00783
           Z            0.00051   0.00784   0.99997
 This molecule is an asymmetric top.
 Rotational symmetry number  1.
 Warning -- assumption of classical behavior for rotation
           may cause significant error
 Rotational temperatures (Kelvin)      0.02207     0.00990     0.00819
 Rotational constants (GHZ):           0.45983     0.20618     0.17060
 Zero-point vibrational energy     924692.5 (Joules/Mol)
                                  221.00680 (Kcal/Mol)
 Warning -- explicit consideration of  30 degrees of freedom as
           vibrations may cause significant error
 Vibrational temperatures:     34.99    39.26    68.23    94.77   140.39
          (Kelvin)            152.98   189.84   216.77   234.92   248.34
                              269.86   297.28   317.05   345.26   349.96
                              381.44   433.12   449.02   474.30   501.23
                              557.98   600.69   624.69   660.80   704.44
                              739.60   744.20   762.33   794.21   837.71
                              930.70   969.01  1003.56  1037.33  1061.08
                             1067.93  1096.48  1117.54  1161.78  1173.44
                             1200.93  1210.30  1225.48  1322.35  1353.71
                             1367.09  1393.72  1403.57  1428.24  1439.04
                             1454.76  1495.19  1534.10  1547.88  1575.52
                             1610.02  1614.68  1640.98  1677.15  1723.45
                             1737.65  1766.71  1792.38  1832.17  1839.40
                             1858.36  1903.47  1919.56  1939.55  1954.67
                             1970.95  1975.49  1990.92  2008.57  2023.64
                             2026.73  2029.14  2041.63  2050.38  2050.96
                             2073.44  2090.14  2141.10  2178.27  2183.50
                             2188.28  2194.70  2198.85  2203.04  2205.09
                             2218.07  2268.06  2353.97  2363.89  2419.77
                             2514.19  4323.69  4353.68  4356.54  4363.48
                             4368.15  4379.65  4389.59  4394.95  4407.01
                             4414.93  4421.18  4433.05  4451.53  4483.89
                             4494.00  4691.01  4728.74  4929.63  5043.43
                             5195.78  5196.64

 Zero-point correction=                           0.352197 (Hartree/Particle)
 Thermal correction to Energy=                    0.371519
 Thermal correction to Enthalpy=                  0.372463
 Thermal correction to Gibbs Free Energy=         0.303659
 Sum of electronic and zero-point Energies=           -931.850450
 Sum of electronic and thermal Energies=              -931.831127
 Sum of electronic and thermal Enthalpies=            -931.830183
 Sum of electronic and thermal Free Energies=         -931.898987

                     E (Thermal)             CV                S
                      KCal/Mol        Cal/Mol-Kelvin    Cal/Mol-Kelvin
 Total                  233.132             74.165            144.811
 Electronic               0.000              0.000              0.000
 Translational            0.889              2.981             42.778
 Rotational               0.889              2.981             34.251
 Vibrational            231.354             68.204             67.781
 Vibration     1          0.593              1.985              6.246
 Vibration     2          0.593              1.984              6.017
 Vibration     3          0.595              1.979              4.922
 Vibration     4          0.597              1.971              4.273
 Vibration     5          0.603              1.951              3.502
 Vibration     6          0.605              1.944              3.335
 Vibration     7          0.612              1.921              2.918
 Vibration     8          0.618              1.902              2.664
 Vibration     9          0.623              1.888              2.512
 Vibration    10          0.626              1.876              2.407
 Vibration    11          0.632              1.857              2.252
 Vibration    12          0.641              1.830              2.073
 Vibration    13          0.647              1.810              1.956
 Vibration    14          0.657              1.779              1.803
 Vibration    15          0.659              1.774              1.779
 Vibration    16          0.671              1.737              1.628
 Vibration    17          0.693              1.672              1.411
 Vibration    18          0.700              1.651              1.351
 Vibration    19          0.712              1.616              1.262
 Vibration    20          0.726              1.579              1.174
 Vibration    21          0.756              1.496              1.009
 Vibration    22          0.781              1.432              0.901
 Vibration    23          0.795              1.396              0.845
 Vibration    24          0.817              1.340              0.768
 Vibration    25          0.845              1.273              0.685
 Vibration    26          0.869              1.219              0.624
 Vibration    27          0.872              1.212              0.616
 Vibration    28          0.885              1.184              0.588
 Vibration    29          0.907              1.135              0.540
 Vibration    30          0.939              1.070              0.481

 Optimization completed.
    -- Stationary point found.
 Normal termination of Gaussian 16 at Sat Dec 12 16:45:13 2020.

 ----------------------------------------------------------------------
 # B3LYP/6-311++G(d,p) empiricaldispersion=gd3bj scf=xqc pop=npa geom=c
 heck
 ----------------------------------------------------------------------

 ----------------------------------------
 CID_108355032_JID_10716_Energie_neutraal
 ----------------------------------------
 Structure from the checkpoint file:  "JID_10716.chk"
 Charge =  0 Multiplicity = 1

 SCF Done:  E(RB3LYP) =  -932.471708934     A.U. after   17 cycles
 Normal termination of Gaussian 16 at Sat Dec 12 16:55:20 2020.

 ----------------------------------------------------------------------
 # B3LYP/6-311++G(d,p) empiricaldispersion=gd3bj scf=xqc pop=npa geom=c
 heck
 ----------------------------------------------------------------------

 --------------------------------------
 CID_108355032_JID_10716_Energie_kation
 --------------------------------------
 Structure from the checkpoint file:  "JID_10716.chk"
 Charge =  1 Multiplicity = 2

 SCF Done:  E(UB3LYP) =  -932.192633540     A.U. after   26 cycles
 Normal termination of Gaussian 16 at Sat Dec 12 17:16:14 2020.
 Gaussian 16:  ES64L-G16RevA.03 25-Dec-2016

 ----------------------------------------------------------------------
 # B3LYP/6-311++G(d,p) empiricaldispersion=gd3bj scf=xqc pop=npa geom=c
 heck
 ----------------------------------------------------------------------

 -------------------------------------
 CID_108355032_JID_10716_Energie_anion
 -------------------------------------
 Structure from the checkpoint file:  "JID_10716.chk"
 Charge = -1 Multiplicity = 2

                         Standard orientation:
 ---------------------------------------------------------------------
 Center     Atomic      Atomic             Coordinates (Angstroms)
 Number     Number       Type             X           Y           Z
 ---------------------------------------------------------------------
      1          6           0       -3.025715   -0.691050    2.592718
      2          6           0       -3.163522   -0.807133    1.068803
      3          6           0       -3.991779    0.368353    0.519392
      4          6           0       -4.235853    0.411911   -0.997343
      5          6           0       -3.002654    0.814296   -1.821735
      6          6           0       -1.980525   -0.305740   -2.110679
      7          6           0       -1.873094   -1.437777   -1.077926
      8          6           0       -1.782638   -1.012925    0.406073
      9          7           0       -0.939742    0.158537    0.622912
     10          6           0        0.403650    0.204470    0.371094
     11          7           0        0.925098    1.447268    0.286737
     12          6           0        2.236696    1.585246    0.074234
     13          6           0        3.122033    0.494698   -0.064860
     14          6           0        2.544045   -0.757134    0.024762
     15          6           0        1.187516   -0.957402    0.239980
     16          7           0        3.413461   -1.945785   -0.118607
     17          8           0        2.880531   -3.052266   -0.062228
     18          8           0        4.616310   -1.755828   -0.285938
     19          7           0        2.718490    2.873943   -0.038308
     20          7           0        1.939759    3.981783    0.358657
     21          1           0       -2.512284   -1.563963    3.011320
     22          1           0       -4.009095   -0.616195    3.069786
     23          1           0       -2.446353    0.196711    2.867966
     24          1           0       -3.723627   -1.726621    0.848256
     25          1           0       -4.961210    0.341964    1.033405
     26          1           0       -3.532428    1.321251    0.826815
     27          1           0       -5.029495    1.146209   -1.183451
     28          1           0       -4.630790   -0.553098   -1.344076
     29          1           0       -2.504530    1.644923   -1.302552
     30          1           0       -3.331606    1.231519   -2.781106
     31          1           0       -0.992560    0.150424   -2.243647
     32          1           0       -2.224135   -0.774875   -3.072104
     33          1           0       -0.987098   -2.030387   -1.333300
     34          1           0       -2.726175   -2.120572   -1.174677
     35          1           0       -1.317453   -1.841905    0.954613
     36          1           0       -1.381480    1.064702    0.545156
     37          1           0        4.181242    0.616286   -0.244525
     38          1           0        0.784012   -1.955517    0.306953
     39          1           0        3.703387    3.004758    0.146757
     40          1           0        1.294861    4.179454   -0.406510
     41          1           0        1.343670    3.680577    1.133436
 ---------------------------------------------------------------------

 SCF Done:  E(UB3LYP) =  -932.509753321     A.U. after   23 cycles

 The electronic state is 2-A.
 Alpha  occ. eigenvalues --  -18.93544 -18.93514 -14.31097 -14.22958 -14.22566
 Alpha  occ. eigenvalues --  -14.20608 -14.16011 -10.11268 -10.10955 -10.10884
 Alpha  occ. eigenvalues --  -10.09672 -10.09402 -10.09357 -10.08623 -10.07930
 Alpha  occ. eigenvalues --  -10.07724 -10.07227 -10.05957 -10.02003 -10.01907
 Alpha  occ. eigenvalues --   -1.01659  -0.88432  -0.84583  -0.84485  -0.78672
 Alpha  occ. eigenvalues --   -0.73970  -0.70000  -0.68976  -0.67583  -0.66924
 Alpha  occ. eigenvalues --   -0.61521  -0.59392  -0.56913  -0.54532  -0.54101
 Alpha  occ. eigenvalues --   -0.50985  -0.47728  -0.46972  -0.45810  -0.41088
 Alpha  occ. eigenvalues --   -0.39657  -0.39371  -0.38893  -0.38207  -0.37630
 Alpha  occ. eigenvalues --   -0.36777  -0.35995  -0.34819  -0.34048  -0.33349
 Alpha  occ. eigenvalues --   -0.32739  -0.32373  -0.31917  -0.31518  -0.30693
 Alpha  occ. eigenvalues --   -0.30576  -0.29771  -0.28270  -0.27902  -0.25640
 Alpha  occ. eigenvalues --   -0.25453  -0.24603  -0.24394  -0.24028  -0.23134
 Alpha  occ. eigenvalues --   -0.22313  -0.20759  -0.17616  -0.15999  -0.14374
 Alpha  occ. eigenvalues --   -0.12980  -0.12448  -0.11435  -0.09402  -0.07282
 Alpha  occ. eigenvalues --    0.02925
 Alpha virt. eigenvalues --    0.05291   0.06772   0.07014   0.07934   0.08746
 Alpha virt. eigenvalues --    0.09676   0.09759   0.10115   0.10331   0.11338
 Alpha virt. eigenvalues --    0.11806   0.12180   0.12891   0.13086   0.13516

  Beta  occ. eigenvalues --  -18.93024 -18.93002 -14.30467 -14.22942 -14.22565
  Beta  occ. eigenvalues --  -14.20608 -14.15803 -10.11267 -10.10956 -10.10895
  Beta  occ. eigenvalues --  -10.09672 -10.09401 -10.09357 -10.08623 -10.07930
  Beta  occ. eigenvalues --  -10.07724 -10.07225 -10.05775 -10.01918 -10.01780
  Beta  occ. eigenvalues --   -1.00564  -0.88382  -0.84433  -0.83596  -0.78512
  Beta  occ. eigenvalues --   -0.73950  -0.69991  -0.68920  -0.67219  -0.66718
  Beta  occ. eigenvalues --   -0.61513  -0.59226  -0.56846  -0.54298  -0.53322
  Beta  occ. eigenvalues --   -0.50903  -0.47712  -0.46883  -0.45635  -0.40983
  Beta  occ. eigenvalues --   -0.39534  -0.39330  -0.38723  -0.38180  -0.37433
  Beta  occ. eigenvalues --   -0.36534  -0.35921  -0.34638  -0.33265  -0.32631
  Beta  occ. eigenvalues --   -0.32324  -0.31732  -0.31471  -0.31048  -0.30543
  Beta  occ. eigenvalues --   -0.30161  -0.29388  -0.27886  -0.27693  -0.25616
  Beta  occ. eigenvalues --   -0.25397  -0.24499  -0.24358  -0.24008  -0.23104
  Beta  occ. eigenvalues --   -0.22305  -0.20597  -0.17581  -0.14956  -0.14122
  Beta  occ. eigenvalues --   -0.11729  -0.10907  -0.09474  -0.08889  -0.06464
  Beta virt. eigenvalues --    0.05287   0.06762   0.07005   0.07916   0.08734
  Beta virt. eigenvalues --    0.09599   0.09694   0.10057   0.10172   0.10327
  Beta virt. eigenvalues --    0.11334   0.11797   0.12164   0.12878   0.13079

 Mulliken charges and spin densities:
               1          2
     1  C   -0.557802   0.000235
     2  C   -0.433397  -0.005195
     3  C   -0.290387   0.001268
     4  C   -0.381298  -0.001367
     5  C   -0.251651  -0.003488
     6  C   -0.542375  -0.007984
     7  C   -0.322856   0.002125
     8  C    0.338203  -0.003303
     9  N    0.127900   0.000508
    10  C   -1.445049  -0.017947
    11  N   -0.159172   0.103565
    12  C   -0.760924  -0.036032
    13  C    1.397218   0.227851
    14  C   -0.141223   0.022720
    15  C   -0.143492   0.084481
    16  N   -0.249772   0.207425
    17  O   -0.188440   0.204165
    18  O   -0.179466   0.193865
    19  N   -0.152726   0.005716
    20  N   -0.342769  -0.003251
    21  H    0.134285   0.001308
    22  H    0.137068  -0.000065
    23  H    0.163483  -0.000301
    24  H    0.161459   0.000034
    25  H    0.135466   0.000092
    26  H    0.146638  -0.000177
    27  H    0.156103   0.000124
    28  H    0.116414   0.000309
    29  H    0.133072   0.001032
    30  H    0.139478   0.000155
    31  H    0.179578  -0.001110
    32  H    0.161820  -0.001101
    33  H    0.144673   0.024598
    34  H    0.118438  -0.000212
    35  H    0.166923   0.003929
    36  H    0.241778  -0.001868
    37  H    0.245004  -0.007676
    38  H    0.261391   0.003969
    39  H    0.268255   0.002474
    40  H    0.240972  -0.000072
    41  H    0.227180  -0.000797
 Sum of Mulliken charges =  -1.00000   1.00000

 Dipole moment (field-independent basis, Debye):
    X=            -14.8028    Y=              5.5450    Z=              0.0831  Tot=             15.8075
 Quadrupole moment (field-independent basis, Debye-Ang):
   XX=           -185.0389   YY=           -162.5296   ZZ=           -129.9664
   XY=             26.0453   XZ=              3.1629   YZ=             -2.4613

 Summary of Natural Population Analysis:

                                       Natural Population
                Natural  -----------------------------------------------
    Atom  No    Charge         Core      Valence    Rydberg      Total
 -----------------------------------------------------------------------
      C    1   -0.28391      0.99966     2.27902    0.00523     3.28391
      C    2   -0.10662      0.99958     2.09863    0.00842     3.10662
      C    3   -0.18934      0.99961     2.18157    0.00815     3.18934
      C    4   -0.19107      0.99963     2.18431    0.00713     3.19107
      C    5   -0.19206      0.99963     2.18506    0.00736     3.19206
      C    6   -0.19396      0.99963     2.18645    0.00788     3.19396
      C    7   -0.19789      0.99961     2.19088    0.00740     3.19789
      C    8   -0.00507      0.99957     1.99400    0.01149     3.00507
      N    9   -0.32984      0.99965     2.81606    0.01413     3.82984
      C   10    0.20307      0.99955     1.78148    0.01590     2.79693
      N   11   -0.28113      0.99963     2.77007    0.01143     3.78113
      C   12    0.19405      0.99956     1.79262    0.01377     2.80595
      C   13   -0.13993      0.99947     2.13078    0.00968     3.13993
      C   14    0.11059      0.99940     1.87787    0.01214     2.88941
      C   15   -0.15871      0.99947     2.15056    0.00868     3.15871
      N   16    0.30440      0.99973     2.16855    0.02732     3.19560
      O   17   -0.19097      0.99990     3.18296    0.00811     4.19097
      O   18   -0.19126      0.99990     3.18332    0.00804     4.19126
      N   19   -0.23221      0.99966     2.71831    0.01424     3.73221
      N   20   -0.32294      0.99978     2.81205    0.01111     3.82294
      H   21    0.10062      0.00000     0.39859    0.00079     0.39938
      H   22    0.09254      0.00000     0.40654    0.00091     0.40746
      H   23    0.10407      0.00000     0.39493    0.00100     0.39593
      H   24    0.09203      0.00000     0.40651    0.00147     0.40797
      H   25    0.09598      0.00000     0.40296    0.00106     0.40402
      H   26    0.09176      0.00000     0.40709    0.00115     0.40824
      H   27    0.09497      0.00000     0.40386    0.00117     0.40503
      H   28    0.09280      0.00000     0.40601    0.00119     0.40720
      H   29    0.09424      0.00000     0.40446    0.00130     0.40576
      H   30    0.09513      0.00000     0.40376    0.00111     0.40487
      H   31    0.10828      0.00000     0.39065    0.00107     0.39172
      H   32    0.09329      0.00000     0.40568    0.00103     0.40671
      H   33    0.11182      0.00000     0.38698    0.00120     0.38818
      H   34    0.09018      0.00000     0.40869    0.00113     0.40982
      H   35    0.10080      0.00000     0.39773    0.00148     0.39920
      H   36    0.18668      0.00000     0.31137    0.00195     0.31332
      H   37    0.11424      0.00000     0.38431    0.00145     0.38576
      H   38    0.11471      0.00000     0.38350    0.00180     0.38529
      H   39    0.17982      0.00000     0.31795    0.00223     0.32018
      H   40    0.16868      0.00000     0.32943    0.00188     0.33132
      H   41    0.17215      0.00000     0.32557    0.00228     0.32785
 =======================================================================
   * Total *   -0.00000     19.99262    54.76111    0.24627    75.00000

 Normal termination of Gaussian 16 at Sat Dec 12 17:34:04 2020.
