 Gaussian 16, Revision A.03,

 -----------------------------------------------------------
 # opt freq B3LYP/6-31G(d) empiricaldispersion=gd3bj scf=xqc
 -----------------------------------------------------------

 ------------------------------
 CID_90747118_JID_6149_neutraal
 ------------------------------
 Symbolic Z-matrix:
 Charge =  0 Multiplicity = 1

 SCF Done:  E(RB3LYP) =  -1468.17367297     A.U. after   15 cycles
 SCF Done:  E(RB3LYP) =  -1468.17885605     A.U. after   14 cycles
 SCF Done:  E(RB3LYP) =  -1468.17595911     A.U. after   14 cycles
 SCF Done:  E(RB3LYP) =  -1468.17939612     A.U. after   14 cycles
 SCF Done:  E(RB3LYP) =  -1468.18038154     A.U. after   14 cycles
 SCF Done:  E(RB3LYP) =  -1468.18084940     A.U. after   13 cycles
 SCF Done:  E(RB3LYP) =  -1468.18093590     A.U. after   13 cycles
 SCF Done:  E(RB3LYP) =  -1468.18157799     A.U. after   14 cycles
 SCF Done:  E(RB3LYP) =  -1468.18204311     A.U. after   14 cycles
 SCF Done:  E(RB3LYP) =  -1468.18365545     A.U. after   15 cycles
 SCF Done:  E(RB3LYP) =  -1468.19203036     A.U. after    8 cycles
 SCF Done:  E(RB3LYP) =  -1468.19203052     A.U. after    8 cycles
 SCF Done:  E(RB3LYP) =  -1468.19203065     A.U. after    8 cycles
 SCF Done:  E(RB3LYP) =  -1468.19203084     A.U. after    8 cycles
 SCF Done:  E(RB3LYP) =  -1468.19203092     A.U. after    7 cycles
 Optimization completed.
    -- Stationary point found.
 Normal termination of Gaussian 16 at Thu Dec 10 21:31:32 2020.

 --------------------------------------------------------------------
 #N Geom=AllCheck Guess=TCheck SCRF=Check GenChk RB3LYP/6-31G(d) Freq
 --------------------------------------------------------------------

 Structure from the checkpoint file:  "JID_6149.chk"
 ------------------------------
 CID_90747118_JID_6149_neutraal
 ------------------------------
 Charge =  0 Multiplicity = 1

 SCF Done:  E(RB3LYP) =  -1468.19203092     A.U. after    1 cycles

  Exact polarizability: 169.880   6.149 153.001  -2.609   3.757 127.973
 Approx polarizability: 220.817   6.942 245.196  -0.247  27.815 211.573

                      1                      2                      3
                      A                      A                      A
 Frequencies --     22.9234                34.9138                38.4614
 Red. masses --      5.7463                 5.3268                 5.8361
 Frc consts  --      0.0018                 0.0038                 0.0051
 IR Inten    --      0.4937                 1.9175                 0.5235

                      4                      5                      6
                      A                      A                      A
 Frequencies --     54.8441                61.5794                68.1623
 Red. masses --      4.0769                 5.6957                 5.4056
 Frc consts  --      0.0072                 0.0127                 0.0148
 IR Inten    --      0.4292                 2.6688                 4.6340

                      7                      8                      9
                      A                      A                      A
 Frequencies --     79.7274                84.1539               134.7892
 Red. masses --      5.7017                 5.8930                 8.4175
 Frc consts  --      0.0214                 0.0246                 0.0901
 IR Inten    --      1.4096                 0.4052                 4.7940

                     10                     11                     12
                      A                      A                      A
 Frequencies --    153.1281               159.5676               169.1982
 Red. masses --      1.0369                 4.1446                 1.1263
 Frc consts  --      0.0143                 0.0622                 0.0190
 IR Inten    --      0.1833                 2.8247                 0.0292

                     13                     14                     15
                      A                      A                      A
 Frequencies --    184.5888               226.2670               229.6422
 Red. masses --      5.0633                 1.6657                 3.9696
 Frc consts  --      0.1016                 0.0502                 0.1233
 IR Inten    --      4.2536                 3.6319                 2.5513

                     16                     17                     18
                      A                      A                      A
 Frequencies --    254.7589               281.7470               285.2806
 Red. masses --      2.8586                 1.6884                 1.7523
 Frc consts  --      0.1093                 0.0790                 0.0840
 IR Inten    --      3.9344                 3.1769                17.2118

                     19                     20                     21
                      A                      A                      A
 Frequencies --    316.8234               340.4739               376.6778
 Red. masses --      1.6426                 2.7014                 2.9392
 Frc consts  --      0.0971                 0.1845                 0.2457
 IR Inten    --      7.3256                 3.3707                 8.7926

                     22                     23                     24
                      A                      A                      A
 Frequencies --    414.0295               444.3626               482.6725
 Red. masses --      5.6360                 4.1315                 3.4376
 Frc consts  --      0.5692                 0.4807                 0.4719
 IR Inten    --      7.2306                 2.8158                 9.9485

                     25                     26                     27
                      A                      A                      A
 Frequencies --    506.5909               534.0717               537.2771
 Red. masses --      4.1903                 4.8858                 4.9780
 Frc consts  --      0.6336                 0.8211                 0.8466
 IR Inten    --     29.2746                10.7628                 6.1973

                     28                     29                     30
                      A                      A                      A
 Frequencies --    551.1468               557.8696               637.5045
 Red. masses --      3.2502                 2.0001                 4.6589
 Frc consts  --      0.5817                 0.3667                 1.1156
 IR Inten    --      2.5202                 7.7582                 9.9120

                     31                     32                     33
                      A                      A                      A
 Frequencies --    644.8140               662.0425               670.3430
 Red. masses --      3.6876                 1.6678                 2.7090
 Frc consts  --      0.9034                 0.4307                 0.7172
 IR Inten    --      6.7849                83.5037                36.9829

                     34                     35                     36
                      A                      A                      A
 Frequencies --    683.1486               750.1371               757.7809
 Red. masses --      3.8791                 2.6105                 2.8096
 Frc consts  --      1.0666                 0.8655                 0.9506
 IR Inten    --     21.9600                 3.6155                 6.3469

                     37                     38                     39
                      A                      A                      A
 Frequencies --    798.0840               865.3088               872.2093
 Red. masses --      1.6810                 2.4852                 2.4360
 Frc consts  --      0.6308                 1.0964                 1.0919
 IR Inten    --     18.9802                 3.9096                 6.8818

                     40                     41                     42
                      A                      A                      A
 Frequencies --    935.6747               974.2727               980.2143
 Red. masses --      1.8731                 2.9806                 1.3410
 Frc consts  --      0.9662                 1.6669                 0.7591
 IR Inten    --      9.5888                39.6444                 8.2435

                     43                     44                     45
                      A                      A                      A
 Frequencies --    984.2495              1021.4219              1043.0269
 Red. masses --      1.7926                 1.7558                 1.5834
 Frc consts  --      1.0232                 1.0793                 1.0149
 IR Inten    --     16.6928                45.9137                17.5139

                     46                     47                     48
                      A                      A                      A
 Frequencies --   1066.0612              1069.4121              1093.4714
 Red. masses --      1.7271                 1.7818                 1.5908
 Frc consts  --      1.1565                 1.2006                 1.1207
 IR Inten    --      4.0818                 9.8029                 6.6074

                     49                     50                     51
                      A                      A                      A
 Frequencies --   1100.9221              1152.6105              1171.9676
 Red. masses --      2.8096                 2.1251                 2.0885
 Frc consts  --      2.0063                 1.6634                 1.6901
 IR Inten    --     85.3743                16.6021                22.3074

                     52                     53                     54
                      A                      A                      A
 Frequencies --   1204.5865              1244.0558              1250.7789
 Red. masses --      1.9350                 1.4596                 1.1361
 Frc consts  --      1.6543                 1.3310                 1.0472
 IR Inten    --     60.2550                 0.3229                 6.4855

                     55                     56                     57
                      A                      A                      A
 Frequencies --   1276.2817              1310.6955              1334.4366
 Red. masses --      1.3870                 1.5475                 1.3823
 Frc consts  --      1.3311                 1.5663                 1.4503
 IR Inten    --     23.3152                11.1170                81.1065

                     58                     59                     60
                      A                      A                      A
 Frequencies --   1336.8802              1344.0852              1358.9199
 Red. masses --      1.3339                 1.4089                 2.0675
 Frc consts  --      1.4046                 1.4996                 2.2495
 IR Inten    --      7.7761                14.8219               113.0436

                     61                     62                     63
                      A                      A                      A
 Frequencies --   1370.7656              1413.9094              1423.6249
 Red. masses --      1.6208                 1.3378                 1.4542
 Frc consts  --      1.7943                 1.5758                 1.7364
 IR Inten    --      4.0800                32.0836                83.7087

                     64                     65                     66
                      A                      A                      A
 Frequencies --   1439.4221              1476.7877              1478.8148
 Red. masses --      1.2096                 1.0977                 1.0840
 Frc consts  --      1.4766                 1.4104                 1.3968
 IR Inten    --      4.4919                12.5708                16.7306

                     67                     68                     69
                      A                      A                      A
 Frequencies --   1494.2622              1500.5968              1503.9787
 Red. masses --      1.0512                 1.7821                 1.0585
 Frc consts  --      1.3829                 2.3643                 1.4107
 IR Inten    --     12.0245               112.0039                 6.7066

                     70                     71                     72
                      A                      A                      A
 Frequencies --   1504.8132              1518.7885              1530.0662
 Red. masses --      1.0532                 1.0484                 1.0475
 Frc consts  --      1.4052                 1.4248                 1.4449
 IR Inten    --     12.6874                 9.7627                12.8090

                     73                     74                     75
                      A                      A                      A
 Frequencies --   1542.0803              1757.0583              1807.4132
 Red. masses --      1.0540                11.8485                 9.5377
 Frc consts  --      1.4768                21.5518                18.3574
 IR Inten    --     13.9030               146.2665                92.8900

                     76                     77                     78
                      A                      A                      A
 Frequencies --   1808.8410              2690.7253              2996.4340
 Red. masses --      9.4714                 1.0382                 1.0812
 Frc consts  --     18.2585                 4.4286                 5.7199
 IR Inten    --    438.0729                 6.9672                18.4115

                     79                     80                     81
                      A                      A                      A
 Frequencies --   3054.7752              3056.6228              3065.3046
 Red. masses --      1.0380                 1.0406                 1.0354
 Frc consts  --      5.7071                 5.7283                 5.7319
 IR Inten    --      1.4797                 4.7573                12.7807

                     82                     83                     84
                      A                      A                      A
 Frequencies --   3082.8028              3108.5795              3112.3587
 Red. masses --      1.0808                 1.0585                 1.0602
 Frc consts  --      6.0519                 6.0264                 6.0508
 IR Inten    --      3.5657                10.1748                 9.7651

                     85                     86                     87
                      A                      A                      A
 Frequencies --   3114.7609              3119.3451              3133.9575
 Red. masses --      1.0989                 1.1002                 1.1017
 Frc consts  --      6.2817                 6.3076                 6.3755
 IR Inten    --      9.8542                 9.0020                24.7290

                     88                     89                     90
                      A                      A                      A
 Frequencies --   3145.8890              3168.7712              3170.5789
 Red. masses --      1.1032                 1.1025                 1.1075
 Frc consts  --      6.4327                 6.5224                 6.5594
 IR Inten    --     16.9496                 7.8503                 0.7112

                     91                     92                     93
                      A                      A                      A
 Frequencies --   3174.4229              3181.7072              3569.3756
 Red. masses --      1.1078                 1.0997                 1.0756
 Frc consts  --      6.5770                 6.5592                 8.0740
 IR Inten    --      1.6457                 7.2004                35.8963

 - Thermochemistry -
 -------------------
 Temperature   298.150 Kelvin.  Pressure   1.00000 Atm.
 Atom     1 has atomic number  6 and mass  12.00000

 Molecular mass:   263.06499 amu.
 Principal axes and moments of inertia in atomic units:
                           1         2         3
     Eigenvalues --  3341.253546713.079088065.30500
           X            0.99958   0.02277  -0.01808
           Y           -0.02312   0.99955  -0.01933
           Z            0.01764   0.01974   0.99965
 This molecule is an asymmetric top.
 Rotational symmetry number  1.
 Warning -- assumption of classical behavior for rotation
           may cause significant error
 Rotational temperatures (Kelvin)      0.02592     0.01290     0.01074
 Rotational constants (GHZ):           0.54014     0.26884     0.22377
 Zero-point vibrational energy     698013.6 (Joules/Mol)
                                  166.82925 (Kcal/Mol)
 Warning -- explicit consideration of  29 degrees of freedom as
           vibrations may cause significant error
 Vibrational temperatures:     32.98    50.23    55.34    78.91    88.60
          (Kelvin)             98.07   114.71   121.08   193.93   220.32
                              229.58   243.44   265.58   325.55   330.40
                              366.54   405.37   410.46   455.84   489.87
                              541.96   595.70   639.34   694.46   728.87
                              768.41   773.02   792.98   802.65   917.23
                              927.74   952.53   964.47   982.90  1079.28
                             1090.28  1148.26  1244.99  1254.91  1346.23
                             1401.76  1410.31  1416.12  1469.60  1500.68
                             1533.82  1538.65  1573.26  1583.98  1658.35
                             1686.20  1733.13  1789.92  1799.59  1836.28
                             1885.80  1919.96  1923.47  1933.84  1955.18
                             1972.23  2034.30  2048.28  2071.01  2124.77
                             2127.68  2149.91  2159.02  2163.89  2165.09
                             2185.20  2201.42  2218.71  2528.02  2600.46
                             2602.52  3871.35  4311.20  4395.14  4397.80
                             4410.29  4435.47  4472.55  4477.99  4481.45
                             4488.04  4509.07  4526.23  4559.15  4561.76
                             4567.29  4577.77  5135.54

 Zero-point correction=                           0.265859 (Hartree/Particle)
 Thermal correction to Energy=                    0.285306
 Thermal correction to Enthalpy=                  0.286250
 Thermal correction to Gibbs Free Energy=         0.215592
 Sum of electronic and zero-point Energies=          -1467.926172
 Sum of electronic and thermal Energies=             -1467.906725
 Sum of electronic and thermal Enthalpies=           -1467.905781
 Sum of electronic and thermal Free Energies=        -1467.976439

                     E (Thermal)             CV                S
                      KCal/Mol        Cal/Mol-Kelvin    Cal/Mol-Kelvin
 Total                  179.032             68.909            148.713
 Electronic               0.000              0.000              0.000
 Translational            0.889              2.981             42.601
 Rotational               0.889              2.981             33.558
 Vibrational            177.255             62.947             72.553
 Vibration     1          0.593              1.985              6.363
 Vibration     2          0.594              1.983              5.529
 Vibration     3          0.594              1.982              5.337
 Vibration     4          0.596              1.976              4.635
 Vibration     5          0.597              1.973              4.406
 Vibration     6          0.598              1.969              4.206
 Vibration     7          0.600              1.963              3.898
 Vibration     8          0.601              1.960              3.792
 Vibration     9          0.613              1.919              2.877
 Vibration    10          0.619              1.899              2.633
 Vibration    11          0.621              1.892              2.555
 Vibration    12          0.625              1.880              2.444
 Vibration    13          0.631              1.861              2.281
 Vibration    14          0.650              1.801              1.908
 Vibration    15          0.652              1.796              1.882
 Vibration    16          0.665              1.755              1.697
 Vibration    17          0.681              1.707              1.523
 Vibration    18          0.683              1.701              1.502
 Vibration    19          0.704              1.641              1.326
 Vibration    20          0.720              1.595              1.210
 Vibration    21          0.747              1.520              1.052
 Vibration    22          0.778              1.440              0.912
 Vibration    23          0.804              1.373              0.813
 Vibration    24          0.839              1.288              0.703
 Vibration    25          0.862              1.235              0.642
 Vibration    26          0.889              1.175              0.578
 Vibration    27          0.892              1.168              0.571
 Vibration    28          0.906              1.137              0.542
 Vibration    29          0.913              1.122              0.528

 Optimization completed.
    -- Stationary point found.
 Normal termination of Gaussian 16 at Thu Dec 10 21:41:37 2020.

 ----------------------------------------------------------------------
 # B3LYP/6-311++G(d,p) empiricaldispersion=gd3bj scf=xqc pop=npa geom=c
 heck
 ----------------------------------------------------------------------

 --------------------------------------
 CID_90747118_JID_6149_Energie_neutraal
 --------------------------------------
 Structure from the checkpoint file:  "JID_6149.chk"
 Charge =  0 Multiplicity = 1

 SCF Done:  E(RB3LYP) =  -1468.45217183     A.U. after   16 cycles
 Normal termination of Gaussian 16 at Thu Dec 10 21:46:36 2020.

 ----------------------------------------------------------------------
 # B3LYP/6-311++G(d,p) empiricaldispersion=gd3bj scf=xqc pop=npa geom=c
 heck
 ----------------------------------------------------------------------

 ------------------------------------
 CID_90747118_JID_6149_Energie_kation
 ------------------------------------
 Structure from the checkpoint file:  "JID_6149.chk"
 Charge =  1 Multiplicity = 2

 SCF Done:  E(UB3LYP) =  -1468.14031885     A.U. after   33 cycles
 SCF Done:  E(UB3LYP) =  -1468.14031885     a.u. after    1 cycles
 Normal termination of Gaussian 16 at Thu Dec 10 22:00:43 2020.
 Gaussian 16:  ES64L-G16RevA.03 25-Dec-2016

 ----------------------------------------------------------------------
 # B3LYP/6-311++G(d,p) empiricaldispersion=gd3bj scf=xqc pop=npa geom=c
 heck
 ----------------------------------------------------------------------

 -----------------------------------
 CID_90747118_JID_6149_Energie_anion
 -----------------------------------
 Structure from the checkpoint file:  "JID_6149.chk"
 Charge = -1 Multiplicity = 2

                         Standard orientation:
 ---------------------------------------------------------------------
 Center     Atomic      Atomic             Coordinates (Angstroms)
 Number     Number       Type             X           Y           Z
 ---------------------------------------------------------------------
      1          6           0        2.526518    1.540063    0.071836
      2          6           0        2.979406    0.180272    0.632287
      3          6           0        1.900304   -0.526905    1.456537
      4         16           0        0.374954   -0.891325    0.502452
      5          6           0       -0.646345    0.441069    1.106405
      6          8           0       -0.290293    1.290948    1.899713
      7          6           0       -2.078279    0.445372    0.530733
      8          6           0       -2.485593    1.889045    0.196141
      9         16           0       -1.513457    2.631259   -1.178764
     10          7           0       -2.257305   -0.439208   -0.590852
     11          6           0       -2.788429   -1.713060   -0.608060
     12          8           0       -2.863733   -2.337561   -1.653225
     13          6           0       -3.261767   -2.277350    0.720897
     14          6           0        3.539386   -0.747054   -0.451642
     15          8           0        3.173581   -1.904221   -0.542103
     16          6           0        4.574603   -0.170636   -1.398198
     17          1           0        1.758799    1.407373   -0.697708
     18          1           0        3.361911    2.089386   -0.371136
     19          1           0        2.099903    2.149078    0.873475
     20          1           0        3.821114    0.371575    1.318878
     21          1           0        2.264308   -1.491705    1.811676
     22          1           0        1.599059    0.092816    2.303779
     23          1           0       -2.722429    0.110385    1.351325
     24          1           0       -3.524977    1.901406   -0.139474
     25          1           0       -2.388567    2.514324    1.084110
     26          1           0       -0.373388    2.790239   -0.474695
     27          1           0       -1.910647   -0.115386   -1.488181
     28          1           0       -2.448245   -2.304569    1.454021
     29          1           0       -4.081265   -1.683120    1.142305
     30          1           0       -3.617982   -3.291909    0.542262
     31          1           0        4.079448    0.470138   -2.138334
     32          1           0        5.305633    0.451404   -0.869640
     33          1           0        5.079248   -0.984154   -1.922401
 ---------------------------------------------------------------------

 SCF Done:  E(UB3LYP) =  -1468.45596718     A.U. after   32 cycles

 The electronic state is 2-A.
 Alpha  occ. eigenvalues --  -88.75083 -88.73797 -19.00460 -18.99122 -18.98988
 Alpha  occ. eigenvalues --  -14.23707 -10.18003 -10.15107 -10.13793 -10.12675
 Alpha  occ. eigenvalues --  -10.11037 -10.08965 -10.08696 -10.08094 -10.07712
 Alpha  occ. eigenvalues --  -10.06473  -7.83767  -7.82430  -5.80133  -5.79788
 Alpha  occ. eigenvalues --   -5.79169  -5.78757  -5.78366  -5.77945  -0.94366
 Alpha  occ. eigenvalues --   -0.93958  -0.93015  -0.83271  -0.71895  -0.70396
 Alpha  occ. eigenvalues --   -0.66548  -0.64732  -0.63490  -0.61852  -0.57635
 Alpha  occ. eigenvalues --   -0.53469  -0.50886  -0.49109  -0.44423  -0.41789
 Alpha  occ. eigenvalues --   -0.39737  -0.39128  -0.37257  -0.37052  -0.36552
 Alpha  occ. eigenvalues --   -0.35053  -0.34688  -0.33716  -0.33483  -0.32663
 Alpha  occ. eigenvalues --   -0.32499  -0.31281  -0.30844  -0.30193  -0.29740
 Alpha  occ. eigenvalues --   -0.28293  -0.27328  -0.27251  -0.26547  -0.25783
 Alpha  occ. eigenvalues --   -0.25572  -0.24697  -0.23696  -0.21643  -0.18161
 Alpha  occ. eigenvalues --   -0.16326  -0.15412  -0.15169  -0.13906  -0.13064
 Alpha  occ. eigenvalues --    0.03648
 Alpha virt. eigenvalues --    0.05496   0.07231   0.07424   0.08182   0.08528
 Alpha virt. eigenvalues --    0.08739   0.09546   0.09812   0.10392   0.10679
 Alpha virt. eigenvalues --    0.11186   0.11555   0.12039   0.12279   0.12670

  Beta  occ. eigenvalues --  -88.75080 -88.73800 -19.00347 -18.99122 -18.98729
  Beta  occ. eigenvalues --  -14.23705 -10.18002 -10.15009 -10.13406 -10.12702
  Beta  occ. eigenvalues --  -10.10965 -10.08965 -10.08691 -10.08072 -10.07700
  Beta  occ. eigenvalues --  -10.06446  -7.83764  -7.82432  -5.80129  -5.79783
  Beta  occ. eigenvalues --   -5.79166  -5.78767  -5.78377  -5.77936  -0.94358
  Beta  occ. eigenvalues --   -0.93744  -0.92477  -0.83241  -0.71821  -0.70299
  Beta  occ. eigenvalues --   -0.66399  -0.64696  -0.63345  -0.61786  -0.57505
  Beta  occ. eigenvalues --   -0.53306  -0.50785  -0.49047  -0.44086  -0.41650
  Beta  occ. eigenvalues --   -0.39584  -0.39001  -0.37181  -0.36908  -0.36368
  Beta  occ. eigenvalues --   -0.34845  -0.34559  -0.33562  -0.33287  -0.32478
  Beta  occ. eigenvalues --   -0.32367  -0.31207  -0.30782  -0.30119  -0.29653
  Beta  occ. eigenvalues --   -0.28143  -0.27274  -0.27126  -0.26054  -0.25467
  Beta  occ. eigenvalues --   -0.24860  -0.24439  -0.23583  -0.21547  -0.18071
  Beta  occ. eigenvalues --   -0.16321  -0.15367  -0.15006  -0.13564  -0.12905
  Beta virt. eigenvalues --    0.06334   0.06715   0.07782   0.08158   0.08495
  Beta virt. eigenvalues --    0.09169   0.09668   0.09719   0.10224   0.10578
  Beta virt. eigenvalues --    0.11011   0.11341   0.11667   0.12079   0.12286

 Mulliken charges and spin densities:
               1          2
     1  C   -0.495424  -0.397845
     2  C    1.075481  -0.243817
     3  C   -0.387373  -0.015959
     4  S    0.158057  -0.072345
     5  C   -0.415204  -0.112474
     6  O   -0.237391   0.099815
     7  C    0.508597   0.153758
     8  C   -0.445964  -0.424244
     9  S   -0.155423   0.085329
    10  N   -0.135909   0.001436
    11  C    0.139116   0.002644
    12  O   -0.333768   0.000547
    13  C   -0.256890  -0.262561
    14  C   -0.487219   0.351761
    15  O   -0.267770   0.035001
    16  C    0.033543  -0.620080
    17  H    0.112237   0.051400
    18  H   -0.026808   0.159939
    19  H    0.059680   0.122677
    20  H   -0.345270   0.554833
    21  H    0.244273  -0.000643
    22  H    0.224219  -0.002268
    23  H   -0.164263   0.381331
    24  H   -0.054813   0.298388
    25  H    0.183941   0.040371
    26  H    0.014130   0.031104
    27  H    0.265785  -0.015385
    28  H    0.081558   0.071323
    29  H   -0.082946   0.248213
    30  H    0.168797   0.007180
    31  H    0.132803   0.034042
    32  H   -0.216145   0.385010
    33  H    0.106363   0.051520
 Sum of Mulliken charges =  -1.00000   1.00000

 Dipole moment (field-independent basis, Debye):
    X=             -0.3035    Y=              1.1943    Z=              0.4940  Tot=              1.3276
 Quadrupole moment (field-independent basis, Debye-Ang):
   XX=           -178.1930   YY=           -151.6478   ZZ=           -138.9947
   XY=              0.0721   XZ=             -5.7970   YZ=            -12.4726

 Summary of Natural Population Analysis:

                                       Natural Population
                Natural  -----------------------------------------------
    Atom  No    Charge         Core      Valence    Rydberg      Total
 -----------------------------------------------------------------------
      C    1   -0.29193      0.99965     2.28521    0.00707     3.29193
      C    2   -0.15930      0.99954     2.14890    0.01086     3.15930
      C    3   -0.25276      0.99957     2.24044    0.01275     3.25276
      S    4    0.10562      4.99951     2.87903    0.01584     7.89438
      C    5    0.24321      0.99967     1.73109    0.02604     2.75679
      O    6   -0.28888      0.99987     3.28092    0.00809     4.28888
      C    7   -0.06348      0.99951     2.04843    0.01554     3.06348
      C    8   -0.23641      0.99956     2.22504    0.01181     3.23641
      S    9   -0.03605      4.99966     3.02261    0.01378     8.03605
      N   10   -0.32780      0.99966     2.81808    0.01006     3.82780
      C   11    0.34605      0.99970     1.63121    0.02304     2.65395
      O   12   -0.32116      0.99987     3.31556    0.00572     4.32116
      C   13   -0.33728      0.99962     2.33305    0.00462     3.33728
      C   14    0.30530      0.99966     1.67281    0.02223     2.69470
      O   15   -0.27846      0.99987     3.27224    0.00635     4.27846
      C   16   -0.33666      0.99962     2.33154    0.00549     3.33666
      H   17    0.10349      0.00000     0.39548    0.00103     0.39651
      H   18    0.09840      0.00000     0.40081    0.00079     0.40160
      H   19    0.11077      0.00000     0.38829    0.00094     0.38923
      H   20    0.11204      0.00000     0.38527    0.00269     0.38796
      H   21    0.11108      0.00000     0.38800    0.00092     0.38892
      H   22    0.11883      0.00000     0.37983    0.00134     0.38117
      H   23    0.12100      0.00000     0.37622    0.00278     0.37900
      H   24    0.10727      0.00000     0.39117    0.00156     0.39273
      H   25    0.11549      0.00000     0.38352    0.00099     0.38451
      H   26    0.06914      0.00000     0.42806    0.00280     0.43086
      H   27    0.20297      0.00000     0.29499    0.00205     0.29703
      H   28    0.11296      0.00000     0.38610    0.00094     0.38704
      H   29    0.10902      0.00000     0.38987    0.00111     0.39098
      H   30    0.11077      0.00000     0.38842    0.00081     0.38923
      H   31    0.11092      0.00000     0.38826    0.00083     0.38908
      H   32    0.10747      0.00000     0.39085    0.00168     0.39253
      H   33    0.10837      0.00000     0.39058    0.00106     0.39163
 =======================================================================
   * Total *   -0.00000     23.99455    45.78184    0.22362    70.00000

 Normal termination of Gaussian 16 at Thu Dec 10 22:14:22 2020.
