 Gaussian 16, Revision A.03,

 -----------------------------------------------------------
 # opt freq B3LYP/6-31G(d) empiricaldispersion=gd3bj scf=xqc
 -----------------------------------------------------------

 ------------------------------
 CID_59897660_JID_2684_neutraal
 ------------------------------
 Symbolic Z-matrix:
 Charge =  0 Multiplicity = 1

 SCF Done:  E(RB3LYP) =  -1239.03663295     A.U. after   15 cycles
 SCF Done:  E(RB3LYP) =  -1239.04417580     A.U. after   13 cycles
 SCF Done:  E(RB3LYP) =  -1239.04904148     A.U. after   14 cycles
 SCF Done:  E(RB3LYP) =  -1239.05395640     A.U. after   14 cycles
 SCF Done:  E(RB3LYP) =  -1239.05623104     A.U. after   12 cycles
 SCF Done:  E(RB3LYP) =  -1239.05771247     A.U. after   13 cycles
 SCF Done:  E(RB3LYP) =  -1239.06059432     A.U. after   12 cycles
 SCF Done:  E(RB3LYP) =  -1239.06150046     A.U. after   12 cycles
 SCF Done:  E(RB3LYP) =  -1239.06157933     A.U. after   10 cycles
 SCF Done:  E(RB3LYP) =  -1239.06160565     A.U. after   11 cycles
 SCF Done:  E(RB3LYP) =  -1239.06163024     A.U. after   11 cycles
 SCF Done:  E(RB3LYP) =  -1239.06163435     A.U. after    9 cycles
 SCF Done:  E(RB3LYP) =  -1239.06163469     A.U. after    8 cycles
 SCF Done:  E(RB3LYP) =  -1239.06163507     A.U. after    7 cycles
 SCF Done:  E(RB3LYP) =  -1239.06163510     A.U. after    7 cycles
 Optimization completed.
    -- Stationary point found.
 Normal termination of Gaussian 16 at Wed Dec  9 17:54:14 2020.

 --------------------------------------------------------------------
 #N Geom=AllCheck Guess=TCheck SCRF=Check GenChk RB3LYP/6-31G(d) Freq
 --------------------------------------------------------------------

 Structure from the checkpoint file:  "JID_2684.chk"
 ------------------------------
 CID_59897660_JID_2684_neutraal
 ------------------------------
 Charge =  0 Multiplicity = 1

 SCF Done:  E(RB3LYP) =  -1239.06163510     A.U. after    1 cycles

  Exact polarizability: 151.597   3.136 127.830  -7.818   1.172 102.899
 Approx polarizability: 230.058   4.094 208.616 -16.652   1.360 161.255

                      1                      2                      3
                      A                      A                      A
 Frequencies --     50.4653                76.3404               103.1779
 Red. masses --      4.4467                 3.1750                 4.0416
 Frc consts  --      0.0067                 0.0109                 0.0253
 IR Inten    --      0.3027                 1.1111                 2.6008

                      4                      5                      6
                      A                      A                      A
 Frequencies --    122.2875               137.3376               171.8289
 Red. masses --      4.4509                 1.1635                 3.5988
 Frc consts  --      0.0392                 0.0129                 0.0626
 IR Inten    --      0.7662                 1.2618                 3.2351

                      7                      8                      9
                      A                      A                      A
 Frequencies --    180.5431               205.2259               220.4940
 Red. masses --      3.2603                 2.4688                 1.2922
 Frc consts  --      0.0626                 0.0613                 0.0370
 IR Inten    --      2.1452                 4.4190                 3.5072

                     10                     11                     12
                      A                      A                      A
 Frequencies --    241.9496               254.8252               271.4942
 Red. masses --      2.7461                 1.2333                 2.9024
 Frc consts  --      0.0947                 0.0472                 0.1260
 IR Inten    --      0.5652                 0.7065                 1.5599

                     13                     14                     15
                      A                      A                      A
 Frequencies --    340.4135               366.5502               406.8106
 Red. masses --      4.3726                 3.7145                 5.4216
 Frc consts  --      0.2985                 0.2940                 0.5286
 IR Inten    --      7.4494                 4.6302                 9.1982

                     16                     17                     18
                      A                      A                      A
 Frequencies --    428.4114               438.5861               476.2929
 Red. masses --      1.7854                 2.3750                 6.9193
 Frc consts  --      0.1931                 0.2692                 0.9248
 IR Inten    --     67.3072                25.2285                 5.9915

                     19                     20                     21
                      A                      A                      A
 Frequencies --    511.2896               598.6049               645.6362
 Red. masses --      3.6070                 3.8185                 6.1274
 Frc consts  --      0.5556                 0.8062                 1.5049
 IR Inten    --      3.1490                 7.2123                 2.2675

                     22                     23                     24
                      A                      A                      A
 Frequencies --    678.7363               707.0060               717.9442
 Red. masses --      5.2763                 4.3774                 5.1578
 Frc consts  --      1.4321                 1.2892                 1.5664
 IR Inten    --     25.5822                 0.4345                 0.0936

                     25                     26                     27
                      A                      A                      A
 Frequencies --    721.2318               761.7134               812.0198
 Red. masses --      6.3642                 1.7718                 3.2412
 Frc consts  --      1.9505                 0.6057                 1.2592
 IR Inten    --      2.4310                35.8201                14.5840

                     28                     29                     30
                      A                      A                      A
 Frequencies --    887.5129               954.7940               990.7755
 Red. masses --      3.9651                 2.5276                 1.2387
 Frc consts  --      1.8401                 1.3576                 0.7164
 IR Inten    --     44.1059                 9.0354                 8.5090

                     31                     32                     33
                      A                      A                      A
 Frequencies --    997.5909               998.8605              1005.2504
 Red. masses --      1.3215                 1.2038                 1.2979
 Frc consts  --      0.7748                 0.7076                 0.7728
 IR Inten    --      4.1859                 3.4193                 7.2110

                     34                     35                     36
                      A                      A                      A
 Frequencies --   1030.6319              1078.9177              1092.2417
 Red. masses --      1.7631                 2.2801                 1.6584
 Frc consts  --      1.1034                 1.5638                 1.1657
 IR Inten    --     23.9283                29.5350                28.3835

                     37                     38                     39
                      A                      A                      A
 Frequencies --   1137.3412              1194.3986              1222.4502
 Red. masses --      2.9761                 2.0710                 1.2871
 Frc consts  --      2.2682                 1.7407                 1.1332
 IR Inten    --      7.1642                71.4750               147.9545

                     40                     41                     42
                      A                      A                      A
 Frequencies --   1256.5943              1270.6388              1303.8156
 Red. masses --      1.2697                 2.3111                 1.8384
 Frc consts  --      1.1812                 2.1984                 1.8413
 IR Inten    --      7.3502                57.7724               110.4333

                     43                     44                     45
                      A                      A                      A
 Frequencies --   1323.6936              1363.7724              1384.7095
 Red. masses --      1.4025                 1.5762                 1.1613
 Frc consts  --      1.4479                 1.7272                 1.3119
 IR Inten    --     10.3825                10.8472                 4.7569

                     46                     47                     48
                      A                      A                      A
 Frequencies --   1387.7159              1445.9605              1447.3014
 Red. masses --      1.1566                 1.3436                 1.8633
 Frc consts  --      1.3123                 1.6552                 2.2997
 IR Inten    --      0.8615                18.2428                15.9330

                     49                     50                     51
                      A                      A                      A
 Frequencies --   1484.3268              1497.9333              1502.0768
 Red. masses --      1.0516                 1.0554                 1.0526
 Frc consts  --      1.3651                 1.3952                 1.3993
 IR Inten    --      7.9577                10.6942                14.0647

                     52                     53                     54
                      A                      A                      A
 Frequencies --   1514.4493              1522.9390              1528.5858
 Red. masses --      1.0540                 1.0521                 1.0405
 Frc consts  --      1.4243                 1.4378                 1.4324
 IR Inten    --     14.1915                 9.0654                 7.4774

                     55                     56                     57
                      A                      A                      A
 Frequencies --   1637.8307              1687.2308              2984.6284
 Red. masses --     10.7572                 7.5133                 1.0810
 Frc consts  --     17.0015                12.6016                 5.6734
 IR Inten    --    207.8785               218.5295                13.2791

                     58                     59                     60
                      A                      A                      A
 Frequencies --   3066.4121              3067.0727              3080.6473
 Red. masses --      1.0375                 1.0296                 1.0852
 Frc consts  --      5.7475                 5.7065                 6.0682
 IR Inten    --     13.0818                18.7508                11.7053

                     61                     62                     63
                      A                      A                      A
 Frequencies --   3084.2799              3127.8428              3151.9226
 Red. masses --      1.0291                 1.1023                 1.1068
 Frc consts  --      5.7677                 6.3537                 6.4783
 IR Inten    --     15.8708                20.8163                 7.8412

                     64                     65                     66
                      A                      A                      A
 Frequencies --   3155.4033              3159.3292              3178.4019
 Red. masses --      1.1013                 1.1051                 1.1062
 Frc consts  --      6.4604                 6.4990                 6.5844
 IR Inten    --     12.4151                 3.5341                 4.8705

                     67                     68                     69
                      A                      A                      A
 Frequencies --   3183.4918              3191.7671              3750.3439
 Red. masses --      1.1073                 1.0911                 1.0652
 Frc consts  --      6.6118                 6.5493                 8.8275
 IR Inten    --      2.3066                16.6960                39.1518

 - Thermochemistry -
 -------------------
 Temperature   298.150 Kelvin.  Pressure   1.00000 Atm.
 Atom     1 has atomic number  6 and mass  12.00000

 Molecular mass:   203.04386 amu.
 Principal axes and moments of inertia in atomic units:
                           1         2         3
     Eigenvalues --  2128.405022830.098293754.55238
           X            0.99978   0.00480  -0.02032
           Y           -0.00421   0.99958   0.02885
           Z            0.02045  -0.02875   0.99938
 This molecule is an asymmetric top.
 Rotational symmetry number  1.
 Warning -- assumption of classical behavior for rotation
           may cause significant error
 Rotational temperatures (Kelvin)      0.04069     0.03060     0.02307
 Rotational constants (GHZ):           0.84793     0.63770     0.48068
 Zero-point vibrational energy     532213.2 (Joules/Mol)
                                  127.20201 (Kcal/Mol)
 Warning -- explicit consideration of  20 degrees of freedom as
           vibrations may cause significant error
 Vibrational temperatures:     72.61   109.84   148.45   175.94   197.60
          (Kelvin)            247.22   259.76   295.27   317.24   348.11
                              366.64   390.62   489.78   527.38   585.31
                              616.39   631.03   685.28   735.63   861.26
                              928.93   976.55  1017.22  1032.96  1037.69
                             1095.94  1168.32  1276.93  1373.74  1425.51
                             1435.31  1437.14  1446.33  1482.85  1552.32
                             1571.49  1636.38  1718.47  1758.83  1807.96
                             1828.17  1875.90  1904.50  1962.16  1992.29
                             1996.61  2080.41  2082.34  2135.62  2155.19
                             2161.15  2178.95  2191.17  2199.29  2356.47
                             2427.55  4294.21  4411.88  4412.83  4432.36
                             4437.59  4500.27  4534.91  4539.92  4545.57
                             4573.01  4580.33  4592.24  5395.91

 Zero-point correction=                           0.202709 (Hartree/Particle)
 Thermal correction to Energy=                    0.216401
 Thermal correction to Enthalpy=                  0.217345
 Thermal correction to Gibbs Free Energy=         0.162574
 Sum of electronic and zero-point Energies=          -1238.858926
 Sum of electronic and thermal Energies=             -1238.845235
 Sum of electronic and thermal Enthalpies=           -1238.844290
 Sum of electronic and thermal Free Energies=        -1238.899061

                     E (Thermal)             CV                S
                      KCal/Mol        Cal/Mol-Kelvin    Cal/Mol-Kelvin
 Total                  135.793             50.546            115.274
 Electronic               0.000              0.000              0.000
 Translational            0.889              2.981             41.829
 Rotational               0.889              2.981             31.492
 Vibrational            134.016             44.584             41.953
 Vibration     1          0.595              1.977              4.799
 Vibration     2          0.599              1.965              3.983
 Vibration     3          0.605              1.947              3.393
 Vibration     4          0.610              1.931              3.064
 Vibration     5          0.614              1.916              2.841
 Vibration     6          0.626              1.877              2.415
 Vibration     7          0.629              1.866              2.323
 Vibration     8          0.640              1.832              2.086
 Vibration     9          0.647              1.810              1.955
 Vibration    10          0.658              1.776              1.788
 Vibration    11          0.665              1.755              1.697
 Vibration    12          0.675              1.726              1.587
 Vibration    13          0.720              1.595              1.210
 Vibration    14          0.739              1.541              1.094
 Vibration    15          0.772              1.455              0.938
 Vibration    16          0.790              1.408              0.864
 Vibration    17          0.799              1.386              0.831
 Vibration    18          0.833              1.303              0.720
 Vibration    19          0.866              1.225              0.630
 Vibration    20          0.957              1.035              0.452

 Optimization completed.
    -- Stationary point found.
 Normal termination of Gaussian 16 at Wed Dec  9 18:01:22 2020.

 ----------------------------------------------------------------------
 # B3LYP/6-311++G(d,p) empiricaldispersion=gd3bj scf=xqc pop=npa geom=c
 heck
 ----------------------------------------------------------------------

 --------------------------------------
 CID_59897660_JID_2684_Energie_neutraal
 --------------------------------------
 Structure from the checkpoint file:  "JID_2684.chk"
 Charge =  0 Multiplicity = 1

 SCF Done:  E(RB3LYP) =  -1239.24754468     A.U. after   15 cycles
 Normal termination of Gaussian 16 at Wed Dec  9 18:04:34 2020.

 ----------------------------------------------------------------------
 # B3LYP/6-311++G(d,p) empiricaldispersion=gd3bj scf=xqc pop=npa geom=c
 heck
 ----------------------------------------------------------------------

 ------------------------------------
 CID_59897660_JID_2684_Energie_kation
 ------------------------------------
 Structure from the checkpoint file:  "JID_2684.chk"
 Charge =  1 Multiplicity = 2

 SCF Done:  E(UB3LYP) =  -1238.97098675     A.U. after   22 cycles
 Normal termination of Gaussian 16 at Wed Dec  9 18:09:50 2020.
 Gaussian 16:  ES64L-G16RevA.03 25-Dec-2016

 ----------------------------------------------------------------------
 # B3LYP/6-311++G(d,p) empiricaldispersion=gd3bj scf=xqc pop=npa geom=c
 heck
 ----------------------------------------------------------------------

 -----------------------------------
 CID_59897660_JID_2684_Energie_anion
 -----------------------------------
 Structure from the checkpoint file:  "JID_2684.chk"
 Charge = -1 Multiplicity = 2

                         Standard orientation:
 ---------------------------------------------------------------------
 Center     Atomic      Atomic             Coordinates (Angstroms)
 Number     Number       Type             X           Y           Z
 ---------------------------------------------------------------------
      1          6           0        0.112935   -2.244307   -1.290447
      2          6           0        0.205897   -0.720556   -1.227919
      3          6           0        1.588837   -0.185960   -0.783815
      4          6           0        1.541833    1.301599   -0.660006
      5          6           0        0.368854    1.901429   -0.359557
      6          7           0       -0.812522    1.217960   -0.088294
      7          6           0       -0.880478   -0.019735   -0.426942
      8         16           0       -2.308162   -0.962702    0.012438
      9          6           0       -3.269428    0.308763    0.895311
     10          8           0        0.191069    3.244973   -0.217240
     11         16           0        2.319954   -1.003614    0.728019
     12          6           0        1.197421   -0.432533    2.049209
     13          1           0       -0.822395   -2.563498   -1.760431
     14          1           0        0.178948   -2.691586   -0.296207
     15          1           0        0.941184   -2.640566   -1.886879
     16          1           0        0.078545   -0.323578   -2.249562
     17          1           0        2.311249   -0.484225   -1.550276
     18          1           0        2.469355    1.864084   -0.714217
     19          1           0       -2.714856    0.661743    1.765993
     20          1           0       -3.469539    1.153647    0.235031
     21          1           0       -4.202319   -0.169131    1.202958
     22          1           0        1.037784    3.681134   -0.402851
     23          1           0        1.067613    0.651058    1.998695
     24          1           0        0.223108   -0.924888    1.994496
     25          1           0        1.676520   -0.690829    2.996915
 ---------------------------------------------------------------------

 SCF Done:  E(UB3LYP) =  -1239.24273184     A.U. after   33 cycles
 SCF Done:  E(UB3LYP) =  -1239.24273184     a.u. after    1 cycles

 The electronic state is 2-A.
 Alpha  occ. eigenvalues --  -88.72518 -88.70526 -19.02209 -14.15122 -10.11207
 Alpha  occ. eigenvalues --  -10.08074 -10.07902 -10.07820 -10.06496 -10.06013
 Alpha  occ. eigenvalues --  -10.03852 -10.01555  -7.81156  -7.79158  -5.77539
 Alpha  occ. eigenvalues --   -5.77109  -5.76622  -5.75544  -5.75181  -5.74536
 Alpha  occ. eigenvalues --   -0.93698  -0.79869  -0.69297  -0.67464  -0.63906
 Alpha  occ. eigenvalues --   -0.61628  -0.56357  -0.54220  -0.51230  -0.48691
 Alpha  occ. eigenvalues --   -0.45122  -0.39657  -0.36566  -0.35526  -0.32501
 Alpha  occ. eigenvalues --   -0.31899  -0.31375  -0.31061  -0.30697  -0.29629
 Alpha  occ. eigenvalues --   -0.27872  -0.27140  -0.25869  -0.25278  -0.24924
 Alpha  occ. eigenvalues --   -0.23010  -0.21920  -0.20248  -0.20174  -0.17754
 Alpha  occ. eigenvalues --   -0.12889  -0.12224  -0.10015  -0.07419   0.05083
 Alpha virt. eigenvalues --    0.07758   0.08289   0.08850   0.09216   0.10389
 Alpha virt. eigenvalues --    0.11098   0.11594   0.12497   0.12623   0.13189
 Alpha virt. eigenvalues --    0.13944   0.14416   0.14597   0.15571   0.15836

  Beta  occ. eigenvalues --  -88.72508 -88.70510 -19.02162 -14.15021 -10.11102
  Beta  occ. eigenvalues --  -10.07886 -10.07820 -10.07563 -10.06487 -10.06056
  Beta  occ. eigenvalues --  -10.03823 -10.01417  -7.81147  -7.79140  -5.77540
  Beta  occ. eigenvalues --   -5.77115  -5.76572  -5.75523  -5.75164  -5.74520
  Beta  occ. eigenvalues --   -0.93564  -0.79388  -0.69170  -0.67247  -0.63834
  Beta  occ. eigenvalues --   -0.61427  -0.56099  -0.54062  -0.51120  -0.48509
  Beta  occ. eigenvalues --   -0.44936  -0.39371  -0.36214  -0.35318  -0.32363
  Beta  occ. eigenvalues --   -0.31762  -0.31235  -0.30986  -0.30592  -0.29579
  Beta  occ. eigenvalues --   -0.27499  -0.26988  -0.25693  -0.25156  -0.24806
  Beta  occ. eigenvalues --   -0.22672  -0.21697  -0.20066  -0.19495  -0.17364
  Beta  occ. eigenvalues --   -0.12483  -0.11918  -0.09910  -0.06609
  Beta virt. eigenvalues --    0.07809   0.08333   0.08804   0.09239   0.10603
  Beta virt. eigenvalues --    0.10952   0.11400   0.11757   0.12532   0.12751
  Beta virt. eigenvalues --    0.13187   0.14110   0.14392   0.14670   0.15587

 Mulliken charges and spin densities:
               1          2
     1  C    0.184386  -0.961406
     2  C   -0.581347   0.513334
     3  C    1.496734  -0.865473
     4  C   -0.791065   0.651018
     5  C    0.225012  -0.633666
     6  N   -0.022345   0.009965
     7  C   -0.140240   0.310436
     8  S   -0.433068   0.199857
     9  C   -0.390007  -0.145394
    10  O   -0.181132   0.012944
    11  S   -0.025082  -0.076838
    12  C   -0.577250  -0.137159
    13  H   -0.119759   0.247258
    14  H    0.185127  -0.007796
    15  H   -0.215057   0.343141
    16  H   -0.294784   0.520106
    17  H    0.012872   0.275317
    18  H   -0.261090   0.364087
    19  H    0.172941   0.005148
    20  H    0.182319   0.017297
    21  H    0.102814   0.019386
    22  H    0.054250   0.205088
    23  H    0.172336   0.055892
    24  H    0.155980   0.003646
    25  H    0.087453   0.073813
 Sum of Mulliken charges =  -1.00000   1.00000

 Dipole moment (field-independent basis, Debye):
    X=             -1.7918    Y=             -0.0667    Z=              2.8749  Tot=              3.3882
 Quadrupole moment (field-independent basis, Debye-Ang):
   XX=           -119.1158   YY=           -120.2354   ZZ=           -110.3611
   XY=              4.1899   XZ=             -3.4395   YZ=             -3.8122

 Summary of Natural Population Analysis:

                                       Natural Population
                Natural  -----------------------------------------------
    Atom  No    Charge         Core      Valence    Rydberg      Total
 -----------------------------------------------------------------------
      C    1   -0.29033      0.99965     2.28292    0.00776     3.29033
      C    2   -0.14943      0.99952     2.13617    0.01374     3.14943
      C    3   -0.15814      0.99953     2.14189    0.01672     3.15814
      C    4   -0.17817      0.99946     2.16644    0.01228     3.17817
      C    5    0.26355      0.99935     1.71968    0.01742     2.73645
      N    6   -0.28063      0.99957     2.76759    0.01346     3.78063
      C    7    0.16386      0.99951     1.81669    0.01994     2.83614
      S    8    0.11997      4.99950     2.86153    0.01900     7.88003
      C    9   -0.34970      0.99962     2.34343    0.00665     3.34970
      O   10   -0.34037      0.99987     3.33348    0.00702     4.34037
      S   11    0.07194      4.99962     2.91047    0.01797     7.92806
      C   12   -0.35603      0.99961     2.35021    0.00621     3.35603
      H   13    0.10056      0.00000     0.39819    0.00125     0.39944
      H   14    0.10511      0.00000     0.39331    0.00158     0.39489
      H   15    0.10000      0.00000     0.39860    0.00139     0.40000
      H   16    0.11966      0.00000     0.37660    0.00373     0.38034
      H   17    0.10958      0.00000     0.38852    0.00190     0.39042
      H   18    0.09453      0.00000     0.40400    0.00147     0.40547
      H   19    0.10748      0.00000     0.39103    0.00149     0.39252
      H   20    0.10997      0.00000     0.38837    0.00165     0.39003
      H   21    0.09683      0.00000     0.40221    0.00096     0.40317
      H   22    0.22889      0.00000     0.26824    0.00287     0.27111
      H   23    0.10926      0.00000     0.38917    0.00157     0.39074
      H   24    0.10319      0.00000     0.39542    0.00139     0.39681
      H   25    0.09842      0.00000     0.40050    0.00108     0.40158
 =======================================================================
   * Total *   -0.00000     19.99482    33.82467    0.18051    54.00000

 Normal termination of Gaussian 16 at Wed Dec  9 18:20:10 2020.
