 Gaussian 16, Revision A.03,

 -----------------------------------------------------------
 # opt freq B3LYP/6-31G(d) empiricaldispersion=gd3bj scf=xqc
 -----------------------------------------------------------

 ------------------------------
 CID_81070866_JID_8026_neutraal
 ------------------------------
 Symbolic Z-matrix:
 Charge =  0 Multiplicity = 1

 SCF Done:  E(RB3LYP) =  -806.750103156     A.U. after   15 cycles
 SCF Done:  E(RB3LYP) =  -806.744208637     A.U. after   13 cycles
 SCF Done:  E(RB3LYP) =  -806.754857072     A.U. after   12 cycles
 SCF Done:  E(RB3LYP) =  -806.756211328     A.U. after   12 cycles
 SCF Done:  E(RB3LYP) =  -806.756436742     A.U. after   13 cycles
 SCF Done:  E(RB3LYP) =  -806.757308407     A.U. after   12 cycles
 SCF Done:  E(RB3LYP) =  -806.757444205     A.U. after   12 cycles
 SCF Done:  E(RB3LYP) =  -806.757571364     A.U. after   12 cycles
 SCF Done:  E(RB3LYP) =  -806.757844845     A.U. after   12 cycles
 SCF Done:  E(RB3LYP) =  -806.758076374     A.U. after   12 cycles
 SCF Done:  E(RB3LYP) =  -806.760825483     A.U. after   10 cycles
 SCF Done:  E(RB3LYP) =  -806.760825448     A.U. after   10 cycles
 SCF Done:  E(RB3LYP) =  -806.760825794     A.U. after    9 cycles
 SCF Done:  E(RB3LYP) =  -806.760825616     A.U. after    9 cycles
 SCF Done:  E(RB3LYP) =  -806.760825760     A.U. after    8 cycles
 Optimization completed.
    -- Stationary point found.
 Normal termination of Gaussian 16 at Fri Dec 11 19:08:19 2020.

 --------------------------------------------------------------------
 #N Geom=AllCheck Guess=TCheck SCRF=Check GenChk RB3LYP/6-31G(d) Freq
 --------------------------------------------------------------------

 Structure from the checkpoint file:  "JID_8026.chk"
 ------------------------------
 CID_81070866_JID_8026_neutraal
 ------------------------------
 Charge =  0 Multiplicity = 1

 SCF Done:  E(RB3LYP) =  -806.760825760     A.U. after    1 cycles

  Exact polarizability: 186.805 -22.448 151.994   0.609  -5.358 146.758
 Approx polarizability: 237.408 -40.854 222.471  -9.579  -5.663 256.934

                      1                      2                      3
                      A                      A                      A
 Frequencies --      9.0358                27.0389                32.9423
 Red. masses --      3.8729                 3.5712                 3.7973
 Frc consts  --      0.0002                 0.0015                 0.0024
 IR Inten    --      0.3157                 0.3812                 0.7149

                      4                      5                      6
                      A                      A                      A
 Frequencies --     46.7226                71.7543                88.0425
 Red. masses --      5.6550                 2.8980                 3.2120
 Frc consts  --      0.0073                 0.0088                 0.0147
 IR Inten    --      0.2837                 1.0071                 4.4844

                      7                      8                      9
                      A                      A                      A
 Frequencies --     89.8992               135.2288               140.7668
 Red. masses --      3.0768                 3.1834                 3.3773
 Frc consts  --      0.0147                 0.0343                 0.0394
 IR Inten    --      1.3340                 6.3525                 2.7251

                     10                     11                     12
                      A                      A                      A
 Frequencies --    162.1045               182.1469               214.9242
 Red. masses --      3.4931                 2.8613                 2.5948
 Frc consts  --      0.0541                 0.0559                 0.0706
 IR Inten    --      2.7160                 6.2470                 1.6000

                     13                     14                     15
                      A                      A                      A
 Frequencies --    236.3584               250.9792               255.5233
 Red. masses --      1.4783                 1.4253                 1.2206
 Frc consts  --      0.0487                 0.0529                 0.0470
 IR Inten    --     10.2282                 2.1204                35.5436

                     16                     17                     18
                      A                      A                      A
 Frequencies --    267.8479               284.7507               306.2253
 Red. masses --      2.3755                 2.7813                 1.9691
 Frc consts  --      0.1004                 0.1329                 0.1088
 IR Inten    --     12.7038                 0.3586                 1.1562

                     19                     20                     21
                      A                      A                      A
 Frequencies --    335.4734               357.6102               388.0218
 Red. masses --      2.9842                 4.5234                 2.3455
 Frc consts  --      0.1979                 0.3408                 0.2081
 IR Inten    --      2.5357                 2.5219                 1.1688

                     22                     23                     24
                      A                      A                      A
 Frequencies --    420.0618               423.6368               456.9982
 Red. masses --      3.2572                 3.1289                 2.9755
 Frc consts  --      0.3386                 0.3308                 0.3661
 IR Inten    --      5.4193                 0.8457                 1.8547

                     25                     26                     27
                      A                      A                      A
 Frequencies --    481.3582               498.7017               523.1648
 Red. masses --      3.7465                 1.5549                 2.9445
 Frc consts  --      0.5115                 0.2278                 0.4748
 IR Inten    --     11.4882                50.7920                 7.9258

                     28                     29                     30
                      A                      A                      A
 Frequencies --    547.8814               603.9173               635.3828
 Red. masses --      3.7388                 2.4989                 2.4481
 Frc consts  --      0.6612                 0.5370                 0.5823
 IR Inten    --     14.1162                46.3969                31.4902

                     31                     32                     33
                      A                      A                      A
 Frequencies --    653.6315               673.9855               713.7484
 Red. masses --      5.4777                 3.3116                 3.5559
 Frc consts  --      1.3788                 0.8863                 1.0673
 IR Inten    --      6.2858                11.9453                 3.0367

                     34                     35                     36
                      A                      A                      A
 Frequencies --    764.5010               776.9423               810.2409
 Red. masses --      4.2354                 2.7767                 1.5032
 Frc consts  --      1.4585                 0.9875                 0.5814
 IR Inten    --     11.2959                 5.4877                 2.0945

                     37                     38                     39
                      A                      A                      A
 Frequencies --    825.8762               837.9362               845.0834
 Red. masses --      1.3723                 1.6733                 1.9741
 Frc consts  --      0.5515                 0.6922                 0.8307
 IR Inten    --     17.5356                24.1188                 5.7536

                     40                     41                     42
                      A                      A                      A
 Frequencies --    854.7374               893.7864               910.0350
 Red. masses --      3.8574                 1.3912                 2.0318
 Frc consts  --      1.6604                 0.6548                 0.9914
 IR Inten    --     10.2269                87.7895                 7.2564

                     43                     44                     45
                      A                      A                      A
 Frequencies --    938.4882               955.4647               977.3084
 Red. masses --      1.3149                 1.3413                 1.4713
 Frc consts  --      0.6823                 0.7214                 0.8280
 IR Inten    --      2.8086                 3.2633                36.5454

                     46                     47                     48
                      A                      A                      A
 Frequencies --    983.3563              1010.8640              1034.0842
 Red. masses --      1.6694                 1.8988                 2.7802
 Frc consts  --      0.9511                 1.1432                 1.7516
 IR Inten    --      1.9736                 2.5450                 0.9145

                     49                     50                     51
                      A                      A                      A
 Frequencies --   1050.9172              1075.3656              1081.6243
 Red. masses --      2.5008                 2.5943                 6.4620
 Frc consts  --      1.6273                 1.7676                 4.4542
 IR Inten    --      3.6540                 9.7683                49.9815

                     52                     53                     54
                      A                      A                      A
 Frequencies --   1104.3894              1116.5202              1123.9313
 Red. masses --      1.9551                 2.1624                 1.5451
 Frc consts  --      1.4050                 1.5883                 1.1500
 IR Inten    --      5.2358                15.3855                11.9095

                     55                     56                     57
                      A                      A                      A
 Frequencies --   1150.8534              1155.1804              1186.5561
 Red. masses --      1.5945                 1.4441                 1.2712
 Frc consts  --      1.2443                 1.1354                 1.0545
 IR Inten    --     14.7214                 0.2420                 0.7095

                     58                     59                     60
                      A                      A                      A
 Frequencies --   1210.7059              1219.4395              1231.9481
 Red. masses --      1.1783                 1.4150                 2.4022
 Frc consts  --      1.0176                 1.2398                 2.1481
 IR Inten    --     33.7868                 8.7930                15.5078

                     61                     62                     63
                      A                      A                      A
 Frequencies --   1240.1504              1259.9305              1271.3265
 Red. masses --      1.7889                 1.6541                 1.2623
 Frc consts  --      1.6210                 1.5470                 1.2020
 IR Inten    --      3.6502                91.8714                 7.6632

                     64                     65                     66
                      A                      A                      A
 Frequencies --   1294.3330              1307.1968              1320.7915
 Red. masses --      1.4051                 3.9193                 1.2764
 Frc consts  --      1.3869                 3.9459                 1.3119
 IR Inten    --     16.1792               236.1134                 9.7226

                     67                     68                     69
                      A                      A                      A
 Frequencies --   1321.5971              1350.0496              1360.2126
 Red. masses --      1.6403                 1.3730                 3.2107
 Frc consts  --      1.6880                 1.4745                 3.5000
 IR Inten    --     95.7168                 8.1802                60.1884

                     70                     71                     72
                      A                      A                      A
 Frequencies --   1373.8907              1381.1862              1409.5224
 Red. masses --      1.2253                 1.2960                 1.5456
 Frc consts  --      1.3627                 1.4567                 1.8092
 IR Inten    --      1.7047                11.3787                 8.6938

                     73                     74                     75
                      A                      A                      A
 Frequencies --   1422.0605              1435.1812              1442.1338
 Red. masses --      1.4828                 1.6485                 1.2474
 Frc consts  --      1.7668                 2.0005                 1.5285
 IR Inten    --      2.3891                21.3357                 0.1668

                     76                     77                     78
                      A                      A                      A
 Frequencies --   1453.3396              1473.6956              1483.3627
 Red. masses --      1.4676                 2.6665                 1.6156
 Frc consts  --      1.8264                 3.4120                 2.0945
 IR Inten    --     17.9675                 9.6736                40.5831

                     79                     80                     81
                      A                      A                      A
 Frequencies --   1498.0854              1500.5806              1521.4774
 Red. masses --      1.1332                 1.2008                 1.0485
 Frc consts  --      1.4984                 1.5930                 1.4300
 IR Inten    --     26.7951                13.8197                 3.4476

                     82                     83                     84
                      A                      A                      A
 Frequencies --   1522.0486              1526.8662              1533.1394
 Red. masses --      1.1328                 1.0608                 1.0604
 Frc consts  --      1.5461                 1.4570                 1.4686
 IR Inten    --     22.4159                 4.3923                 5.5283

                     85                     86                     87
                      A                      A                      A
 Frequencies --   1535.5278              1544.0124              1546.3824
 Red. masses --      1.0619                 1.0596                 1.0833
 Frc consts  --      1.4753                 1.4884                 1.5263
 IR Inten    --     38.8633                 1.8500                 2.5878

                     88                     89                     90
                      A                      A                      A
 Frequencies --   1570.6465              1639.3296              1678.8635
 Red. masses --      2.4218                 6.5154                 5.7283
 Frc consts  --      3.5200                10.3163                 9.5127
 IR Inten    --     94.0843                13.5157                62.8771

                     91                     92                     93
                      A                      A                      A
 Frequencies --   1700.8993              1776.7196              3018.9068
 Red. masses --      1.0854                 7.7977                 1.0778
 Frc consts  --      1.8501                14.5029                 5.7873
 IR Inten    --     36.6370               311.7586                 7.6738

                     94                     95                     96
                      A                      A                      A
 Frequencies --   3027.0565              3028.4353              3032.3306
 Red. masses --      1.0348                 1.0752                 1.0594
 Frc consts  --      5.5867                 5.8099                 5.7392
 IR Inten    --     51.0679                10.4996                55.6902

                     97                     98                     99
                      A                      A                      A
 Frequencies --   3044.3381              3051.0060              3053.9648
 Red. masses --      1.0398                 1.0625                 1.0599
 Frc consts  --      5.6778                 5.8273                 5.8245
 IR Inten    --     21.3039                28.7261                39.3298

                    100                    101                    102
                      A                      A                      A
 Frequencies --   3070.9950              3086.4862              3089.0817
 Red. masses --      1.1062                 1.1067                 1.1051
 Frc consts  --      6.1469                 6.2116                 6.2132
 IR Inten    --     38.0026                40.6446                16.7862

                    103                    104                    105
                      A                      A                      A
 Frequencies --   3093.4965              3107.0542              3112.7241
 Red. masses --      1.0994                 1.0997                 1.0893
 Frc consts  --      6.1987                 6.2552                 6.2185
 IR Inten    --      9.6220                35.2054                12.4600

                    106                    107                    108
                      A                      A                      A
 Frequencies --   3132.0792              3161.6502              3177.6485
 Red. masses --      1.0991                 1.0998                 1.0889
 Frc consts  --      6.3527                 6.4773                 6.4783
 IR Inten    --     30.0319                26.8916                14.2974

                    109                    110                    111
                      A                      A                      A
 Frequencies --   3191.5146              3218.2148              3230.7190
 Red. masses --      1.0887                 1.0928                 1.0913
 Frc consts  --      6.5338                 6.6686                 6.7113
 IR Inten    --      9.5018                 6.6137                 9.5896

                    112                    113                    114
                      A                      A                      A
 Frequencies --   3465.6370              3545.3902              3602.7519
 Red. masses --      1.0503                 1.0914                 1.0764
 Frc consts  --      7.4325                 8.0830                 8.2320
 IR Inten    --      3.4544                 1.3820                19.9584

 - Thermochemistry -
 -------------------
 Temperature   298.150 Kelvin.  Pressure   1.00000 Atm.
 Atom     1 has atomic number  6 and mass  12.00000

 Molecular mass:   250.16813 amu.
 Principal axes and moments of inertia in atomic units:
                           1         2         3
     Eigenvalues --  2738.200788100.131629439.60393
           X            0.99994   0.00337   0.01078
           Y           -0.00304   0.99951  -0.03108
           Z           -0.01088   0.03105   0.99946
 This molecule is an asymmetric top.
 Rotational symmetry number  1.
 Warning -- assumption of classical behavior for rotation
           may cause significant error
 Rotational temperatures (Kelvin)      0.03163     0.01069     0.00918
 Rotational constants (GHZ):           0.65910     0.22280     0.19119
 Zero-point vibrational energy     920395.0 (Joules/Mol)
                                  219.97968 (Kcal/Mol)
 Warning -- explicit consideration of  29 degrees of freedom as
           vibrations may cause significant error
 Vibrational temperatures:     13.00    38.90    47.40    67.22   103.24
          (Kelvin)            126.67   129.34   194.56   202.53   233.23
                              262.07   309.23   340.07   361.10   367.64
                              385.37   409.69   440.59   482.67   514.52
                              558.28   604.38   609.52   657.52   692.57
                              717.52   752.72   788.28   868.90   914.17
                              940.43   969.71  1026.92  1099.95  1117.85
                             1165.76  1188.25  1205.60  1215.89  1229.78
                             1285.96  1309.34  1350.28  1374.70  1406.13
                             1414.83  1454.41  1487.82  1512.04  1547.21
                             1556.22  1588.97  1606.42  1617.09  1655.82
                             1662.05  1707.19  1741.94  1754.50  1772.50
                             1784.30  1812.76  1829.16  1862.26  1880.76
                             1900.32  1901.48  1942.42  1957.04  1976.72
                             1987.22  2027.99  2046.03  2064.91  2074.91
                             2091.03  2120.32  2134.23  2155.41  2159.00
                             2189.07  2189.89  2196.82  2205.85  2209.28
                             2221.49  2224.90  2259.81  2358.63  2415.51
                             2447.21  2556.30  4343.53  4355.26  4357.24
                             4362.85  4380.12  4389.72  4393.97  4418.48
                             4440.77  4444.50  4450.85  4470.36  4478.52
                             4506.36  4548.91  4571.93  4591.88  4630.29
                             4648.28  4986.28  5101.03  5183.56

 Zero-point correction=                           0.350560 (Hartree/Particle)
 Thermal correction to Energy=                    0.369826
 Thermal correction to Enthalpy=                  0.370770
 Thermal correction to Gibbs Free Energy=         0.300264
 Sum of electronic and zero-point Energies=           -806.410266
 Sum of electronic and thermal Energies=              -806.391000
 Sum of electronic and thermal Enthalpies=            -806.390056
 Sum of electronic and thermal Free Energies=         -806.460562

                     E (Thermal)             CV                S
                      KCal/Mol        Cal/Mol-Kelvin    Cal/Mol-Kelvin
 Total                  232.069             71.664            148.392
 Electronic               0.000              0.000              0.000
 Translational            0.889              2.981             42.451
 Rotational               0.889              2.981             33.703
 Vibrational            230.292             65.703             72.237
 Vibration     1          0.593              1.987              8.212
 Vibration     2          0.593              1.984              6.036
 Vibration     3          0.594              1.983              5.644
 Vibration     4          0.595              1.979              4.951
 Vibration     5          0.598              1.967              4.105
 Vibration     6          0.601              1.958              3.703
 Vibration     7          0.602              1.956              3.662
 Vibration     8          0.613              1.918              2.870
 Vibration     9          0.615              1.913              2.793
 Vibration    10          0.622              1.889              2.525
 Vibration    11          0.630              1.864              2.306
 Vibration    12          0.645              1.818              2.001
 Vibration    13          0.655              1.785              1.830
 Vibration    14          0.663              1.761              1.724
 Vibration    15          0.666              1.753              1.692
 Vibration    16          0.673              1.732              1.610
 Vibration    17          0.683              1.702              1.505
 Vibration    18          0.697              1.662              1.383
 Vibration    19          0.717              1.605              1.234
 Vibration    20          0.733              1.560              1.132
 Vibration    21          0.756              1.496              1.008
 Vibration    22          0.783              1.427              0.892
 Vibration    23          0.786              1.419              0.880
 Vibration    24          0.815              1.345              0.775
 Vibration    25          0.838              1.291              0.706
 Vibration    26          0.854              1.253              0.661
 Vibration    27          0.878              1.199              0.603
 Vibration    28          0.903              1.144              0.549
 Vibration    29          0.962              1.023              0.443

                           ! Non-Optimized Parameters !
 Normal termination of Gaussian 16 at Fri Dec 11 19:25:17 2020.

 ----------------------------------------------------------------------
 # B3LYP/6-311++G(d,p) empiricaldispersion=gd3bj scf=xqc pop=npa geom=c
 heck
 ----------------------------------------------------------------------

 --------------------------------------
 CID_81070866_JID_8026_Energie_neutraal
 --------------------------------------
 Structure from the checkpoint file:  "JID_8026.chk"
 Charge =  0 Multiplicity = 1

 SCF Done:  E(RB3LYP) =  -806.997496669     A.U. after   16 cycles
 Normal termination of Gaussian 16 at Fri Dec 11 19:32:42 2020.

 ----------------------------------------------------------------------
 # B3LYP/6-311++G(d,p) empiricaldispersion=gd3bj scf=xqc pop=npa geom=c
 heck
 ----------------------------------------------------------------------

 ------------------------------------
 CID_81070866_JID_8026_Energie_kation
 ------------------------------------
 Structure from the checkpoint file:  "JID_8026.chk"
 Charge =  1 Multiplicity = 2

 SCF Done:  E(UB3LYP) =  -806.711042113     A.U. after   32 cycles
 Normal termination of Gaussian 16 at Fri Dec 11 19:53:09 2020.
 Gaussian 16:  ES64L-G16RevA.03 25-Dec-2016

 ----------------------------------------------------------------------
 # B3LYP/6-311++G(d,p) empiricaldispersion=gd3bj scf=xqc pop=npa geom=c
 heck
 ----------------------------------------------------------------------

 -----------------------------------
 CID_81070866_JID_8026_Energie_anion
 -----------------------------------
 Structure from the checkpoint file:  "JID_8026.chk"
 Charge = -1 Multiplicity = 2

                         Standard orientation:
 ---------------------------------------------------------------------
 Center     Atomic      Atomic             Coordinates (Angstroms)
 Number     Number       Type             X           Y           Z
 ---------------------------------------------------------------------
      1          6           0        0.535120    2.017156   -0.306741
      2          6           0        2.032458    1.745099   -0.486992
      3          6           0        2.633350    0.808584    0.577376
      4          6           0        1.888730   -0.534525    0.682535
      5          6           0        1.818090   -1.356893   -0.599468
      6          8           0        2.541173   -1.175724   -1.574257
      7          7           0        0.910169   -2.389293   -0.602545
      8          6           0       -0.163697   -2.620658    0.355175
      9          6           0       -1.269564   -1.579369    0.328898
     10          6           0       -1.819328   -1.090675    1.520825
     11          6           0       -2.823221   -0.130979    1.510293
     12          6           0       -3.303028    0.367743    0.292093
     13          6           0       -2.767733   -0.112495   -0.909006
     14          6           0       -1.759263   -1.076657   -0.877119
     15          8           0       -4.279176    1.314897    0.381197
     16          6           0       -4.762896    1.885004   -0.824004
     17          6           0        4.145530    0.608838    0.389476
     18          7           0        4.866944    1.885333    0.533405
     19          1           0       -0.070773    1.121280   -0.473956
     20          1           0        0.189816    2.779780   -1.014304
     21          1           0        0.316201    2.380672    0.705323
     22          1           0        2.216349    1.322205   -1.480889
     23          1           0        2.568150    2.700911   -0.434708
     24          1           0        2.508580    1.302898    1.551621
     25          1           0        2.376243   -1.164340    1.442076
     26          1           0        0.874408   -0.357739    1.050824
     27          1           0        0.886826   -2.891657   -1.480622
     28          1           0       -0.568381   -3.614222    0.129819
     29          1           0        0.251561   -2.685938    1.367128
     30          1           0       -1.445698   -1.458802    2.473751
     31          1           0       -3.242379    0.259318    2.431850
     32          1           0       -3.116126    0.260750   -1.864487
     33          1           0       -1.333279   -1.422942   -1.814760
     34          1           0       -3.960047    2.384401   -1.381870
     35          1           0       -5.232514    1.129218   -1.467256
     36          1           0       -5.511055    2.621891   -0.527787
     37          1           0        4.505570   -0.056984    1.184935
     38          1           0        4.323459    0.097641   -0.566128
     39          1           0        5.865808    1.694877    0.597938
     40          1           0        4.754227    2.430076   -0.320102
 ---------------------------------------------------------------------

 SCF Done:  E(UB3LYP) =  -806.987489450     A.U. after   33 cycles
 SCF Done:  E(UB3LYP) =  -806.987489450     a.u. after    1 cycles

 The electronic state is 2-A.
 Alpha  occ. eigenvalues --  -19.06291 -18.99598 -14.24093 -14.21598 -10.18180
 Alpha  occ. eigenvalues --  -10.14237 -10.12966 -10.12202 -10.10110 -10.08710
 Alpha  occ. eigenvalues --  -10.08644 -10.08531 -10.08521 -10.08193 -10.08109
 Alpha  occ. eigenvalues --  -10.08025 -10.07116 -10.06329  -0.97935  -0.94664
 Alpha  occ. eigenvalues --   -0.83132  -0.80400  -0.76525  -0.71782  -0.68096
 Alpha  occ. eigenvalues --   -0.66139  -0.64978  -0.62645  -0.60395  -0.58097
 Alpha  occ. eigenvalues --   -0.53688  -0.52592  -0.50325  -0.49141  -0.45316
 Alpha  occ. eigenvalues --   -0.44568  -0.41405  -0.40839  -0.40312  -0.39634
 Alpha  occ. eigenvalues --   -0.38790  -0.37881  -0.37226  -0.36687  -0.35774
 Alpha  occ. eigenvalues --   -0.34416  -0.33584  -0.33244  -0.32763  -0.31821
 Alpha  occ. eigenvalues --   -0.30840  -0.29890  -0.29522  -0.28768  -0.28223
 Alpha  occ. eigenvalues --   -0.27591  -0.27082  -0.26296  -0.24365  -0.23924
 Alpha  occ. eigenvalues --   -0.23848  -0.23119  -0.22714  -0.17409  -0.16949
 Alpha  occ. eigenvalues --   -0.16548  -0.15646  -0.13137   0.03933
 Alpha virt. eigenvalues --    0.05529   0.05721   0.06514   0.07114   0.07657
 Alpha virt. eigenvalues --    0.07881   0.08339   0.08890   0.08965   0.09649
 Alpha virt. eigenvalues --    0.09815   0.10054   0.10568   0.11335   0.11393

  Beta  occ. eigenvalues --  -19.06281 -18.99596 -14.24073 -14.21595 -10.18181
  Beta  occ. eigenvalues --  -10.14225 -10.12920 -10.12171 -10.10107 -10.08695
  Beta  occ. eigenvalues --  -10.08638 -10.08529 -10.08510 -10.08157 -10.08090
  Beta  occ. eigenvalues --  -10.08005 -10.07114 -10.06322  -0.97907  -0.94658
  Beta  occ. eigenvalues --   -0.83097  -0.80395  -0.76484  -0.71771  -0.68042
  Beta  occ. eigenvalues --   -0.66086  -0.64960  -0.62591  -0.60369  -0.58028
  Beta  occ. eigenvalues --   -0.53673  -0.52528  -0.50289  -0.49100  -0.45285
  Beta  occ. eigenvalues --   -0.44525  -0.41388  -0.40794  -0.40279  -0.39601
  Beta  occ. eigenvalues --   -0.38754  -0.37840  -0.37211  -0.36639  -0.35732
  Beta  occ. eigenvalues --   -0.34410  -0.33551  -0.33201  -0.32743  -0.31793
  Beta  occ. eigenvalues --   -0.30815  -0.29865  -0.29491  -0.28734  -0.28182
  Beta  occ. eigenvalues --   -0.27558  -0.27046  -0.26277  -0.24355  -0.23897
  Beta  occ. eigenvalues --   -0.23824  -0.23096  -0.22668  -0.17402  -0.16892
  Beta  occ. eigenvalues --   -0.16482  -0.15638  -0.13036
  Beta virt. eigenvalues --    0.05561   0.06307   0.06707   0.07052   0.07440
  Beta virt. eigenvalues --    0.07797   0.08170   0.08801   0.09199   0.09373
  Beta virt. eigenvalues --    0.09739   0.10072   0.10273   0.10831   0.11492

 Mulliken charges and spin densities:
               1          2
     1  C   -1.022525   0.340217
     2  C    0.073217  -0.357166
     3  C    0.348923  -0.090754
     4  C    0.605270  -0.432202
     5  C   -0.781570   0.365566
     6  O   -0.293435   0.005582
     7  N   -0.176672   0.065729
     8  C    2.707712  -3.305251
     9  C    1.222054  -0.495960
    10  C   -1.256123   0.817361
    11  C   -0.770182   0.442007
    12  C   -0.758237   0.002905
    13  C   -0.593284   0.825211
    14  C    0.429800  -0.429989
    15  O   -0.139333   0.026519
    16  C    0.902711  -1.228940
    17  C   -0.503455  -0.325399
    18  N   -0.375435   0.019535
    19  H    0.712705  -0.456000
    20  H   -0.026904   0.164126
    21  H    0.044147   0.077106
    22  H    0.147678   0.038990
    23  H    0.093283  -0.004253
    24  H    0.143471   0.060624
    25  H   -0.072096   0.258493
    26  H    0.552896  -0.343127
    27  H   -0.047724   0.356340
    28  H   -0.829873   1.045326
    29  H    0.114500   0.098611
    30  H   -0.446647   0.596851
    31  H    0.003493   0.181443
    32  H   -0.411329   0.626570
    33  H   -0.388125   0.565989
    34  H   -0.208822   0.368381
    35  H   -0.163035   0.318431
    36  H   -0.527631   0.695060
    37  H    0.073670   0.081351
    38  H    0.199631  -0.004693
    39  H    0.210370   0.016067
    40  H    0.206906   0.013340
 Sum of Mulliken charges =  -1.00000   1.00000

 Dipole moment (field-independent basis, Debye):
    X=              6.4522    Y=              2.4078    Z=              2.7886  Tot=              7.4300
 Quadrupole moment (field-independent basis, Debye-Ang):
   XX=           -190.0124   YY=           -171.3198   ZZ=           -151.2686
   XY=             11.0551   XZ=             -8.4639   YZ=             -2.8407

 Summary of Natural Population Analysis:

                                       Natural Population
                Natural  -----------------------------------------------
    Atom  No    Charge         Core      Valence    Rydberg      Total
 -----------------------------------------------------------------------
      C    1   -0.28831      0.99966     2.28332    0.00532     3.28831
      C    2   -0.19548      0.99962     2.18870    0.00717     3.19548
      C    3   -0.10825      0.99960     2.09786    0.01079     3.10825
      C    4   -0.24163      0.99956     2.23362    0.00845     3.24163
      C    5    0.34864      0.99967     1.62830    0.02339     2.65136
      O    6   -0.32865      0.99988     3.32350    0.00528     4.32865
      N    7   -0.31834      0.99968     2.80753    0.01113     3.81834
      C    8   -0.09466      0.99957     2.08255    0.01253     3.09466
      C    9   -0.04478      0.99949     2.03383    0.01147     3.04478
      C   10   -0.09583      0.99951     2.08663    0.00969     3.09583
      C   11   -0.11431      0.99952     2.10530    0.00949     3.11431
      C   12    0.16143      0.99938     1.82531    0.01388     2.83857
      C   13   -0.13844      0.99952     2.12979    0.00913     3.13844
      C   14   -0.08420      0.99951     2.07402    0.01066     3.08420
      O   15   -0.27282      0.99986     3.26310    0.00986     4.27282
      C   16   -0.10092      0.99960     2.09232    0.00900     3.10092
      C   17   -0.09134      0.99960     2.08173    0.01001     3.09134
      N   18   -0.42298      0.99977     2.91382    0.00939     3.92298
      H   19    0.10285      0.00000     0.39563    0.00152     0.39715
      H   20    0.09879      0.00000     0.40046    0.00075     0.40121
      H   21    0.09421      0.00000     0.40484    0.00095     0.40579
      H   22    0.10484      0.00000     0.39398    0.00118     0.39516
      H   23    0.09249      0.00000     0.40631    0.00121     0.40751
      H   24    0.09687      0.00000     0.40121    0.00192     0.40313
      H   25    0.11119      0.00000     0.38753    0.00128     0.38881
      H   26    0.11640      0.00000     0.38169    0.00191     0.38360
      H   27    0.19673      0.00000     0.30022    0.00305     0.30327
      H   28    0.11112      0.00000     0.38521    0.00367     0.38888
      H   29    0.09748      0.00000     0.40058    0.00194     0.40252
      H   30    0.10043      0.00000     0.39845    0.00112     0.39957
      H   31    0.10522      0.00000     0.39363    0.00115     0.39478
      H   32    0.10808      0.00000     0.39031    0.00160     0.39192
      H   33    0.10455      0.00000     0.39377    0.00168     0.39545
      H   34    0.08684      0.00000     0.41123    0.00193     0.41316
      H   35    0.08522      0.00000     0.41311    0.00167     0.41478
      H   36    0.09422      0.00000     0.40443    0.00134     0.40578
      H   37    0.08621      0.00000     0.41266    0.00113     0.41379
      H   38    0.09554      0.00000     0.40285    0.00162     0.40446
      H   39    0.17089      0.00000     0.32755    0.00157     0.32911
      H   40    0.17071      0.00000     0.32759    0.00170     0.32929
 =======================================================================
   * Total *   -0.00000     17.99298    49.78446    0.22256    68.00000

 Normal termination of Gaussian 16 at Fri Dec 11 20:14:24 2020.
