 Gaussian 16, Revision A.03,

 -----------------------------------------------------------
 # opt freq B3LYP/6-31G(d) empiricaldispersion=gd3bj scf=xqc
 -----------------------------------------------------------

 -------------------------------
 CID_136933963_JID_7688_neutraal
 -------------------------------
 Symbolic Z-matrix:
 Charge =  0 Multiplicity = 1

 SCF Done:  E(RB3LYP) =  -773.579223511     A.U. after   15 cycles
 SCF Done:  E(RB3LYP) =  -773.586619023     A.U. after   13 cycles
 SCF Done:  E(RB3LYP) =  -773.587806551     A.U. after   13 cycles
 SCF Done:  E(RB3LYP) =  -773.588082228     A.U. after   13 cycles
 SCF Done:  E(RB3LYP) =  -773.588486078     A.U. after   12 cycles
 SCF Done:  E(RB3LYP) =  -773.588535312     A.U. after   11 cycles
 SCF Done:  E(RB3LYP) =  -773.588548160     A.U. after   10 cycles
 SCF Done:  E(RB3LYP) =  -773.588549398     A.U. after    9 cycles
 SCF Done:  E(RB3LYP) =  -773.588550065     A.U. after    8 cycles
 Optimization completed.
    -- Stationary point found.
 Normal termination of Gaussian 16 at Sun Dec 13 12:24:31 2020.

 --------------------------------------------------------------------
 #N Geom=AllCheck Guess=TCheck SCRF=Check GenChk RB3LYP/6-31G(d) Freq
 --------------------------------------------------------------------

 Structure from the checkpoint file:  "JID_7688.chk"
 -------------------------------
 CID_136933963_JID_7688_neutraal
 -------------------------------
 Charge =  0 Multiplicity = 1

 SCF Done:  E(RB3LYP) =  -773.588550065     A.U. after    1 cycles

  Exact polarizability: 274.677  -1.237 164.093  -0.367  -0.101  51.136
 Approx polarizability: 404.053   0.790 330.912   1.414   0.565  82.661

                      1                      2                      3
                      A                      A                      A
 Frequencies --     42.8478                64.9707               131.4369
 Red. masses --      5.4127                 5.9050                 5.5644
 Frc consts  --      0.0059                 0.0147                 0.0566
 IR Inten    --      0.8523                 1.7440                 3.2338

                      4                      5                      6
                      A                      A                      A
 Frequencies --    138.1059               217.2258               227.3898
 Red. masses --      5.3221                 5.9211                 5.5805
 Frc consts  --      0.0598                 0.1646                 0.1700
 IR Inten    --      0.5122                 0.3903                 1.6276

                      7                      8                      9
                      A                      A                      A
 Frequencies --    259.0352               264.8058               309.5066
 Red. masses --      5.6706                 6.7479                 6.4849
 Frc consts  --      0.2242                 0.2788                 0.3660
 IR Inten    --      4.8097                 1.2299                 0.1992

                     10                     11                     12
                      A                      A                      A
 Frequencies --    341.4211               362.8047               386.3040
 Red. masses --      1.0958                 3.6892                 5.4091
 Frc consts  --      0.0753                 0.2861                 0.4756
 IR Inten    --     23.0441                 0.8039                 4.8346

                     13                     14                     15
                      A                      A                      A
 Frequencies --    428.2996               464.4511               499.9129
 Red. masses --      4.3770                 3.2217                 5.5665
 Frc consts  --      0.4731                 0.4095                 0.8196
 IR Inten    --      1.4832                11.6761                 2.8869

                     16                     17                     18
                      A                      A                      A
 Frequencies --    539.3954               554.7741               578.0894
 Red. masses --      5.7383                 1.6109                 6.2041
 Frc consts  --      0.9837                 0.2921                 1.2216
 IR Inten    --     64.5521               447.6641                12.7858

                     19                     20                     21
                      A                      A                      A
 Frequencies --    598.3859               609.6988               628.7578
 Red. masses --      5.0255                 4.5984                 5.9516
 Frc consts  --      1.0602                 1.0071                 1.3863
 IR Inten    --      6.1300                 5.9852                 4.4578

                     22                     23                     24
                      A                      A                      A
 Frequencies --    655.1719               688.8572               697.8654
 Red. masses --      4.0178                 6.5675                 5.2543
 Frc consts  --      1.0161                 1.8361                 1.5077
 IR Inten    --     28.3003                 0.5392                 1.2587

                     25                     26                     27
                      A                      A                      A
 Frequencies --    713.7220               740.2666               754.8125
 Red. masses --      4.5757                 2.5572                 1.4663
 Frc consts  --      1.3733                 0.8256                 0.4922
 IR Inten    --      5.3625                22.3140                72.3876

                     28                     29                     30
                      A                      A                      A
 Frequencies --    764.8681               790.2085               800.4414
 Red. masses --      6.1379                 7.4084                 1.5190
 Frc consts  --      2.1156                 2.7256                 0.5734
 IR Inten    --      5.5035                 4.5930                59.5824

                     31                     32                     33
                      A                      A                      A
 Frequencies --    802.6324               844.6013               942.8508
 Red. masses --      1.4064                 1.5081                 7.9280
 Frc consts  --      0.5338                 0.6338                 4.1524
 IR Inten    --     24.9561                22.2924                 4.6858

                     34                     35                     36
                      A                      A                      A
 Frequencies --    951.7329               954.1457               989.4669
 Red. masses --      1.3310                 1.2589                 3.6290
 Frc consts  --      0.7103                 0.6753                 2.0933
 IR Inten    --      0.4338                 1.4281                11.3439

                     37                     38                     39
                      A                      A                      A
 Frequencies --    991.4341              1003.3469              1042.1269
 Red. masses --      1.2882                 4.7715                 2.4916
 Frc consts  --      0.7460                 2.8301                 1.5943
 IR Inten    --      0.3411                15.1887                 4.0777

                     40                     41                     42
                      A                      A                      A
 Frequencies --   1116.4587              1139.4361              1157.4831
 Red. masses --      1.4782                 8.1574                 1.2297
 Frc consts  --      1.0856                 6.2400                 0.9707
 IR Inten    --      4.4601                38.4110                 0.2582

                     43                     44                     45
                      A                      A                      A
 Frequencies --   1164.8099              1200.6414              1247.4894
 Red. masses --      2.1895                 2.1366                 1.9491
 Frc consts  --      1.7503                 1.8147                 1.7872
 IR Inten    --     54.2145                 8.3334                81.2531

                     46                     47                     48
                      A                      A                      A
 Frequencies --   1276.4667              1287.4174              1339.1689
 Red. masses --      3.4825                 1.8586                 2.7363
 Frc consts  --      3.3432                 1.8150                 2.8912
 IR Inten    --      0.9867                14.1336                94.0760

                     49                     50                     51
                      A                      A                      A
 Frequencies --   1345.4931              1379.7260              1390.7099
 Red. masses --      4.2784                 4.1608                 2.4068
 Frc consts  --      4.5635                 4.6667                 2.7426
 IR Inten    --     53.9645                69.4307                13.2511

                     52                     53                     54
                      A                      A                      A
 Frequencies --   1402.1949              1421.8468              1463.6824
 Red. masses --      3.9382                 2.2970                 2.2238
 Frc consts  --      4.5621                 2.7360                 2.8070
 IR Inten    --      8.0514                 0.4187               154.2837

                     55                     56                     57
                      A                      A                      A
 Frequencies --   1534.2082              1539.4132              1540.8628
 Red. masses --      4.1640                 3.3947                 5.3986
 Frc consts  --      5.7747                 4.7398                 7.5519
 IR Inten    --    258.7229                86.8384                 9.9709

                     58                     59                     60
                      A                      A                      A
 Frequencies --   1582.9819              1591.1817              1633.6851
 Red. masses --      4.5517                 3.7373                 3.6685
 Frc consts  --      6.7201                 5.5751                 5.7687
 IR Inten    --      1.5090                35.5919               130.5961

                     61                     62                     63
                      A                      A                      A
 Frequencies --   1678.7892              1686.7612              1701.7397
 Red. masses --      6.3236                 1.5192                 2.4669
 Frc consts  --     10.5004                 2.5467                 4.2090
 IR Inten    --     22.8115                26.5090               487.3731

                     64                     65                     66
                      A                      A                      A
 Frequencies --   3188.5816              3203.4968              3211.9442
 Red. masses --      1.0900                 1.0906                 1.0901
 Frc consts  --      6.5292                 6.5940                 6.6263
 IR Inten    --     17.5653                10.1031                 7.5818

                     67                     68                     69
                      A                      A                      A
 Frequencies --   3229.7238              3243.5189              3252.5186
 Red. masses --      1.0900                 1.0977                 1.0914
 Frc consts  --      6.6992                 6.8043                 6.8028
 IR Inten    --      2.1395                 5.0891                 4.0753

                     70                     71                     72
                      A                      A                      A
 Frequencies --   3279.7401              3562.8298              3664.5936
 Red. masses --      1.0683                 1.0474                 1.0992
 Frc consts  --      6.7707                 7.8334                 8.6971
 IR Inten    --    534.0304                33.0838                11.1254

 - Thermochemistry -
 -------------------
 Temperature   298.150 Kelvin.  Pressure   1.00000 Atm.
 Atom     1 has atomic number  6 and mass  12.00000

 Molecular mass:   227.08071 amu.
 Principal axes and moments of inertia in atomic units:
                           1         2         3
     Eigenvalues --  1537.247756189.052347724.84859
           X            1.00000  -0.00027  -0.00163
           Y            0.00027   1.00000  -0.00151
           Z            0.00163   0.00151   1.00000
 This molecule is an asymmetric top.
 Rotational symmetry number  1.
 Warning -- assumption of classical behavior for rotation
           may cause significant error
 Rotational temperatures (Kelvin)      0.05634     0.01399     0.01121
 Rotational constants (GHZ):           1.17401     0.29160     0.23363
 Zero-point vibrational energy     517000.7 (Joules/Mol)
                                  123.56613 (Kcal/Mol)
 Warning -- explicit consideration of  20 degrees of freedom as
           vibrations may cause significant error
 Vibrational temperatures:     61.65    93.48   189.11   198.70   312.54
          (Kelvin)            327.16   372.69   381.00   445.31   491.23
                              521.99   555.81   616.23   668.24   719.26
                              776.07   798.20   831.74   860.94   877.22
                              904.64   942.65   991.11  1004.07  1026.89
                             1065.08  1086.01  1100.47  1136.93  1151.66
                             1154.81  1215.19  1356.55  1369.33  1372.80
                             1423.62  1426.45  1443.59  1499.39  1606.34
                             1639.39  1665.36  1675.90  1727.46  1794.86
                             1836.55  1852.31  1926.77  1935.86  1985.12
                             2000.92  2017.45  2045.72  2105.91  2207.38
                             2214.87  2216.96  2277.56  2289.36  2350.51
                             2415.40  2426.87  2448.42  4587.66  4609.12
                             4621.27  4646.85  4666.70  4679.65  4718.81
                             5126.12  5272.53

 Zero-point correction=                           0.196915 (Hartree/Particle)
 Thermal correction to Energy=                    0.209513
 Thermal correction to Enthalpy=                  0.210457
 Thermal correction to Gibbs Free Energy=         0.157662
 Sum of electronic and zero-point Energies=           -773.391635
 Sum of electronic and thermal Energies=              -773.379038
 Sum of electronic and thermal Enthalpies=            -773.378093
 Sum of electronic and thermal Free Energies=         -773.430888

                     E (Thermal)             CV                S
                      KCal/Mol        Cal/Mol-Kelvin    Cal/Mol-Kelvin
 Total                  131.471             51.361            111.116
 Electronic               0.000              0.000              0.000
 Translational            0.889              2.981             42.163
 Rotational               0.889              2.981             32.663
 Vibrational            129.694             45.399             36.290
 Vibration     1          0.595              1.980              5.123
 Vibration     2          0.597              1.971              4.300
 Vibration     3          0.612              1.922              2.925
 Vibration     4          0.614              1.915              2.830
 Vibration     5          0.646              1.815              1.982
 Vibration     6          0.651              1.799              1.899
 Vibration     7          0.668              1.747              1.668
 Vibration     8          0.671              1.738              1.630
 Vibration     9          0.699              1.656              1.365
 Vibration    10          0.721              1.593              1.206
 Vibration    11          0.737              1.549              1.110
 Vibration    12          0.755              1.499              1.014
 Vibration    13          0.790              1.409              0.864
 Vibration    14          0.822              1.329              0.753
 Vibration    15          0.855              1.250              0.658
 Vibration    16          0.894              1.163              0.567
 Vibration    17          0.910              1.129              0.534
 Vibration    18          0.935              1.079              0.489
 Vibration    19          0.956              1.035              0.452
 Vibration    20          0.969              1.011              0.433

                           ! Non-Optimized Parameters !
 Normal termination of Gaussian 16 at Sun Dec 13 12:32:59 2020.

 ----------------------------------------------------------------------
 # B3LYP/6-311++G(d,p) empiricaldispersion=gd3bj scf=xqc pop=npa geom=c
 heck
 ----------------------------------------------------------------------

 ---------------------------------------
 CID_136933963_JID_7688_Energie_neutraal
 ---------------------------------------
 Structure from the checkpoint file:  "JID_7688.chk"
 Charge =  0 Multiplicity = 1

 SCF Done:  E(RB3LYP) =  -773.800394883     A.U. after   15 cycles
 Normal termination of Gaussian 16 at Sun Dec 13 12:36:38 2020.

 ----------------------------------------------------------------------
 # B3LYP/6-311++G(d,p) empiricaldispersion=gd3bj scf=xqc pop=npa geom=c
 heck
 ----------------------------------------------------------------------

 -------------------------------------
 CID_136933963_JID_7688_Energie_kation
 -------------------------------------
 Structure from the checkpoint file:  "JID_7688.chk"
 Charge =  1 Multiplicity = 2

 SCF Done:  E(UB3LYP) =  -773.536441602     A.U. after   22 cycles
 Normal termination of Gaussian 16 at Sun Dec 13 12:44:11 2020.
 Gaussian 16:  ES64L-G16RevA.03 25-Dec-2016

 ----------------------------------------------------------------------
 # B3LYP/6-311++G(d,p) empiricaldispersion=gd3bj scf=xqc pop=npa geom=c
 heck
 ----------------------------------------------------------------------

 ------------------------------------
 CID_136933963_JID_7688_Energie_anion
 ------------------------------------
 Structure from the checkpoint file:  "JID_7688.chk"
 Charge = -1 Multiplicity = 2

                         Standard orientation:
 ---------------------------------------------------------------------
 Center     Atomic      Atomic             Coordinates (Angstroms)
 Number     Number       Type             X           Y           Z
 ---------------------------------------------------------------------
      1          6           0        4.198748   -1.144175    0.000343
      2          6           0        4.045923    0.214745    0.003690
      3          6           0        2.728749    0.725036    0.003884
      4          7           0        2.250304    1.955861    0.006124
      5          7           0        0.895358    1.839990    0.004137
      6          6           0        0.517922    0.555212    0.001007
      7          7           0        1.670647   -0.199547    0.000638
      8          7           0        1.799086   -1.549607   -0.002409
      9          6           0        3.034884   -1.976714   -0.002614
     10          6           0       -0.861045    0.114866   -0.002666
     11          6           0       -1.899033    1.093970   -0.005858
     12          6           0       -3.235198    0.690996   -0.006366
     13          6           0       -3.583861   -0.662155   -0.006786
     14          6           0       -2.561265   -1.633885   -0.003591
     15          6           0       -1.235743   -1.244224   -0.002113
     16          7           0       -4.917058   -1.048623   -0.062775
     17          8           0       -1.664736    2.418557   -0.002600
     18          1           0        5.179519   -1.605632   -0.000237
     19          1           0        4.878738    0.908761    0.005936
     20          1           0        3.134314   -3.058027   -0.005119
     21          1           0       -3.996648    1.464880   -0.011540
     22          1           0       -2.819231   -2.689232   -0.010341
     23          1           0       -0.458870   -1.997368    0.001546
     24          1           0       -5.586347   -0.360100    0.255789
     25          1           0       -5.118471   -1.974586    0.291170
     26          1           0       -0.683957    2.574299    0.000017
 ---------------------------------------------------------------------

 SCF Done:  E(UB3LYP) =  -773.830394529     A.U. after   21 cycles

 The electronic state is 2-A.
 Alpha  occ. eigenvalues --  -19.01801 -14.25745 -14.23315 -14.18815 -14.17545
 Alpha  occ. eigenvalues --  -14.17417 -10.12510 -10.11291 -10.10198 -10.08773
 Alpha  occ. eigenvalues --  -10.06708 -10.05886 -10.05642 -10.05603 -10.05344
 Alpha  occ. eigenvalues --  -10.02721 -10.01532  -0.94065  -0.93219  -0.84745
 Alpha  occ. eigenvalues --   -0.83212  -0.73531  -0.70660  -0.68627  -0.64751
 Alpha  occ. eigenvalues --   -0.63344  -0.61226  -0.52815  -0.52015  -0.51029
 Alpha  occ. eigenvalues --   -0.49330  -0.47213  -0.43309  -0.42249  -0.40798
 Alpha  occ. eigenvalues --   -0.37485  -0.37146  -0.35829  -0.34412  -0.33841
 Alpha  occ. eigenvalues --   -0.32645  -0.31506  -0.30204  -0.28350  -0.27727
 Alpha  occ. eigenvalues --   -0.26343  -0.26211  -0.25387  -0.24123  -0.23667
 Alpha  occ. eigenvalues --   -0.20842  -0.18806  -0.18298  -0.14863  -0.14211
 Alpha  occ. eigenvalues --   -0.12685  -0.12053  -0.11759  -0.07402   0.03327
 Alpha virt. eigenvalues --    0.05927   0.08624   0.09020   0.09299   0.10167
 Alpha virt. eigenvalues --    0.10808   0.11114   0.12394   0.12706   0.13891
 Alpha virt. eigenvalues --    0.14048   0.14780   0.15193   0.15777   0.16421

  Beta  occ. eigenvalues --  -19.01806 -14.25570 -14.23320 -14.18608 -14.17245
  Beta  occ. eigenvalues --  -14.16830 -10.12521 -10.11305 -10.10270 -10.08870
  Beta  occ. eigenvalues --  -10.06694 -10.05903 -10.05636 -10.05597 -10.05246
  Beta  occ. eigenvalues --  -10.02614 -10.00965  -0.93962  -0.92930  -0.84072
  Beta  occ. eigenvalues --   -0.83224  -0.73495  -0.70306  -0.68084  -0.64232
  Beta  occ. eigenvalues --   -0.63298  -0.61017  -0.52487  -0.51549  -0.50989
  Beta  occ. eigenvalues --   -0.49169  -0.46936  -0.43283  -0.42216  -0.40515
  Beta  occ. eigenvalues --   -0.37396  -0.37010  -0.35471  -0.33831  -0.33548
  Beta  occ. eigenvalues --   -0.32494  -0.31486  -0.30112  -0.28336  -0.27665
  Beta  occ. eigenvalues --   -0.26205  -0.25942  -0.25171  -0.23596  -0.22369
  Beta  occ. eigenvalues --   -0.20555  -0.18538  -0.17041  -0.14310  -0.13150
  Beta  occ. eigenvalues --   -0.12133  -0.11315  -0.10971  -0.06326
  Beta virt. eigenvalues --    0.05927   0.08624   0.09144   0.09259   0.10151
  Beta virt. eigenvalues --    0.10759   0.10924   0.11090   0.12394   0.12679
  Beta virt. eigenvalues --    0.13888   0.14216   0.14785   0.15610   0.15916

 Mulliken charges and spin densities:
               1          2
     1  C   -0.320119   0.145189
     2  C   -0.066904   0.406434
     3  C    0.066887  -0.069511
     4  N   -0.004222   0.077351
     5  N   -0.354787   0.089799
     6  C    0.069954  -0.047200
     7  N   -0.064081   0.013246
     8  N   -0.136266   0.364929
     9  C   -0.257349   0.095739
    10  C    0.609758   0.019930
    11  C   -0.490572  -0.000514
    12  C   -0.331258   0.010016
    13  C   -0.029365  -0.010224
    14  C   -0.370185  -0.008894
    15  C   -0.388868  -0.022010
    16  N   -0.329845  -0.001656
    17  O   -0.369273  -0.000767
    18  H    0.114831  -0.007130
    19  H    0.141911  -0.034830
    20  H    0.091698  -0.011254
    21  H    0.142330  -0.000306
    22  H    0.125536  -0.000222
    23  H    0.235877  -0.006661
    24  H    0.226056  -0.000021
    25  H    0.225525   0.000045
    26  H    0.462730  -0.001477
 Sum of Mulliken charges =  -1.00000   1.00000

 Dipole moment (field-independent basis, Debye):
    X=             -7.1564    Y=             -3.3964    Z=              0.9334  Tot=              7.9763
 Quadrupole moment (field-independent basis, Debye-Ang):
   XX=           -128.1000   YY=           -120.9499   ZZ=           -108.8308
   XY=              1.8197   XZ=             -5.6091   YZ=             -1.3406

 Summary of Natural Population Analysis:

                                       Natural Population
                Natural  -----------------------------------------------
    Atom  No    Charge         Core      Valence    Rydberg      Total
 -----------------------------------------------------------------------
      C    1   -0.11213      0.99958     2.10294    0.00961     3.11213
      C    2    0.00119      0.99953     1.99030    0.00898     2.99881
      C    3    0.14459      0.99958     1.83609    0.01974     2.85541
      N    4   -0.15279      0.99969     2.63250    0.02060     3.65279
      N    5   -0.14288      0.99966     2.63470    0.00852     3.64288
      C    6    0.14329      0.99958     1.83886    0.01827     2.85671
      N    7   -0.08447      0.99956     2.57036    0.01454     3.58447
      N    8   -0.05282      0.99969     2.54007    0.01305     3.55282
      C    9    0.02674      0.99965     1.95848    0.01513     2.97326
      C   10   -0.09325      0.99947     2.08445    0.00933     3.09325
      C   11    0.18290      0.99942     1.80301    0.01468     2.81710
      C   12   -0.15922      0.99942     2.14762    0.01218     3.15922
      C   13    0.06369      0.99940     1.92018    0.01672     2.93631
      C   14   -0.08652      0.99946     2.07925    0.00781     3.08652
      C   15   -0.10266      0.99950     2.08350    0.01965     3.10266
      N   16   -0.39488      0.99972     2.88978    0.00537     3.89488
      O   17   -0.35983      0.99987     3.35133    0.00863     4.35983
      H   18    0.09160      0.00000     0.40728    0.00112     0.40840
      H   19    0.09283      0.00000     0.40565    0.00152     0.40717
      H   20    0.08245      0.00000     0.41648    0.00107     0.41755
      H   21    0.09622      0.00000     0.40050    0.00327     0.40378
      H   22    0.09230      0.00000     0.40691    0.00079     0.40770
      H   23    0.12108      0.00000     0.37641    0.00252     0.37892
      H   24    0.17962      0.00000     0.31845    0.00193     0.32038
      H   25    0.17978      0.00000     0.31821    0.00201     0.32022
      H   26    0.25522      0.00000     0.24108    0.00370     0.24478
 =======================================================================
   * Total *    0.01205     16.99280    41.75441    0.24075    58.98795

 Normal termination of Gaussian 16 at Sun Dec 13 12:51:27 2020.
