 Gaussian 16, Revision A.03,

 -----------------------------------------------------------
 # opt freq B3LYP/6-31G(d) empiricaldispersion=gd3bj scf=xqc
 -----------------------------------------------------------

 ------------------------------
 CID_83846115_JID_2085_neutraal
 ------------------------------
 Symbolic Z-matrix:
 Charge =  0 Multiplicity = 1

 SCF Done:  E(RB3LYP) =  -502.595398752     A.U. after   13 cycles
 SCF Done:  E(RB3LYP) =  -502.599674914     A.U. after   11 cycles
 SCF Done:  E(RB3LYP) =  -502.600175675     A.U. after   11 cycles
 SCF Done:  E(RB3LYP) =  -502.600294516     A.U. after   10 cycles
 SCF Done:  E(RB3LYP) =  -502.600309973     A.U. after    8 cycles
 SCF Done:  E(RB3LYP) =  -502.600313334     A.U. after    7 cycles
 SCF Done:  E(RB3LYP) =  -502.600314133     A.U. after    7 cycles
 SCF Done:  E(RB3LYP) =  -502.600314382     A.U. after    7 cycles
 Optimization completed.
    -- Stationary point found.
 Normal termination of Gaussian 16 at Wed Dec  9 16:46:24 2020.

 --------------------------------------------------------------------
 #N Geom=AllCheck Guess=TCheck SCRF=Check GenChk RB3LYP/6-31G(d) Freq
 --------------------------------------------------------------------

 Structure from the checkpoint file:  "JID_2085.chk"
 ------------------------------
 CID_83846115_JID_2085_neutraal
 ------------------------------
 Charge =  0 Multiplicity = 1

 SCF Done:  E(RB3LYP) =  -502.600314382     A.U. after    1 cycles

  Exact polarizability: 139.077   0.456 109.123   1.520  -0.219  96.975
 Approx polarizability: 161.854   0.137 154.331   1.850   0.407 153.369

                      1                      2                      3
                      A                      A                      A
 Frequencies --     50.8752                61.0764               101.9897
 Red. masses --      2.9770                 2.8198                 2.4041
 Frc consts  --      0.0045                 0.0062                 0.0147
 IR Inten    --      0.4222                 0.3479                 0.9805

                      4                      5                      6
                      A                      A                      A
 Frequencies --    118.8087               178.7700               195.7411
 Red. masses --      2.7600                 1.8317                 2.9742
 Frc consts  --      0.0230                 0.0345                 0.0671
 IR Inten    --      0.0247                 0.3154                 2.5684

                      7                      8                      9
                      A                      A                      A
 Frequencies --    220.2943               238.4412               246.4785
 Red. masses --      2.3795                 1.3622                 2.4239
 Frc consts  --      0.0680                 0.0456                 0.0868
 IR Inten    --      0.2702                 0.3195                 0.3772

                     10                     11                     12
                      A                      A                      A
 Frequencies --    293.9550               360.1137               381.4713
 Red. masses --      2.9852                 2.1147                 2.6095
 Frc consts  --      0.1520                 0.1616                 0.2237
 IR Inten    --      1.3865                 0.2201                 1.8888

                     13                     14                     15
                      A                      A                      A
 Frequencies --    402.3533               453.2858               467.8272
 Red. masses --      2.6037                 2.6852                 2.8509
 Frc consts  --      0.2483                 0.3251                 0.3676
 IR Inten    --      9.8208                 2.9987                 4.7196

                     16                     17                     18
                      A                      A                      A
 Frequencies --    497.5119               545.9164               606.4721
 Red. masses --      1.8316                 2.3165                 2.9751
 Frc consts  --      0.2671                 0.4068                 0.6447
 IR Inten    --      0.1682                 0.4814                14.4566

                     19                     20                     21
                      A                      A                      A
 Frequencies --    719.2832               784.7410               789.8941
 Red. masses --      2.2122                 1.3167                 1.3110
 Frc consts  --      0.6743                 0.4777                 0.4819
 IR Inten    --      3.4993                49.4782                52.6129

                     22                     23                     24
                      A                      A                      A
 Frequencies --    823.0727               834.2746               850.2203
 Red. masses --      1.4026                 1.5971                 2.0104
 Frc consts  --      0.5598                 0.6550                 0.8562
 IR Inten    --      6.1833                 2.1976                 9.3359

                     25                     26                     27
                      A                      A                      A
 Frequencies --    888.9397               895.4889               897.2260
 Red. masses --      2.0475                 2.4028                 2.1521
 Frc consts  --      0.9533                 1.1352                 1.0208
 IR Inten    --      9.8921                 0.6878                 3.9460

                     28                     29                     30
                      A                      A                      A
 Frequencies --    933.0359               968.5792               985.1256
 Red. masses --      1.9642                 2.9996                 2.0867
 Frc consts  --      1.0075                 1.6580                 1.1931
 IR Inten    --      6.5529                15.6550                 1.5446

                     31                     32                     33
                      A                      A                      A
 Frequencies --   1013.6350              1046.7404              1048.3584
 Red. masses --      1.9797                 1.7363                 1.3865
 Frc consts  --      1.1985                 1.1209                 0.8979
 IR Inten    --      2.8996                 2.4547                 9.3978

                     34                     35                     36
                      A                      A                      A
 Frequencies --   1070.9149              1080.3357              1089.7006
 Red. masses --      1.7813                 2.0974                 1.3933
 Frc consts  --      1.2037                 1.4423                 0.9748
 IR Inten    --      3.1000                 5.3391                 3.1146

                     37                     38                     39
                      A                      A                      A
 Frequencies --   1110.2439              1127.0654              1143.9070
 Red. masses --      1.6978                 2.1865                 2.6296
 Frc consts  --      1.2330                 1.6364                 2.0273
 IR Inten    --      6.2657                 3.3570                38.0662

                     40                     41                     42
                      A                      A                      A
 Frequencies --   1149.7206              1172.6449              1180.5234
 Red. masses --      1.2061                 1.6403                 2.0145
 Frc consts  --      0.9393                 1.3290                 1.6541
 IR Inten    --      2.9174                12.5852                25.3708

                     43                     44                     45
                      A                      A                      A
 Frequencies --   1188.3124              1209.1137              1229.7658
 Red. masses --      1.4818                 1.3838                 1.7236
 Frc consts  --      1.2328                 1.1920                 1.5358
 IR Inten    --      0.5212                 2.5595                25.6161

                     46                     47                     48
                      A                      A                      A
 Frequencies --   1236.4935              1267.2205              1275.6831
 Red. masses --      2.3299                 1.3651                 1.3965
 Frc consts  --      2.0988                 1.2916                 1.3390
 IR Inten    --     26.6601                 8.3469                16.0173

                     49                     50                     51
                      A                      A                      A
 Frequencies --   1291.0968              1312.3821              1355.4797
 Red. masses --      1.3373                 1.4278                 1.2466
 Frc consts  --      1.3134                 1.4489                 1.3495
 IR Inten    --     15.8412                 2.2244                 1.0382

                     52                     53                     54
                      A                      A                      A
 Frequencies --   1367.4416              1376.1971              1394.5855
 Red. masses --      1.4047                 1.4655                 1.2877
 Frc consts  --      1.5475                 1.6353                 1.4756
 IR Inten    --     14.0653                 7.0290                19.1157

                     55                     56                     57
                      A                      A                      A
 Frequencies --   1406.4468              1413.3622              1428.1963
 Red. masses --      1.3638                 1.4042                 1.4043
 Frc consts  --      1.5895                 1.6527                 1.6877
 IR Inten    --      8.7696                 6.6411                 5.8948

                     58                     59                     60
                      A                      A                      A
 Frequencies --   1433.5325              1443.7776              1481.7223
 Red. masses --      1.4685                 1.3693                 1.1715
 Frc consts  --      1.7780                 1.6817                 1.5154
 IR Inten    --     42.5429                 4.1683                 1.0211

                     61                     62                     63
                      A                      A                      A
 Frequencies --   1490.4470              1504.7097              1511.2473
 Red. masses --      1.0921                 1.1020                 1.2095
 Frc consts  --      1.4294                 1.4701                 1.6275
 IR Inten    --      1.4976                 1.1103                 3.8497

                     64                     65                     66
                      A                      A                      A
 Frequencies --   1516.7201              1522.3208              1527.9336
 Red. masses --      1.0847                 1.1006                 1.0759
 Frc consts  --      1.4702                 1.5028                 1.4800
 IR Inten    --      4.1007                 1.9013                 8.1470

                     67                     68                     69
                      A                      A                      A
 Frequencies --   1533.4304              1537.3228              1550.5165
 Red. masses --      1.3400                 1.0784                 1.0818
 Frc consts  --      1.8564                 1.5017                 1.5323
 IR Inten    --     19.6344                 3.5116                 6.5651

                     70                     71                     72
                      A                      A                      A
 Frequencies --   1554.3608              2910.3596              2976.6669
 Red. masses --      1.0685                 1.0740                 1.0589
 Frc consts  --      1.5210                 5.3596                 5.5278
 IR Inten    --      2.9457                89.4195                68.8011

                     73                     74                     75
                      A                      A                      A
 Frequencies --   2980.5471              3019.8970              3033.1115
 Red. masses --      1.0722                 1.0605                 1.0612
 Frc consts  --      5.6122                 5.6984                 5.7519
 IR Inten    --     37.4830                33.7578                55.6094

                     76                     77                     78
                      A                      A                      A
 Frequencies --   3044.2740              3049.4155              3060.4616
 Red. masses --      1.0821                 1.0770                 1.0940
 Frc consts  --      5.9087                 5.9008                 6.0371
 IR Inten    --      6.6028                17.4253                28.6348

                     79                     80                     81
                      A                      A                      A
 Frequencies --   3067.4148              3079.0896              3081.9208
 Red. masses --      1.0849                 1.0972                 1.0771
 Frc consts  --      6.0145                 6.1290                 6.0276
 IR Inten    --     21.5600                77.3226                41.5862

                     82                     83                     84
                      A                      A                      A
 Frequencies --   3087.9667              3098.4651              3120.9871
 Red. masses --      1.0910                 1.1001                 1.1030
 Frc consts  --      6.1297                 6.2227                 6.3299
 IR Inten    --     35.9372                37.7568                36.1656

                     85                     86                     87
                      A                      A                      A
 Frequencies --   3127.0209              3144.8424              3157.9332
 Red. masses --      1.0880                 1.0531                 1.0585
 Frc consts  --      6.2681                 6.1362                 6.2192
 IR Inten    --     30.8377                15.2718                16.5393

                     88                     89                     90
                      A                      A                      A
 Frequencies --   3222.3934              3240.4653              3484.3013
 Red. masses --      1.1187                 1.1145                 1.0739
 Frc consts  --      6.8439                 6.8951                 7.6812
 IR Inten    --      5.8764                22.2349                 2.9099

 - Thermochemistry -
 -------------------
 Temperature   298.150 Kelvin.  Pressure   1.00000 Atm.
 Atom     1 has atomic number  6 and mass  12.00000

 Molecular mass:   168.16265 amu.
 Principal axes and moments of inertia in atomic units:
                           1         2         3
     Eigenvalues --   897.562443642.995084155.00189
           X            0.99999   0.00297   0.00411
           Y           -0.00292   0.99992  -0.01222
           Z           -0.00415   0.01221   0.99992
 This molecule is an asymmetric top.
 Rotational symmetry number  1.
 Warning -- assumption of classical behavior for rotation
           may cause significant error
 Rotational temperatures (Kelvin)      0.09650     0.02378     0.02085
 Rotational constants (GHZ):           2.01071     0.49540     0.43435
 Zero-point vibrational energy     779800.2 (Joules/Mol)
                                  186.37671 (Kcal/Mol)
 Warning -- explicit consideration of  18 degrees of freedom as
           vibrations may cause significant error
 Vibrational temperatures:     73.20    87.88   146.74   170.94   257.21
          (Kelvin)            281.63   316.95   343.06   354.63   422.94
                              518.12   548.85   578.90   652.18   673.10
                              715.81   785.45   872.58  1034.89  1129.07
                             1136.48  1184.22  1200.34  1223.28  1278.99
                             1288.41  1290.91  1342.43  1393.57  1417.38
                             1458.39  1506.03  1508.35  1540.81  1554.36
                             1567.84  1597.39  1621.60  1645.83  1654.19
                             1687.17  1698.51  1709.72  1739.64  1769.36
                             1779.04  1823.25  1835.42  1857.60  1888.23
                             1950.23  1967.44  1980.04  2006.50  2023.56
                             2033.51  2054.86  2062.53  2077.27  2131.87
                             2144.42  2164.94  2174.35  2182.22  2190.28
                             2198.36  2206.26  2211.86  2230.85  2236.38
                             4187.36  4282.76  4288.34  4344.96  4363.97
                             4380.03  4387.43  4403.32  4413.33  4430.12
                             4434.20  4442.90  4458.00  4490.40  4499.09
                             4524.73  4543.56  4636.31  4662.31  5013.13

 Zero-point correction=                           0.297010 (Hartree/Particle)
 Thermal correction to Energy=                    0.309400
 Thermal correction to Enthalpy=                  0.310344
 Thermal correction to Gibbs Free Energy=         0.258505
 Sum of electronic and zero-point Energies=           -502.303304
 Sum of electronic and thermal Energies=              -502.290915
 Sum of electronic and thermal Enthalpies=            -502.289970
 Sum of electronic and thermal Free Energies=         -502.341809

                     E (Thermal)             CV                S
                      KCal/Mol        Cal/Mol-Kelvin    Cal/Mol-Kelvin
 Total                  194.151             48.371            109.105
 Electronic               0.000              0.000              0.000
 Translational            0.889              2.981             41.267
 Rotational               0.889              2.981             30.986
 Vibrational            192.374             42.409             36.851
 Vibration     1          0.595              1.977              4.783
 Vibration     2          0.597              1.973              4.422
 Vibration     3          0.604              1.948              3.416
 Vibration     4          0.609              1.934              3.120
 Vibration     5          0.629              1.868              2.341
 Vibration     6          0.636              1.846              2.173
 Vibration     7          0.647              1.810              1.957
 Vibration     8          0.656              1.782              1.814
 Vibration     9          0.661              1.769              1.756
 Vibration    10          0.689              1.685              1.451
 Vibration    11          0.735              1.554              1.122
 Vibration    12          0.751              1.510              1.033
 Vibration    13          0.768              1.465              0.954
 Vibration    14          0.812              1.354              0.786
 Vibration    15          0.825              1.321              0.744
 Vibration    16          0.853              1.256              0.664
 Vibration    17          0.901              1.149              0.553
 Vibration    18          0.965              1.018              0.439

                           ! Non-Optimized Parameters !
 Normal termination of Gaussian 16 at Wed Dec  9 16:54:50 2020.

 ----------------------------------------------------------------------
 # B3LYP/6-311++G(d,p) empiricaldispersion=gd3bj scf=xqc pop=npa geom=c
 heck
 ----------------------------------------------------------------------

 --------------------------------------
 CID_83846115_JID_2085_Energie_neutraal
 --------------------------------------
 Structure from the checkpoint file:  "JID_2085.chk"
 Charge =  0 Multiplicity = 1

 SCF Done:  E(RB3LYP) =  -502.741186791     A.U. after   14 cycles
 Normal termination of Gaussian 16 at Wed Dec  9 16:58:08 2020.

 ----------------------------------------------------------------------
 # B3LYP/6-311++G(d,p) empiricaldispersion=gd3bj scf=xqc pop=npa geom=c
 heck
 ----------------------------------------------------------------------

 ------------------------------------
 CID_83846115_JID_2085_Energie_kation
 ------------------------------------
 Structure from the checkpoint file:  "JID_2085.chk"
 Charge =  1 Multiplicity = 2

 SCF Done:  E(UB3LYP) =  -502.471734238     A.U. after   26 cycles
 Normal termination of Gaussian 16 at Wed Dec  9 17:06:55 2020.
 Gaussian 16:  ES64L-G16RevA.03 25-Dec-2016

 ----------------------------------------------------------------------
 # B3LYP/6-311++G(d,p) empiricaldispersion=gd3bj scf=xqc pop=npa geom=c
 heck
 ----------------------------------------------------------------------

 -----------------------------------
 CID_83846115_JID_2085_Energie_anion
 -----------------------------------
 Structure from the checkpoint file:  "JID_2085.chk"
 Charge = -1 Multiplicity = 2

                         Standard orientation:
 ---------------------------------------------------------------------
 Center     Atomic      Atomic             Coordinates (Angstroms)
 Number     Number       Type             X           Y           Z
 ---------------------------------------------------------------------
      1          6           0        3.912201   -0.747176    0.459829
      2          7           0        3.019309   -0.775705   -0.696163
      3          6           0        1.689562   -0.171006   -0.497994
      4          6           0        1.735179    1.315919   -0.082768
      5          6           0        0.395789    2.059623   -0.158980
      6          6           0       -0.786891    1.365159    0.528352
      7          7           0       -1.211846    0.167855   -0.205228
      8          6           0       -0.619907   -1.091491    0.225779
      9          6           0        0.883303   -1.003034    0.517260
     10          6           0       -2.631923    0.151314   -0.457328
     11          6           0       -3.449672   -1.104861   -0.553322
     12          6           0       -3.671640   -0.158244    0.607101
     13          1           0        3.473099   -1.328536    1.277329
     14          1           0        4.147350    0.256830    0.853382
     15          1           0        4.856286   -1.230437    0.186896
     16          1           0        3.475126   -0.294469   -1.469594
     17          1           0        1.187302   -0.241405   -1.471136
     18          1           0        2.461987    1.839690   -0.719935
     19          1           0        2.122559    1.381257    0.943184
     20          1           0        0.524519    3.060820    0.275430
     21          1           0        0.114934    2.201439   -1.210347
     22          1           0       -0.555591    1.142226    1.583847
     23          1           0       -1.632366    2.060386    0.549759
     24          1           0       -0.775323   -1.815141   -0.581990
     25          1           0       -1.110476   -1.510089    1.127664
     26          1           0        1.273691   -2.026551    0.516046
     27          1           0        1.046071   -0.608712    1.527744
     28          1           0       -2.919662    0.935561   -1.157009
     29          1           0       -4.199287   -1.156831   -1.338031
     30          1           0       -2.984587   -2.059251   -0.331212
     31          1           0       -3.313241   -0.485044    1.579667
     32          1           0       -4.580636    0.435988    0.640465
 ---------------------------------------------------------------------

 SCF Done:  E(UB3LYP) =  -502.723869385     A.U. after   30 cycles

 The electronic state is 2-A.
 Alpha  occ. eigenvalues --  -14.20256 -14.19449 -10.10336 -10.09556 -10.09369
 Alpha  occ. eigenvalues --  -10.08932 -10.08261 -10.07542 -10.06821 -10.06488
 Alpha  occ. eigenvalues --  -10.06137 -10.05918  -0.83306  -0.80218  -0.74247
 Alpha  occ. eigenvalues --   -0.68027  -0.66891  -0.59103  -0.57129  -0.54584
 Alpha  occ. eigenvalues --   -0.50594  -0.49962  -0.46237  -0.44134  -0.41708
 Alpha  occ. eigenvalues --   -0.39974  -0.38810  -0.36318  -0.35158  -0.34944
 Alpha  occ. eigenvalues --   -0.33719  -0.31971  -0.30489  -0.30199  -0.29250
 Alpha  occ. eigenvalues --   -0.27546  -0.27141  -0.26228  -0.24754  -0.24040
 Alpha  occ. eigenvalues --   -0.23406  -0.22730  -0.21889  -0.21223  -0.19791
 Alpha  occ. eigenvalues --   -0.12318  -0.10404   0.04509
 Alpha virt. eigenvalues --    0.06044   0.07039   0.07371   0.08289   0.08577
 Alpha virt. eigenvalues --    0.08962   0.09912   0.10227   0.10770   0.11144
 Alpha virt. eigenvalues --    0.11589   0.12482   0.12691   0.13252   0.13705

  Beta  occ. eigenvalues --  -14.20255 -14.19434 -10.10324 -10.09548 -10.09368
  Beta  occ. eigenvalues --  -10.08919 -10.08229 -10.07529 -10.06798 -10.06477
  Beta  occ. eigenvalues --  -10.06122 -10.05898  -0.83291  -0.80191  -0.74224
  Beta  occ. eigenvalues --   -0.67998  -0.66870  -0.59067  -0.57087  -0.54541
  Beta  occ. eigenvalues --   -0.50538  -0.49921  -0.46192  -0.44095  -0.41676
  Beta  occ. eigenvalues --   -0.39934  -0.38759  -0.36291  -0.35132  -0.34906
  Beta  occ. eigenvalues --   -0.33692  -0.31937  -0.30458  -0.30168  -0.29218
  Beta  occ. eigenvalues --   -0.27512  -0.27114  -0.26203  -0.24731  -0.24014
  Beta  occ. eigenvalues --   -0.23380  -0.22694  -0.21864  -0.21191  -0.19769
  Beta  occ. eigenvalues --   -0.12290  -0.10381
  Beta virt. eigenvalues --    0.06635   0.07158   0.07538   0.07870   0.08844
  Beta virt. eigenvalues --    0.09075   0.09497   0.10305   0.10624   0.11173
  Beta virt. eigenvalues --    0.11623   0.11901   0.12811   0.13085   0.13569

 Mulliken charges and spin densities:
               1          2
     1  C    0.908197  -1.261847
     2  N   -0.126883   0.086176
     3  C   -0.919494   0.467420
     4  C    0.300030  -0.297716
     5  C    0.183316  -0.725984
     6  C    0.058004  -0.440596
     7  N    0.270538  -0.049331
     8  C   -0.976695   0.290652
     9  C    1.380021  -1.604652
    10  C   -1.192391   1.178138
    11  C    0.565991  -0.821617
    12  C    1.064221  -1.507846
    13  H   -0.232747   0.369966
    14  H   -0.430082   0.559343
    15  H   -0.348872   0.492722
    16  H    0.092859   0.127838
    17  H    0.151742   0.048440
    18  H   -0.394526   0.561134
    19  H    0.166303  -0.027267
    20  H   -0.378567   0.526366
    21  H    0.097919   0.042276
    22  H   -0.152010   0.277170
    23  H   -0.073982   0.261457
    24  H    0.139590   0.022503
    25  H   -0.007215   0.120614
    26  H    0.106264   0.056604
    27  H    0.067723   0.117900
    28  H   -0.580269   0.811900
    29  H   -0.273331   0.437305
    30  H   -0.077090   0.196042
    31  H   -0.045413   0.197372
    32  H   -0.343150   0.487519
 Sum of Mulliken charges =  -1.00000   1.00000

 Dipole moment (field-independent basis, Debye):
    X=             -0.4108    Y=             -2.3735    Z=             -0.3010  Tot=              2.4275
 Quadrupole moment (field-independent basis, Debye-Ang):
   XX=           -176.6625   YY=           -118.4874   ZZ=           -108.1050
   XY=              3.8243   XZ=             -5.1119   YZ=             -0.4056

 Summary of Natural Population Analysis:

                                       Natural Population
                Natural  -----------------------------------------------
    Atom  No    Charge         Core      Valence    Rydberg      Total
 -----------------------------------------------------------------------
      C    1   -0.18350      0.99965     2.17529    0.00856     3.18350
      N    2   -0.33867      0.99975     2.82633    0.01258     3.83867
      C    3   -0.01098      0.99958     1.99857    0.01283     3.01098
      C    4   -0.19619      0.99960     2.18728    0.00931     3.19619
      C    5   -0.18977      0.99962     2.18111    0.00905     3.18977
      C    6   -0.08406      0.99960     2.07363    0.01083     3.08406
      N    7   -0.28738      0.99969     2.77547    0.01222     3.78738
      C    8   -0.07582      0.99961     2.06661    0.00960     3.07582
      C    9   -0.20105      0.99960     2.19265    0.00880     3.20105
      C   10   -0.00358      0.99957     1.99003    0.01398     3.00358
      C   11   -0.20455      0.99963     2.19701    0.00792     3.20455
      C   12   -0.21301      0.99962     2.20389    0.00951     3.21301
      H   13    0.09081      0.00000     0.40790    0.00129     0.40919
      H   14    0.08179      0.00000     0.41634    0.00187     0.41821
      H   15    0.09430      0.00000     0.40458    0.00112     0.40570
      H   16    0.17022      0.00000     0.32727    0.00252     0.32978
      H   17    0.09523      0.00000     0.40276    0.00201     0.40477
      H   18    0.09843      0.00000     0.40014    0.00143     0.40157
      H   19    0.09394      0.00000     0.40422    0.00185     0.40606
      H   20    0.09700      0.00000     0.40181    0.00119     0.40300
      H   21    0.09557      0.00000     0.40277    0.00165     0.40443
      H   22    0.08492      0.00000     0.41357    0.00151     0.41508
      H   23    0.10063      0.00000     0.39785    0.00152     0.39937
      H   24    0.09329      0.00000     0.40500    0.00171     0.40671
      H   25    0.07977      0.00000     0.41879    0.00145     0.42023
      H   26    0.10782      0.00000     0.39109    0.00109     0.39218
      H   27    0.09469      0.00000     0.40355    0.00176     0.40531
      H   28    0.09914      0.00000     0.39926    0.00160     0.40086
      H   29    0.10385      0.00000     0.39511    0.00104     0.39615
      H   30    0.10278      0.00000     0.39619    0.00103     0.39722
      H   31    0.10088      0.00000     0.39810    0.00103     0.39912
      H   32    0.10353      0.00000     0.39457    0.00190     0.39647
 =======================================================================
   * Total *    0.00000     11.99552    34.84874    0.15575    47.00000

 Normal termination of Gaussian 16 at Wed Dec  9 17:16:35 2020.
