 Gaussian 16, Revision A.03,

 -----------------------------------------------------------
 # opt freq B3LYP/6-31G(d) empiricaldispersion=gd3bj scf=xqc
 -----------------------------------------------------------

 -------------------------------
 CID_115566818_JID_6013_neutraal
 -------------------------------
 Symbolic Z-matrix:
 Charge =  0 Multiplicity = 1

 SCF Done:  E(RB3LYP) =  -673.552932312     A.U. after   13 cycles
 SCF Done:  E(RB3LYP) =  -673.555926512     A.U. after   13 cycles
 SCF Done:  E(RB3LYP) =  -673.556364533     A.U. after   12 cycles
 SCF Done:  E(RB3LYP) =  -673.556568094     A.U. after   14 cycles
 SCF Done:  E(RB3LYP) =  -673.556665218     A.U. after   11 cycles
 SCF Done:  E(RB3LYP) =  -673.556750005     A.U. after   11 cycles
 SCF Done:  E(RB3LYP) =  -673.556788677     A.U. after   11 cycles
 SCF Done:  E(RB3LYP) =  -673.556816493     A.U. after   11 cycles
 SCF Done:  E(RB3LYP) =  -673.556829302     A.U. after   11 cycles
 SCF Done:  E(RB3LYP) =  -673.556830237     A.U. after    8 cycles
 SCF Done:  E(RB3LYP) =  -673.556830425     A.U. after    8 cycles
 SCF Done:  E(RB3LYP) =  -673.556830479     A.U. after    7 cycles
 Optimization completed.
    -- Stationary point found.
 Normal termination of Gaussian 16 at Thu Dec 10 21:09:28 2020.

 --------------------------------------------------------------------
 #N Geom=AllCheck Guess=TCheck SCRF=Check GenChk RB3LYP/6-31G(d) Freq
 --------------------------------------------------------------------

 Structure from the checkpoint file:  "JID_6013.chk"
 -------------------------------
 CID_115566818_JID_6013_neutraal
 -------------------------------
 Charge =  0 Multiplicity = 1

 SCF Done:  E(RB3LYP) =  -673.556830479     A.U. after    1 cycles

  Exact polarizability: 167.636   1.273 158.649  16.977   0.417 122.693
 Approx polarizability: 213.208  -0.058 241.007  33.700  -1.352 198.306

                      1                      2                      3
                      A                      A                      A
 Frequencies --     19.4863                31.9705                34.2840
 Red. masses --      4.8310                 3.3065                 3.6394
 Frc consts  --      0.0011                 0.0020                 0.0025
 IR Inten    --      0.4694                 0.6440                 0.9119

                      4                      5                      6
                      A                      A                      A
 Frequencies --     50.1396                60.6975                73.7133
 Red. masses --      3.4323                 3.5824                 3.5862
 Frc consts  --      0.0051                 0.0078                 0.0115
 IR Inten    --      0.2210                 0.2638                 0.6349

                      7                      8                      9
                      A                      A                      A
 Frequencies --    107.9861               141.6744               178.6296
 Red. masses --      2.7010                 3.1261                 2.2804
 Frc consts  --      0.0186                 0.0370                 0.0429
 IR Inten    --      0.2958                 0.2360                 0.6011

                     10                     11                     12
                      A                      A                      A
 Frequencies --    198.0206               222.5866               247.8058
 Red. masses --      2.6201                 3.0915                 1.6934
 Frc consts  --      0.0605                 0.0902                 0.0613
 IR Inten    --      0.5145                 5.1490                 1.2188

                     13                     14                     15
                      A                      A                      A
 Frequencies --    266.4533               308.5195               317.1263
 Red. masses --      2.2835                 1.7584                 2.0637
 Frc consts  --      0.0955                 0.0986                 0.1223
 IR Inten    --      0.2768                 0.2356                 1.1327

                     16                     17                     18
                      A                      A                      A
 Frequencies --    338.6738               375.1950               376.3398
 Red. masses --      2.2545                 2.2257                 2.5576
 Frc consts  --      0.1524                 0.1846                 0.2134
 IR Inten    --      1.5497                 1.6341                 2.1434

                     19                     20                     21
                      A                      A                      A
 Frequencies --    413.3476               459.1917               497.7317
 Red. masses --      1.9951                 2.3813                 3.0209
 Frc consts  --      0.2008                 0.2958                 0.4409
 IR Inten    --      1.0097                 0.2910                 4.9875

                     22                     23                     24
                      A                      A                      A
 Frequencies --    520.3434               571.5868               639.6789
 Red. masses --      2.5883                 2.9025                 3.2590
 Frc consts  --      0.4129                 0.5587                 0.7857
 IR Inten    --      1.6617                 1.1254                10.1287

                     25                     26                     27
                      A                      A                      A
 Frequencies --    692.2760               713.4524               736.2047
 Red. masses --      7.1129                 1.2665                 1.5078
 Frc consts  --      2.0084                 0.3798                 0.4815
 IR Inten    --     10.3821                11.3685                 1.4569

                     28                     29                     30
                      A                      A                      A
 Frequencies --    767.9694               786.0674               790.4675
 Red. masses --      2.5894                 1.6668                 2.0767
 Frc consts  --      0.8998                 0.6068                 0.7645
 IR Inten    --     21.2560                11.7587                76.0793

                     31                     32                     33
                      A                      A                      A
 Frequencies --    821.6397               844.1781               855.9349
 Red. masses --      2.3553                 1.4894                 1.7039
 Frc consts  --      0.9368                 0.6254                 0.7355
 IR Inten    --      9.9241                 8.7048                 1.8129

                     34                     35                     36
                      A                      A                      A
 Frequencies --    865.3582               887.7154               924.1238
 Red. masses --      2.3699                 1.7953                 1.7011
 Frc consts  --      1.0456                 0.8336                 0.8560
 IR Inten    --      5.3058                15.2949                 8.5399

                     37                     38                     39
                      A                      A                      A
 Frequencies --    947.4591               972.1977               979.3864
 Red. masses --      2.0269                 1.6055                 1.3806
 Frc consts  --      1.0720                 0.8941                 0.7802
 IR Inten    --      5.0547                 3.5225                 0.3020

                     40                     41                     42
                      A                      A                      A
 Frequencies --   1000.6713              1013.4464              1015.0610
 Red. masses --      1.6662                 1.5173                 6.2853
 Frc consts  --      0.9830                 0.9182                 3.8156
 IR Inten    --      0.6699                 0.7044                 5.1412

                     43                     44                     45
                      A                      A                      A
 Frequencies --   1024.1742              1032.6965              1072.1557
 Red. masses --      1.8558                 1.6311                 1.4985
 Frc consts  --      1.1469                 1.0249                 1.0149
 IR Inten    --      5.4172                 2.7538                 0.5071

                     46                     47                     48
                      A                      A                      A
 Frequencies --   1082.6394              1094.0546              1108.5147
 Red. masses --      1.7268                 1.6098                 1.6998
 Frc consts  --      1.1925                 1.1353                 1.2306
 IR Inten    --      2.1137                 1.5050                 2.8228

                     49                     50                     51
                      A                      A                      A
 Frequencies --   1122.7538              1155.6355              1159.8267
 Red. masses --      2.3253                 2.2647                 2.4904
 Frc consts  --      1.7270                 1.7820                 1.9738
 IR Inten    --      0.4801                 0.6950                32.1779

                     52                     53                     54
                      A                      A                      A
 Frequencies --   1168.4067              1202.7340              1209.4553
 Red. masses --      2.5279                 1.7550                 1.4938
 Frc consts  --      2.0333                 1.4958                 1.2874
 IR Inten    --     12.1122                 4.0587                 0.3835

                     55                     56                     57
                      A                      A                      A
 Frequencies --   1214.0996              1248.0915              1252.5680
 Red. masses --      1.4414                 1.6699                 5.5501
 Frc consts  --      1.2518                 1.5326                 5.1304
 IR Inten    --      1.1276                 1.5158                 3.1042

                     58                     59                     60
                      A                      A                      A
 Frequencies --   1269.0040              1276.3138              1303.0265
 Red. masses --      1.4248                 1.6056                 1.2667
 Frc consts  --      1.3518                 1.5410                 1.2672
 IR Inten    --      2.0585                 2.0273                 0.1458

                     61                     62                     63
                      A                      A                      A
 Frequencies --   1325.1840              1341.8234              1348.7987
 Red. masses --      1.1945                 1.4115                 1.3668
 Frc consts  --      1.2359                 1.4973                 1.4650
 IR Inten    --      2.9351                23.9530                10.4903

                     64                     65                     66
                      A                      A                      A
 Frequencies --   1358.0807              1376.3031              1385.6919
 Red. masses --      1.1549                 1.3751                 1.4440
 Frc consts  --      1.2550                 1.5346                 1.6336
 IR Inten    --      0.7004                18.3755                 8.8269

                     67                     68                     69
                      A                      A                      A
 Frequencies --   1390.4404              1400.5930              1408.9699
 Red. masses --      1.4131                 1.3601                 1.4594
 Frc consts  --      1.6096                 1.5720                 1.7070
 IR Inten    --      3.6953                 0.9378                 0.1528

                     70                     71                     72
                      A                      A                      A
 Frequencies --   1423.1187              1428.0356              1432.4554
 Red. masses --      1.4089                 1.3786                 1.6892
 Frc consts  --      1.6812                 1.6564                 2.0422
 IR Inten    --      0.4662                 3.9078                28.4275

                     73                     74                     75
                      A                      A                      A
 Frequencies --   1438.9843              1443.5323              1492.4638
 Red. masses --      1.4316                 1.2748                 1.1165
 Frc consts  --      1.7466                 1.5651                 1.4653
 IR Inten    --      6.3791                 5.1381                 5.4916

                     76                     77                     78
                      A                      A                      A
 Frequencies --   1504.7027              1514.5319              1517.5606
 Red. masses --      1.0860                 1.0821                 1.9389
 Frc consts  --      1.4487                 1.4624                 2.6309
 IR Inten    --      1.8310                 1.5571                 7.0160

                     79                     80                     81
                      A                      A                      A
 Frequencies --   1519.7262              1522.5273              1531.4703
 Red. masses --      1.0845                 1.1167                 1.1144
 Frc consts  --      1.4758                 1.5252                 1.5400
 IR Inten    --      1.9342                22.0186                19.4923

                     82                     83                     84
                      A                      A                      A
 Frequencies --   1532.4468              1535.5677              1543.1216
 Red. masses --      1.0644                 1.0733                 1.0730
 Frc consts  --      1.4728                 1.4911                 1.5054
 IR Inten    --      2.8392                14.4206                 4.8226

                     85                     86                     87
                      A                      A                      A
 Frequencies --   1547.5018              1553.2385              1611.2987
 Red. masses --      1.1078                 1.0940                 6.1686
 Frc consts  --      1.5630                 1.5550                 9.4360
 IR Inten    --      2.2377                13.1574                44.0513

                     88                     89                     90
                      A                      A                      A
 Frequencies --   1635.8724              2971.6795              3025.6704
 Red. masses --      5.7315                 1.0708                 1.0630
 Frc consts  --      9.0368                 5.5711                 5.7336
 IR Inten    --    128.7089                51.1690                22.1682

                     91                     92                     93
                      A                      A                      A
 Frequencies --   3032.7770              3034.9991              3036.1629
 Red. masses --      1.0645                 1.0636                 1.0634
 Frc consts  --      5.7686                 5.7721                 5.7758
 IR Inten    --     31.3626                36.4984                 9.0660

                     94                     95                     96
                      A                      A                      A
 Frequencies --   3039.6334              3040.4635              3044.8224
 Red. masses --      1.0582                 1.0688                 1.0435
 Frc consts  --      5.7605                 5.8213                 5.6998
 IR Inten    --     26.7112                 3.9092                19.7709

                     97                     98                     99
                      A                      A                      A
 Frequencies --   3047.7436              3054.4467              3058.5265
 Red. masses --      1.0662                 1.0831                 1.0958
 Frc consts  --      5.8348                 5.9535                 6.0396
 IR Inten    --     18.3577                39.2694                20.9040

                    100                    101                    102
                      A                      A                      A
 Frequencies --   3064.8868              3068.6048              3076.7125
 Red. masses --      1.0959                 1.0978                 1.1003
 Frc consts  --      6.0650                 6.0904                 6.1367
 IR Inten    --      8.1143                68.3549               123.0008

                    103                    104                    105
                      A                      A                      A
 Frequencies --   3084.7818              3085.0092              3087.9933
 Red. masses --      1.0999                 1.0997                 1.1034
 Frc consts  --      6.1665                 6.1666                 6.1993
 IR Inten    --     27.6472                56.3344                41.8886

                    106                    107                    108
                      A                      A                      A
 Frequencies --   3108.6048              3116.4758              3175.5171
 Red. masses --      1.1015                 1.1019                 1.0896
 Frc consts  --      6.2714                 6.3055                 6.4734
 IR Inten    --     49.0043                53.6875                25.6497

                    109                    110                    111
                      A                      A                      A
 Frequencies --   3188.9664              3210.2929              3502.9362
 Red. masses --      1.0912                 1.0944                 1.0724
 Frc consts  --      6.5383                 6.6454                 7.7533
 IR Inten    --     25.5238                11.2544                 1.0893

 - Thermochemistry -
 -------------------
 Temperature   298.150 Kelvin.  Pressure   1.00000 Atm.
 Atom     1 has atomic number  6 and mass  12.00000

 Molecular mass:   221.18920 amu.
 Principal axes and moments of inertia in atomic units:
                           1         2         3
     Eigenvalues --  2313.733447169.226648727.93972
           X            0.99976   0.02132   0.00397
           Y           -0.02135   0.99975   0.00666
           Z           -0.00383  -0.00674   0.99997
 This molecule is an asymmetric top.
 Rotational symmetry number  1.
 Warning -- assumption of classical behavior for rotation
           may cause significant error
 Rotational temperatures (Kelvin)      0.03743     0.01208     0.00992
 Rotational constants (GHZ):           0.78001     0.25173     0.20678
 Zero-point vibrational energy     928796.8 (Joules/Mol)
                                  221.98775 (Kcal/Mol)
 Warning -- explicit consideration of  23 degrees of freedom as
           vibrations may cause significant error
 Vibrational temperatures:     28.04    46.00    49.33    72.14    87.33
          (Kelvin)            106.06   155.37   203.84   257.01   284.91
                              320.25   356.54   383.37   443.89   456.27
                              487.28   539.82   541.47   594.72   660.67
                              716.12   748.66   822.39   920.36   996.03
                             1026.50  1059.23  1104.94  1130.98  1137.31
                             1182.16  1214.58  1231.50  1245.06  1277.22
                             1329.61  1363.18  1398.78  1409.12  1439.74
                             1458.12  1460.45  1473.56  1485.82  1542.59
                             1557.68  1574.10  1594.91  1615.39  1662.70
                             1668.73  1681.08  1730.47  1740.14  1746.82
                             1795.73  1802.17  1825.81  1836.33  1874.76
                             1906.64  1930.58  1940.62  1953.98  1980.19
                             1993.70  2000.53  2015.14  2027.19  2047.55
                             2054.62  2060.98  2070.38  2076.92  2147.32
                             2164.93  2179.07  2183.43  2186.55  2190.58
                             2203.44  2204.85  2209.34  2220.21  2226.51
                             2234.76  2318.30  2353.66  4275.58  4353.26
                             4363.49  4366.69  4368.36  4373.35  4374.55
                             4380.82  4385.02  4394.67  4400.54  4409.69
                             4415.04  4426.70  4438.31  4438.64  4442.93
                             4472.59  4483.91  4568.86  4588.21  4618.90
                             5039.94

 Zero-point correction=                           0.353760 (Hartree/Particle)
 Thermal correction to Energy=                    0.370545
 Thermal correction to Enthalpy=                  0.371489
 Thermal correction to Gibbs Free Energy=         0.306476
 Sum of electronic and zero-point Energies=           -673.203070
 Sum of electronic and thermal Energies=              -673.186286
 Sum of electronic and thermal Enthalpies=            -673.185341
 Sum of electronic and thermal Free Energies=         -673.250354

                     E (Thermal)             CV                S
                      KCal/Mol        Cal/Mol-Kelvin    Cal/Mol-Kelvin
 Total                  232.520             62.697            136.831
 Electronic               0.000              0.000              0.000
 Translational            0.889              2.981             42.084
 Rotational               0.889              2.981             33.337
 Vibrational            230.743             56.736             61.410
 Vibration     1          0.593              1.986              6.686
 Vibration     2          0.594              1.983              5.703
 Vibration     3          0.594              1.983              5.565
 Vibration     4          0.595              1.978              4.812
 Vibration     5          0.597              1.973              4.434
 Vibration     6          0.599              1.966              4.052
 Vibration     7          0.606              1.943              3.305
 Vibration     8          0.615              1.912              2.781
 Vibration     9          0.629              1.869              2.343
 Vibration    10          0.637              1.843              2.151
 Vibration    11          0.648              1.807              1.938
 Vibration    12          0.661              1.766              1.746
 Vibration    13          0.672              1.735              1.619
 Vibration    14          0.698              1.658              1.370
 Vibration    15          0.704              1.641              1.325
 Vibration    16          0.719              1.598              1.218
 Vibration    17          0.746              1.523              1.058
 Vibration    18          0.747              1.521              1.054
 Vibration    19          0.777              1.441              0.915
 Vibration    20          0.817              1.341              0.768
 Vibration    21          0.853              1.255              0.664
 Vibration    22          0.875              1.205              0.609
 Vibration    23          0.928              1.093              0.501

                           ! Non-Optimized Parameters !
 Normal termination of Gaussian 16 at Thu Dec 10 21:22:39 2020.

 ----------------------------------------------------------------------
 # B3LYP/6-311++G(d,p) empiricaldispersion=gd3bj scf=xqc pop=npa geom=c
 heck
 ----------------------------------------------------------------------

 ---------------------------------------
 CID_115566818_JID_6013_Energie_neutraal
 ---------------------------------------
 Structure from the checkpoint file:  "JID_6013.chk"
 Charge =  0 Multiplicity = 1

 SCF Done:  E(RB3LYP) =  -673.740855711     A.U. after   14 cycles
 Normal termination of Gaussian 16 at Thu Dec 10 21:29:09 2020.

 ----------------------------------------------------------------------
 # B3LYP/6-311++G(d,p) empiricaldispersion=gd3bj scf=xqc pop=npa geom=c
 heck
 ----------------------------------------------------------------------

 -------------------------------------
 CID_115566818_JID_6013_Energie_kation
 -------------------------------------
 Structure from the checkpoint file:  "JID_6013.chk"
 Charge =  1 Multiplicity = 2

 SCF Done:  E(UB3LYP) =  -673.430190696     A.U. after   23 cycles
 Normal termination of Gaussian 16 at Thu Dec 10 21:44:29 2020.
 Gaussian 16:  ES64L-G16RevA.03 25-Dec-2016

 ----------------------------------------------------------------------
 # B3LYP/6-311++G(d,p) empiricaldispersion=gd3bj scf=xqc pop=npa geom=c
 heck
 ----------------------------------------------------------------------

 ------------------------------------
 CID_115566818_JID_6013_Energie_anion
 ------------------------------------
 Structure from the checkpoint file:  "JID_6013.chk"
 Charge = -1 Multiplicity = 2

                         Standard orientation:
 ---------------------------------------------------------------------
 Center     Atomic      Atomic             Coordinates (Angstroms)
 Number     Number       Type             X           Y           Z
 ---------------------------------------------------------------------
      1          6           0       -4.742251   -2.012084   -0.379983
      2          6           0       -4.668639   -0.513637   -0.072095
      3          6           0       -3.648426   -0.151528    1.017967
      4          6           0       -2.195791   -0.548772    0.709629
      5          6           0       -1.626953    0.027176   -0.596313
      6          6           0       -1.668789    1.560473   -0.703535
      7          6           0       -0.948888    2.317354    0.425862
      8          6           0        0.505657    1.899440    0.649688
      9          7           0        1.319011    2.119685   -0.549061
     10          6           0        2.698144    1.690138   -0.383275
     11          6           0        2.886572    0.194031   -0.173419
     12          7           0        2.080836   -0.613266   -0.883712
     13          6           0        2.245765   -1.927807   -0.717927
     14          7           0        3.129486   -2.538771    0.077371
     15          6           0        3.927388   -1.723215    0.779048
     16          6           0        3.845546   -0.336669    0.691369
     17          1           0       -3.800121   -2.386729   -0.795164
     18          1           0       -5.532224   -2.228375   -1.107866
     19          1           0       -4.956337   -2.590152    0.527687
     20          1           0       -4.437198    0.036259   -0.993770
     21          1           0       -5.658641   -0.162146    0.247232
     22          1           0       -3.699580    0.929548    1.203606
     23          1           0       -3.949262   -0.633704    1.958782
     24          1           0       -1.564942   -0.237372    1.552362
     25          1           0       -2.116256   -1.642772    0.670937
     26          1           0       -0.592034   -0.317822   -0.711789
     27          1           0       -2.176547   -0.392235   -1.449253
     28          1           0       -1.238055    1.856649   -1.669430
     29          1           0       -2.711491    1.901385   -0.734740
     30          1           0       -0.975569    3.391290    0.204730
     31          1           0       -1.490805    2.174414    1.369469
     32          1           0        0.935386    2.509410    1.455391
     33          1           0        0.539457    0.852287    0.998123
     34          1           0        0.924255    1.573745   -1.313102
     35          1           0        3.260531    1.976787   -1.282885
     36          1           0        3.146719    2.235178    0.455934
     37          1           0        1.585363   -2.573097   -1.293806
     38          1           0        4.650256   -2.202313    1.437304
     39          1           0        4.495754    0.306832    1.275968
 ---------------------------------------------------------------------

 SCF Done:  E(UB3LYP) =  -673.737863874     A.U. after   33 cycles
 SCF Done:  E(UB3LYP) =  -673.737863874     a.u. after    1 cycles

 The electronic state is 2-A.
 Alpha  occ. eigenvalues --  -14.18514 -14.16946 -14.16756 -10.10358 -10.08290
 Alpha  occ. eigenvalues --  -10.08272 -10.07474 -10.06971 -10.06897 -10.06724
 Alpha  occ. eigenvalues --  -10.06501 -10.06472 -10.06449 -10.06303 -10.05712
 Alpha  occ. eigenvalues --  -10.05424  -0.84738  -0.79958  -0.74825  -0.71553
 Alpha  occ. eigenvalues --   -0.68475  -0.66095  -0.63972  -0.60231  -0.57353
 Alpha  occ. eigenvalues --   -0.55206  -0.52166  -0.51477  -0.48999  -0.47214
 Alpha  occ. eigenvalues --   -0.43721  -0.40230  -0.38654  -0.38330  -0.37433
 Alpha  occ. eigenvalues --   -0.36461  -0.35052  -0.33926  -0.33874  -0.32739
 Alpha  occ. eigenvalues --   -0.31115  -0.30492  -0.29569  -0.28825  -0.28577
 Alpha  occ. eigenvalues --   -0.27896  -0.27360  -0.26541  -0.26173  -0.25281
 Alpha  occ. eigenvalues --   -0.24215  -0.23559  -0.23325  -0.21622  -0.20956
 Alpha  occ. eigenvalues --   -0.20826  -0.18092  -0.16768  -0.15371  -0.12653
 Alpha  occ. eigenvalues --   -0.11637   0.04533
 Alpha virt. eigenvalues --    0.05702   0.07427   0.07847   0.07890   0.08659
 Alpha virt. eigenvalues --    0.09032   0.09300   0.09811   0.10345   0.10766
 Alpha virt. eigenvalues --    0.10936   0.11260   0.11885   0.12390   0.12577

  Beta  occ. eigenvalues --  -14.18495 -14.16726 -14.16458 -10.10405 -10.08314
  Beta  occ. eigenvalues --  -10.08268 -10.07151 -10.06955 -10.06715 -10.06545
  Beta  occ. eigenvalues --  -10.06497 -10.06467 -10.06427 -10.06301 -10.05709
  Beta  occ. eigenvalues --  -10.05533  -0.84289  -0.79878  -0.74231  -0.71533
  Beta  occ. eigenvalues --   -0.68432  -0.65778  -0.63925  -0.60183  -0.57208
  Beta  occ. eigenvalues --   -0.55068  -0.52037  -0.51412  -0.48579  -0.47157
  Beta  occ. eigenvalues --   -0.43699  -0.40113  -0.38560  -0.38247  -0.37289
  Beta  occ. eigenvalues --   -0.36358  -0.34955  -0.33824  -0.33778  -0.32637
  Beta  occ. eigenvalues --   -0.31051  -0.30437  -0.29208  -0.28649  -0.28459
  Beta  occ. eigenvalues --   -0.27454  -0.27174  -0.26444  -0.26074  -0.25197
  Beta  occ. eigenvalues --   -0.24174  -0.23515  -0.23290  -0.21588  -0.20942
  Beta  occ. eigenvalues --   -0.20801  -0.16414  -0.16153  -0.14557  -0.12479
  Beta  occ. eigenvalues --   -0.11436
  Beta virt. eigenvalues --    0.06408   0.07474   0.07857   0.07940   0.08807
  Beta virt. eigenvalues --    0.09073   0.09322   0.09851   0.10188   0.10311
  Beta virt. eigenvalues --    0.10869   0.11199   0.11283   0.11786   0.12371

 Mulliken charges and spin densities:
               1          2
     1  C    0.562156  -1.197810
     2  C   -0.605052   0.406525
     3  C    0.074371  -0.372425
     4  C   -0.130327  -0.056333
     5  C    0.050733  -0.244908
     6  C   -0.417277   0.106286
     7  C   -0.432825  -0.074316
     8  C   -0.225221  -0.176831
     9  N    0.067668   0.033449
    10  C   -0.467277  -0.332426
    11  C    0.189573   0.300791
    12  N   -0.125107   0.136214
    13  C   -0.184574   0.022307
    14  N   -0.135569   0.086982
    15  C   -0.427323   0.207568
    16  C   -0.071817   0.081018
    17  H    0.035839   0.106386
    18  H   -0.309823   0.445479
    19  H    0.000528   0.128966
    20  H    0.133915  -0.014753
    21  H   -0.456098   0.613663
    22  H    0.075097   0.060732
    23  H   -0.051838   0.197698
    24  H    0.155506  -0.003443
    25  H    0.131461   0.028681
    26  H    0.342769  -0.180417
    27  H    0.031859   0.136112
    28  H    0.106032   0.058001
    29  H    0.012572   0.127595
    30  H    0.112242   0.039562
    31  H    0.087243   0.039668
    32  H    0.126107   0.014399
    33  H    0.065176   0.012876
    34  H    0.230866   0.009181
    35  H   -0.011466   0.195844
    36  H    0.122008  -0.008685
    37  H    0.114582   0.045667
    38  H    0.110624  -0.012125
    39  H    0.112668   0.032821
 Sum of Mulliken charges =  -1.00000   1.00000

 Dipole moment (field-independent basis, Debye):
    X=              1.5463    Y=              3.5796    Z=              1.5959  Tot=              4.2133
 Quadrupole moment (field-independent basis, Debye-Ang):
   XX=           -195.2738   YY=           -141.0000   ZZ=           -118.7921
   XY=              2.1054   XZ=              3.5601   YZ=              2.9346

 Summary of Natural Population Analysis:

                                       Natural Population
                Natural  -----------------------------------------------
    Atom  No    Charge         Core      Valence    Rydberg      Total
 -----------------------------------------------------------------------
      C    1   -0.28860      0.99967     2.28288    0.00606     3.28860
      C    2   -0.19370      0.99964     2.18533    0.00873     3.19370
      C    3   -0.19196      0.99963     2.18267    0.00966     3.19196
      C    4   -0.19272      0.99963     2.18551    0.00757     3.19272
      C    5   -0.20307      0.99962     2.19542    0.00803     3.20307
      C    6   -0.19285      0.99963     2.18585    0.00738     3.19285
      C    7   -0.19314      0.99963     2.18523    0.00829     3.19314
      C    8   -0.08940      0.99963     2.07989    0.00989     3.08940
      N    9   -0.34289      0.99975     2.83012    0.01302     3.84289
      C   10   -0.10003      0.99960     2.08906    0.01137     3.10003
      C   11    0.16226      0.99954     1.82569    0.01251     2.83774
      N   12   -0.23827      0.99967     2.72583    0.01277     3.73827
      C   13    0.12902      0.99967     1.85081    0.02049     2.87098
      N   14   -0.23217      0.99972     2.72167    0.01078     3.73217
      C   15    0.09724      0.99961     1.88837    0.01477     2.90276
      C   16   -0.17037      0.99950     2.16307    0.00780     3.17037
      H   17    0.09657      0.00000     0.40251    0.00092     0.40343
      H   18    0.09906      0.00000     0.39993    0.00100     0.40094
      H   19    0.09490      0.00000     0.40418    0.00093     0.40510
      H   20    0.09346      0.00000     0.40541    0.00113     0.40654
      H   21    0.09568      0.00000     0.40294    0.00138     0.40432
      H   22    0.09504      0.00000     0.40395    0.00101     0.40496
      H   23    0.09394      0.00000     0.40516    0.00091     0.40606
      H   24    0.09646      0.00000     0.40239    0.00116     0.40354
      H   25    0.09729      0.00000     0.40163    0.00108     0.40271
      H   26    0.11295      0.00000     0.38549    0.00156     0.38705
      H   27    0.09415      0.00000     0.40470    0.00114     0.40585
      H   28    0.09650      0.00000     0.40235    0.00116     0.40350
      H   29    0.09501      0.00000     0.40376    0.00123     0.40499
      H   30    0.09676      0.00000     0.40183    0.00142     0.40324
      H   31    0.09416      0.00000     0.40472    0.00112     0.40584
      H   32    0.08735      0.00000     0.41151    0.00114     0.41265
      H   33    0.08421      0.00000     0.41315    0.00264     0.41579
      H   34    0.17826      0.00000     0.31761    0.00413     0.32174
      H   35    0.10143      0.00000     0.39708    0.00149     0.39857
      H   36    0.08900      0.00000     0.40984    0.00115     0.41100
      H   37    0.07478      0.00000     0.42318    0.00204     0.42522
      H   38    0.07716      0.00000     0.42160    0.00124     0.42284
      H   39    0.09652      0.00000     0.40224    0.00124     0.40348
 =======================================================================
   * Total *   -0.00000     15.99413    44.80457    0.20131    61.00000

 Normal termination of Gaussian 16 at Thu Dec 10 22:04:26 2020.
