 Gaussian 16, Revision A.03,

 -----------------------------------------------------------
 # opt freq B3LYP/6-31G(d) empiricaldispersion=gd3bj scf=xqc
 -----------------------------------------------------------

 -------------------------------
 CID_113581294_JID_7502_neutraal
 -------------------------------
 Symbolic Z-matrix:
 Charge =  0 Multiplicity = 1

 SCF Done:  E(RB3LYP) =  -732.715341506     A.U. after   14 cycles
 SCF Done:  E(RB3LYP) =  -732.719505043     A.U. after   12 cycles
 SCF Done:  E(RB3LYP) =  -732.705530013     A.U. after   13 cycles
 SCF Done:  E(RB3LYP) =  -732.710076836     A.U. after   13 cycles
 SCF Done:  E(RB3LYP) =  -732.721160696     A.U. after   10 cycles
 SCF Done:  E(RB3LYP) =  -732.721932210     A.U. after   11 cycles
 SCF Done:  E(RB3LYP) =  -732.721677213     A.U. after   11 cycles
 SCF Done:  E(RB3LYP) =  -732.722364294     A.U. after   11 cycles
 SCF Done:  E(RB3LYP) =  -732.721920357     A.U. after   11 cycles
 SCF Done:  E(RB3LYP) =  -732.722519223     A.U. after   10 cycles
 SCF Done:  E(RB3LYP) =  -732.722616394     A.U. after    8 cycles
 SCF Done:  E(RB3LYP) =  -732.722616868     A.U. after    7 cycles
 SCF Done:  E(RB3LYP) =  -732.722617114     A.U. after    8 cycles
 SCF Done:  E(RB3LYP) =  -732.722617305     A.U. after    8 cycles
 SCF Done:  E(RB3LYP) =  -732.722617393     A.U. after    7 cycles
 SCF Done:  E(RB3LYP) =  -732.722617412     A.U. after    6 cycles
 Optimization completed.
    -- Stationary point found.
 Normal termination of Gaussian 16 at Fri Dec 11 12:37:12 2020.

 --------------------------------------------------------------------
 #N Geom=AllCheck Guess=TCheck SCRF=Check GenChk RB3LYP/6-31G(d) Freq
 --------------------------------------------------------------------

 Structure from the checkpoint file:  "JID_7502.chk"
 -------------------------------
 CID_113581294_JID_7502_neutraal
 -------------------------------
 Charge =  0 Multiplicity = 1

 SCF Done:  E(RB3LYP) =  -732.722617412     A.U. after    1 cycles

  Exact polarizability: 183.353   3.521 161.589  -0.930  -3.636 124.975
 Approx polarizability: 222.968   7.183 253.996  -0.536  -8.853 191.450

                      1                      2                      3
                      A                      A                      A
 Frequencies --     31.7146                52.2962                59.7737
 Red. masses --      3.3165                 3.0641                 4.2936
 Frc consts  --      0.0020                 0.0049                 0.0090
 IR Inten    --      0.1888                 0.1563                 0.8022

                      4                      5                      6
                      A                      A                      A
 Frequencies --     73.6125                93.8496               134.5770
 Red. masses --      3.5229                 3.4405                 2.3397
 Frc consts  --      0.0112                 0.0179                 0.0250
 IR Inten    --      0.4153                 0.5205                 0.8121

                      7                      8                      9
                      A                      A                      A
 Frequencies --    164.6528               173.7628               203.5203
 Red. masses --      2.7417                 2.4717                 1.9105
 Frc consts  --      0.0438                 0.0440                 0.0466
 IR Inten    --      0.6331                 0.7245                 1.1428

                     10                     11                     12
                      A                      A                      A
 Frequencies --    242.3699               253.8479               278.3130
 Red. masses --      3.2243                 2.0415                 3.4560
 Frc consts  --      0.1116                 0.0775                 0.1577
 IR Inten    --      1.1846                 0.5845                 0.6275

                     13                     14                     15
                      A                      A                      A
 Frequencies --    291.2885               297.0510               330.0026
 Red. masses --      2.2955                 2.1460                 2.3710
 Frc consts  --      0.1148                 0.1116                 0.1521
 IR Inten    --      1.5033                 1.6959                 0.7432

                     16                     17                     18
                      A                      A                      A
 Frequencies --    349.3092               374.4293               406.8908
 Red. masses --      2.4011                 2.9080                 2.2379
 Frc consts  --      0.1726                 0.2402                 0.2183
 IR Inten    --      0.2863                 4.2467                 6.0652

                     19                     20                     21
                      A                      A                      A
 Frequencies --    414.2558               428.9600               450.7759
 Red. masses --      3.0647                 2.0701                 2.8578
 Frc consts  --      0.3099                 0.2244                 0.3421
 IR Inten    --      7.5318                 0.3417                 6.6749

                     22                     23                     24
                      A                      A                      A
 Frequencies --    460.1282               520.1650               527.5869
 Red. masses --      2.8143                 3.1558                 1.7717
 Frc consts  --      0.3511                 0.5031                 0.2906
 IR Inten    --      6.8429                 3.1107                12.5947

                     25                     26                     27
                      A                      A                      A
 Frequencies --    540.7187               657.3445               669.3664
 Red. masses --      4.2001                 3.6230                 1.2718
 Frc consts  --      0.7235                 0.9224                 0.3357
 IR Inten    --      3.3846                20.0466                29.7254

                     28                     29                     30
                      A                      A                      A
 Frequencies --    683.0510               726.4827               762.6018
 Red. masses --      2.5373                 5.9972                 2.2229
 Frc consts  --      0.6975                 1.8649                 0.7617
 IR Inten    --      7.4369                 1.1375                54.1386

                     31                     32                     33
                      A                      A                      A
 Frequencies --    777.2104               791.5045               802.4126
 Red. masses --      1.7183                 1.4251                 2.0314
 Frc consts  --      0.6115                 0.5260                 0.7706
 IR Inten    --     25.1764                 7.1577                 9.0896

                     34                     35                     36
                      A                      A                      A
 Frequencies --    865.1300               882.3650               892.9066
 Red. masses --      2.3749                 2.2943                 2.3903
 Frc consts  --      1.0473                 1.0525                 1.1228
 IR Inten    --      6.8863                 2.3498                 4.4096

                     37                     38                     39
                      A                      A                      A
 Frequencies --    904.8516               925.7597               932.8540
 Red. masses --      1.6871                 2.2280                 2.4067
 Frc consts  --      0.8139                 1.1250                 1.2339
 IR Inten    --     17.7581                 3.0137                 8.1112

                     40                     41                     42
                      A                      A                      A
 Frequencies --    961.7760               976.0405               986.0379
 Red. masses --      2.2227                 1.9324                 1.7511
 Frc consts  --      1.2114                 1.0846                 1.0031
 IR Inten    --      0.6986                 4.6225                 0.3481

                     43                     44                     45
                      A                      A                      A
 Frequencies --    993.4811              1001.2558              1016.7677
 Red. masses --      1.5110                 2.3866                 1.9451
 Frc consts  --      0.8787                 1.4097                 1.1848
 IR Inten    --      0.5019                13.0582                 6.0369

                     46                     47                     48
                      A                      A                      A
 Frequencies --   1037.2711              1056.4850              1069.3106
 Red. masses --      2.0849                 1.7212                 2.0031
 Frc consts  --      1.3217                 1.1319                 1.3495
 IR Inten    --      2.5224                 0.1689                 7.6071

                     49                     50                     51
                      A                      A                      A
 Frequencies --   1071.5086              1086.1975              1087.8359
 Red. masses --      2.0271                 1.7542                 1.9934
 Frc consts  --      1.3713                 1.2194                 1.3899
 IR Inten    --      1.5448                 1.0813                15.1954

                     52                     53                     54
                      A                      A                      A
 Frequencies --   1103.5356              1147.7477              1161.2545
 Red. masses --      2.1777                 1.9557                 2.3517
 Frc consts  --      1.5625                 1.5179                 1.8684
 IR Inten    --      0.6050                 1.9017                10.3408

                     55                     56                     57
                      A                      A                      A
 Frequencies --   1174.1496              1180.5747              1189.2837
 Red. masses --      1.5091                 2.1992                 2.4101
 Frc consts  --      1.2258                 1.8060                 2.0085
 IR Inten    --      7.1040                12.1298                12.3253

                     58                     59                     60
                      A                      A                      A
 Frequencies --   1223.7556              1230.3902              1247.4061
 Red. masses --      1.2792                 1.2200                 1.2461
 Frc consts  --      1.1287                 1.0882                 1.1424
 IR Inten    --     33.4174                 2.9763                57.6329

                     61                     62                     63
                      A                      A                      A
 Frequencies --   1253.2247              1270.9109              1294.8767
 Red. masses --      1.2735                 1.5915                 2.0293
 Frc consts  --      1.1785                 1.5146                 2.0047
 IR Inten    --      9.8933                98.7089                20.6180

                     64                     65                     66
                      A                      A                      A
 Frequencies --   1301.7340              1322.9787              1337.1163
 Red. masses --      1.3064                 1.1833                 1.3753
 Frc consts  --      1.3043                 1.2203                 1.4487
 IR Inten    --      1.4034                 0.5021                 0.7255

                     67                     68                     69
                      A                      A                      A
 Frequencies --   1351.4625              1365.0552              1373.9333
 Red. masses --      1.1951                 1.2321                 1.3060
 Frc consts  --      1.2860                 1.3527                 1.4526
 IR Inten    --      4.8343                19.8909                 4.9564

                     70                     71                     72
                      A                      A                      A
 Frequencies --   1386.8409              1390.0060              1398.2499
 Red. masses --      1.3721                 1.6434                 1.3677
 Frc consts  --      1.5549                 1.8708                 1.5755
 IR Inten    --      4.4132                30.5657                 0.5298

                     73                     74                     75
                      A                      A                      A
 Frequencies --   1400.4880              1412.6723              1414.7696
 Red. masses --      1.3150                 1.4751                 1.4296
 Frc consts  --      1.5196                 1.7344                 1.6859
 IR Inten    --      6.2989                 8.6582                 6.8751

                     76                     77                     78
                      A                      A                      A
 Frequencies --   1435.1088              1436.8002              1439.5900
 Red. masses --      1.3147                 1.8364                 1.8747
 Frc consts  --      1.5953                 2.2336                 2.2891
 IR Inten    --      3.2916               124.9149                34.1384

                     79                     80                     81
                      A                      A                      A
 Frequencies --   1450.2952              1499.7220              1502.7322
 Red. masses --      1.4585                 1.1911                 1.0934
 Frc consts  --      1.8074                 1.5783                 1.4547
 IR Inten    --     12.1827                 7.9725                 2.7490

                     82                     83                     84
                      A                      A                      A
 Frequencies --   1506.0511              1509.4405              1516.1874
 Red. masses --      1.0912                 1.1539                 1.0818
 Frc consts  --      1.4582                 1.5490                 1.4652
 IR Inten    --      1.5723                 0.9860                 7.6874

                     85                     86                     87
                      A                      A                      A
 Frequencies --   1523.5175              1526.4632              1530.9286
 Red. masses --      1.0708                 1.0674                 1.0845
 Frc consts  --      1.4644                 1.4654                 1.4976
 IR Inten    --      8.7020                 4.2661                 7.5411

                     88                     89                     90
                      A                      A                      A
 Frequencies --   1537.5330              1550.0964              1557.3860
 Red. masses --      1.1208                 1.0876                 1.0651
 Frc consts  --      1.5611                 1.5396                 1.5221
 IR Inten    --      1.0275                 2.8373                 1.7273

                     91                     92                     93
                      A                      A                      A
 Frequencies --   1564.7337              1724.1291              1751.7967
 Red. masses --      1.0716                11.2696                 6.5718
 Frc consts  --      1.5458                19.7378                11.8823
 IR Inten    --      2.5432               210.1782                19.8370

                     94                     95                     96
                      A                      A                      A
 Frequencies --   2912.2823              2983.5675              3006.9179
 Red. masses --      1.0733                 1.0755                 1.0760
 Frc consts  --      5.3632                 5.6408                 5.7321
 IR Inten    --    109.0758                46.6245                26.6931

                     97                     98                     99
                      A                      A                      A
 Frequencies --   3014.5190              3022.5318              3032.8780
 Red. masses --      1.0693                 1.0642                 1.0676
 Frc consts  --      5.7253                 5.7284                 5.7860
 IR Inten    --     97.4507                39.5717                32.4339

                    100                    101                    102
                      A                      A                      A
 Frequencies --   3040.0242              3055.5772              3061.4007
 Red. masses --      1.0436                 1.0662                 1.0976
 Frc consts  --      5.6825                 5.8651                 6.0606
 IR Inten    --     50.5786                20.4907                42.5463

                    103                    104                    105
                      A                      A                      A
 Frequencies --   3062.0566              3070.0604              3081.2765
 Red. masses --      1.0660                 1.0688                 1.0900
 Frc consts  --      5.8890                 5.9353                 6.0972
 IR Inten    --      7.6672                35.3605                29.6985

                    106                    107                    108
                      A                      A                      A
 Frequencies --   3083.1705              3085.2552              3097.2698
 Red. masses --      1.0895                 1.0924                 1.0976
 Frc consts  --      6.1022                 6.1265                 6.2040
 IR Inten    --     46.7990                34.7200                29.8299

                    109                    110                    111
                      A                      A                      A
 Frequencies --   3102.7422              3109.3988              3121.4087
 Red. masses --      1.0944                 1.0983                 1.0851
 Frc consts  --      6.2076                 6.2566                 6.2289
 IR Inten    --     24.2000                50.0692                 5.5889

                    112                    113                    114
                      A                      A                      A
 Frequencies --   3122.6098              3150.7025              3167.8860
 Red. masses --      1.0969                 1.0983                 1.0846
 Frc consts  --      6.3016                 6.4239                 6.4130
 IR Inten    --     59.6614                 5.2161                 7.6584

                    115                    116                    117
                      A                      A                      A
 Frequencies --   3189.1899              3233.6733              3505.9117
 Red. masses --      1.0975                 1.0861                 1.0746
 Frc consts  --      6.5770                 6.6913                 7.7824
 IR Inten    --     44.9239                 5.6381                 0.4205

 - Thermochemistry -
 -------------------
 Temperature   298.150 Kelvin.  Pressure   1.00000 Atm.
 Atom     1 has atomic number  6 and mass  12.00000

 Molecular mass:   236.18886 amu.
 Principal axes and moments of inertia in atomic units:
                           1         2         3
     Eigenvalues --  2192.471845721.221256743.42696
           X            0.99995   0.00940   0.00245
           Y           -0.00943   0.99990   0.01013
           Z           -0.00235  -0.01015   0.99995
 This molecule is an asymmetric top.
 Rotational symmetry number  1.
 Warning -- assumption of classical behavior for rotation
           may cause significant error
 Rotational temperatures (Kelvin)      0.03951     0.01514     0.01284
 Rotational constants (GHZ):           0.82315     0.31545     0.26763
 Zero-point vibrational energy     978419.1 (Joules/Mol)
                                  233.84778 (Kcal/Mol)
 Warning -- explicit consideration of  25 degrees of freedom as
           vibrations may cause significant error
 Vibrational temperatures:     45.63    75.24    86.00   105.91   135.03
          (Kelvin)            193.63   236.90   250.01   292.82   348.72
                              365.23   400.43   419.10   427.39   474.80
                              502.58   538.72   585.43   596.02   617.18
                              648.57   662.02   748.40   759.08   777.97
                              945.77   963.07   982.76  1045.25  1097.21
                             1118.23  1138.80  1154.49  1244.73  1269.53
                             1284.69  1301.88  1331.96  1342.17  1383.78
                             1404.30  1418.69  1429.40  1440.58  1462.90
                             1492.40  1520.05  1538.50  1541.66  1562.80
                             1565.15  1587.74  1651.35  1670.79  1689.34
                             1698.58  1711.11  1760.71  1770.26  1794.74
                             1803.11  1828.56  1863.04  1872.90  1903.47
                             1923.81  1944.45  1964.01  1976.78  1995.35
                             1999.91  2011.77  2014.99  2032.52  2035.54
                             2064.80  2067.24  2071.25  2086.65  2157.77
                             2162.10  2166.87  2171.75  2181.46  2192.00
                             2196.24  2202.66  2212.17  2230.24  2240.73
                             2251.30  2480.64  2520.44  4190.12  4292.69
                             4326.28  4337.22  4348.75  4363.63  4373.92
                             4396.29  4404.67  4405.62  4417.13  4433.27
                             4435.99  4438.99  4456.28  4464.15  4473.73
                             4491.01  4492.74  4533.16  4557.88  4588.53
                             4652.53  5044.23

 Zero-point correction=                           0.372660 (Hartree/Particle)
 Thermal correction to Energy=                    0.389284
 Thermal correction to Enthalpy=                  0.390228
 Thermal correction to Gibbs Free Energy=         0.328487
 Sum of electronic and zero-point Energies=           -732.349957
 Sum of electronic and thermal Energies=              -732.333334
 Sum of electronic and thermal Enthalpies=            -732.332389
 Sum of electronic and thermal Free Energies=         -732.394130

                     E (Thermal)             CV                S
                      KCal/Mol        Cal/Mol-Kelvin    Cal/Mol-Kelvin
 Total                  244.279             65.667            129.944
 Electronic               0.000              0.000              0.000
 Translational            0.889              2.981             42.280
 Rotational               0.889              2.981             32.803
 Vibrational            242.502             59.705             54.861
 Vibration     1          0.594              1.983              5.719
 Vibration     2          0.596              1.977              4.729
 Vibration     3          0.597              1.973              4.465
 Vibration     4          0.599              1.966              4.054
 Vibration     5          0.603              1.954              3.578
 Vibration     6          0.613              1.919              2.880
 Vibration     7          0.623              1.886              2.496
 Vibration     8          0.627              1.875              2.394
 Vibration     9          0.639              1.835              2.101
 Vibration    10          0.659              1.775              1.785
 Vibration    11          0.665              1.756              1.704
 Vibration    12          0.679              1.714              1.544
 Vibration    13          0.687              1.690              1.466
 Vibration    14          0.691              1.679              1.433
 Vibration    15          0.713              1.616              1.260
 Vibration    16          0.727              1.577              1.169
 Vibration    17          0.746              1.525              1.062
 Vibration    18          0.772              1.455              0.938
 Vibration    19          0.778              1.439              0.912
 Vibration    20          0.790              1.407              0.862
 Vibration    21          0.810              1.359              0.793
 Vibration    22          0.818              1.338              0.766
 Vibration    23          0.875              1.205              0.610
 Vibration    24          0.883              1.189              0.593
 Vibration    25          0.896              1.160              0.564

 Optimization completed.
    -- Stationary point found.
 Normal termination of Gaussian 16 at Fri Dec 11 12:58:42 2020.

 ----------------------------------------------------------------------
 # B3LYP/6-311++G(d,p) empiricaldispersion=gd3bj scf=xqc pop=npa geom=c
 heck
 ----------------------------------------------------------------------

 ---------------------------------------
 CID_113581294_JID_7502_Energie_neutraal
 ---------------------------------------
 Structure from the checkpoint file:  "JID_7502.chk"
 Charge =  0 Multiplicity = 1

 SCF Done:  E(RB3LYP) =  -732.926308736     A.U. after   15 cycles
 Normal termination of Gaussian 16 at Fri Dec 11 13:07:00 2020.

 ----------------------------------------------------------------------
 # B3LYP/6-311++G(d,p) empiricaldispersion=gd3bj scf=xqc pop=npa geom=c
 heck
 ----------------------------------------------------------------------

 -------------------------------------
 CID_113581294_JID_7502_Energie_kation
 -------------------------------------
 Structure from the checkpoint file:  "JID_7502.chk"
 Charge =  1 Multiplicity = 2

 SCF Done:  E(UB3LYP) =  -732.630557871     A.U. after   26 cycles
 Normal termination of Gaussian 16 at Fri Dec 11 13:26:38 2020.
 Gaussian 16:  ES64L-G16RevA.03 25-Dec-2016

 ----------------------------------------------------------------------
 # B3LYP/6-311++G(d,p) empiricaldispersion=gd3bj scf=xqc pop=npa geom=c
 heck
 ----------------------------------------------------------------------

 ------------------------------------
 CID_113581294_JID_7502_Energie_anion
 ------------------------------------
 Structure from the checkpoint file:  "JID_7502.chk"
 Charge = -1 Multiplicity = 2

                         Standard orientation:
 ---------------------------------------------------------------------
 Center     Atomic      Atomic             Coordinates (Angstroms)
 Number     Number       Type             X           Y           Z
 ---------------------------------------------------------------------
      1          6           0       -3.989307   -0.770152   -1.286119
      2          6           0       -3.410346   -1.207713    0.062705
      3          6           0       -1.909894   -1.554108    0.070134
      4          6           0       -0.838363   -0.432495    0.190938
      5          6           0       -1.027145    0.341588    1.540070
      6          6           0       -1.896880    1.609546    1.464088
      7          6           0       -1.605692    2.431373    0.211026
      8          7           0       -1.821519    1.580770   -0.953625
      9          6           0       -0.846093    0.496603   -1.059601
     10          6           0        0.531050   -1.186815    0.238850
     11          8           0        0.560985   -2.415120    0.242958
     12          7           0        1.728348   -0.493463    0.248929
     13          6           0        1.967942    0.929116    0.479746
     14          6           0        2.903214    1.505840   -0.586927
     15          6           0        4.121899    0.637839   -0.736050
     16          6           0        4.132841   -0.622727   -0.300329
     17          6           0        2.941432   -1.315786    0.296145
     18          1           0       -3.745953   -1.502122   -2.067126
     19          1           0       -3.595389    0.205319   -1.579346
     20          1           0       -5.082336   -0.696857   -1.232203
     21          1           0       -3.644671   -0.458293    0.826576
     22          1           0       -3.935544   -2.119392    0.378349
     23          1           0       -1.721965   -2.234965    0.904999
     24          1           0       -1.683021   -2.141323   -0.827188
     25          1           0       -1.461704   -0.356756    2.264137
     26          1           0       -0.056051    0.618139    1.958930
     27          1           0       -2.957993    1.345701    1.444245
     28          1           0       -1.729884    2.216937    2.362142
     29          1           0       -2.294113    3.281405    0.151359
     30          1           0       -0.580612    2.852466    0.257492
     31          1           0       -1.796233    2.133524   -1.806848
     32          1           0        0.163871    0.884445   -1.258817
     33          1           0       -1.111151   -0.116229   -1.927955
     34          1           0        1.033875    1.477040    0.493210
     35          1           0        2.433415    1.053616    1.469716
     36          1           0        2.368535    1.592285   -1.544618
     37          1           0        3.188828    2.526222   -0.298218
     38          1           0        5.007909    1.068037   -1.197826
     39          1           0        5.032832   -1.228976   -0.380402
     40          1           0        3.155214   -1.622046    1.334575
     41          1           0        2.728511   -2.241033   -0.244050
 ---------------------------------------------------------------------

 SCF Done:  E(UB3LYP) =  -732.916637778     A.U. after   32 cycles

 The electronic state is 2-A.
 Alpha  occ. eigenvalues --  -18.98872 -14.24627 -14.19947 -10.17338 -10.11195
 Alpha  occ. eigenvalues --  -10.11029 -10.10112 -10.09859 -10.09281 -10.07998
 Alpha  occ. eigenvalues --  -10.07886 -10.07812 -10.07803 -10.07128 -10.07127
 Alpha  occ. eigenvalues --  -10.06484 -10.05706  -0.94412  -0.84276  -0.81724
 Alpha  occ. eigenvalues --   -0.72154  -0.70878  -0.67969  -0.67274  -0.65957
 Alpha  occ. eigenvalues --   -0.58983  -0.58468  -0.55244  -0.55000  -0.53359
 Alpha  occ. eigenvalues --   -0.49317  -0.47362  -0.44567  -0.42834  -0.42261
 Alpha  occ. eigenvalues --   -0.39309  -0.38874  -0.37770  -0.36454  -0.35997
 Alpha  occ. eigenvalues --   -0.35296  -0.34554  -0.33841  -0.33367  -0.32667
 Alpha  occ. eigenvalues --   -0.31988  -0.30942  -0.30397  -0.29859  -0.29544
 Alpha  occ. eigenvalues --   -0.28613  -0.27675  -0.26801  -0.26485  -0.25805
 Alpha  occ. eigenvalues --   -0.24634  -0.24154  -0.23110  -0.22696  -0.21767
 Alpha  occ. eigenvalues --   -0.20960  -0.16248  -0.15767  -0.14589  -0.13020
 Alpha  occ. eigenvalues --    0.04029
 Alpha virt. eigenvalues --    0.06198   0.06956   0.07043   0.07977   0.08064
 Alpha virt. eigenvalues --    0.08780   0.09298   0.09387   0.09883   0.10208
 Alpha virt. eigenvalues --    0.10516   0.10968   0.11203   0.11438   0.11797

  Beta  occ. eigenvalues --  -18.98859 -14.24631 -14.19921 -10.17325 -10.11175
  Beta  occ. eigenvalues --  -10.11020 -10.10114 -10.09848 -10.09248 -10.07987
  Beta  occ. eigenvalues --  -10.07854 -10.07799 -10.07789 -10.07124 -10.07116
  Beta  occ. eigenvalues --  -10.06482 -10.05701  -0.94390  -0.84267  -0.81686
  Beta  occ. eigenvalues --   -0.72132  -0.70846  -0.67945  -0.67241  -0.65934
  Beta  occ. eigenvalues --   -0.58957  -0.58440  -0.55194  -0.54943  -0.53327
  Beta  occ. eigenvalues --   -0.49294  -0.47313  -0.44534  -0.42785  -0.42204
  Beta  occ. eigenvalues --   -0.39277  -0.38838  -0.37733  -0.36436  -0.35963
  Beta  occ. eigenvalues --   -0.35265  -0.34530  -0.33818  -0.33343  -0.32645
  Beta  occ. eigenvalues --   -0.31969  -0.30910  -0.30362  -0.29827  -0.29514
  Beta  occ. eigenvalues --   -0.28593  -0.27635  -0.26769  -0.26443  -0.25787
  Beta  occ. eigenvalues --   -0.24603  -0.24132  -0.23086  -0.22675  -0.21743
  Beta  occ. eigenvalues --   -0.20948  -0.16225  -0.15743  -0.14573  -0.12973
  Beta virt. eigenvalues --    0.06235   0.06727   0.07486   0.07642   0.08375
  Beta virt. eigenvalues --    0.08566   0.08969   0.09594   0.09707   0.09967
  Beta virt. eigenvalues --    0.10566   0.10749   0.11021   0.11486   0.11627

 Mulliken charges and spin densities:
               1          2
     1  C   -0.445071  -0.163152
     2  C   -0.315230   0.016045
     3  C   -0.520761  -0.054946
     4  C    0.767120  -0.075669
     5  C   -0.878214   0.359207
     6  C    0.643517  -0.869373
     7  C    0.289193  -0.716654
     8  N   -0.237149   0.064400
     9  C   -0.142849  -0.662537
    10  C    0.122297   0.141292
    11  O   -0.285762  -0.002065
    12  N    0.131436   0.067486
    13  C   -1.075968   0.919820
    14  C    1.090719  -1.790138
    15  C   -0.207577   0.289933
    16  C    0.451973  -0.681277
    17  C   -0.222577   0.026903
    18  H    0.090663   0.015775
    19  H    0.297446  -0.081298
    20  H    0.010364   0.109260
    21  H    0.061327   0.038166
    22  H    0.124799   0.020238
    23  H    0.187139   0.016145
    24  H    0.156922   0.031782
    25  H    0.067527   0.115578
    26  H   -0.225162   0.405622
    27  H    0.207616  -0.101446
    28  H   -0.230041   0.407097
    29  H   -0.562770   0.762691
    30  H   -0.712828   0.850208
    31  H   -0.210220   0.474938
    32  H    0.406343  -0.275339
    33  H    0.019979   0.175883
    34  H    1.709772  -1.641300
    35  H   -0.407271   0.593622
    36  H   -0.295069   0.453153
    37  H   -0.432823   0.594789
    38  H   -0.452743   0.650754
    39  H   -0.164536   0.337605
    40  H    0.102926   0.076455
    41  H    0.085544   0.100347
 Sum of Mulliken charges =  -1.00000   1.00000

 Dipole moment (field-independent basis, Debye):
    X=             -3.2991    Y=             -5.4782    Z=              1.0194  Tot=              6.4756
 Quadrupole moment (field-independent basis, Debye-Ang):
   XX=           -176.4649   YY=           -169.8545   ZZ=           -141.4086
   XY=             -1.2682   XZ=             -1.0726   YZ=              2.4343

 Summary of Natural Population Analysis:

                                       Natural Population
                Natural  -----------------------------------------------
    Atom  No    Charge         Core      Valence    Rydberg      Total
 -----------------------------------------------------------------------
      C    1   -0.29110      0.99966     2.28699    0.00444     3.29110
      C    2   -0.18964      0.99963     2.18270    0.00731     3.18964
      C    3   -0.18564      0.99960     2.17573    0.01031     3.18564
      C    4   -0.06979      0.99952     2.05893    0.01134     3.06979
      C    5   -0.18959      0.99959     2.18053    0.00948     3.18959
      C    6   -0.19196      0.99961     2.18334    0.00901     3.19196
      C    7   -0.08461      0.99962     2.07350    0.01149     3.08461
      N    8   -0.34662      0.99973     2.83303    0.01386     3.84662
      C    9   -0.08606      0.99957     2.07398    0.01251     3.08606
      C   10    0.36191      0.99960     1.61445    0.02403     2.63809
      O   11   -0.32885      0.99988     3.32401    0.00496     4.32885
      N   12   -0.25789      0.99963     2.74818    0.01008     3.75789
      C   13   -0.08961      0.99960     2.07881    0.01120     3.08961
      C   14   -0.20956      0.99961     2.20067    0.00928     3.20956
      C   15   -0.09016      0.99952     2.08039    0.01025     3.09016
      C   16   -0.10096      0.99952     2.09182    0.00962     3.10096
      C   17   -0.10294      0.99959     2.09176    0.01159     3.10294
      H   18    0.08990      0.00000     0.40905    0.00105     0.41010
      H   19    0.11265      0.00000     0.38598    0.00137     0.38735
      H   20    0.09180      0.00000     0.40726    0.00094     0.40820
      H   21    0.09399      0.00000     0.40454    0.00147     0.40601
      H   22    0.09020      0.00000     0.40875    0.00105     0.40980
      H   23    0.10581      0.00000     0.39315    0.00104     0.39419
      H   24    0.10127      0.00000     0.39766    0.00108     0.39873
      H   25    0.10144      0.00000     0.39755    0.00101     0.39856
      H   26    0.10094      0.00000     0.39745    0.00162     0.39906
      H   27    0.09509      0.00000     0.40341    0.00150     0.40491
      H   28    0.10008      0.00000     0.39895    0.00097     0.39992
      H   29    0.09822      0.00000     0.40018    0.00160     0.40178
      H   30    0.07830      0.00000     0.41888    0.00282     0.42170
      H   31    0.18042      0.00000     0.31613    0.00346     0.31958
      H   32    0.08676      0.00000     0.41083    0.00241     0.41324
      H   33    0.09755      0.00000     0.40120    0.00125     0.40245
      H   34    0.10852      0.00000     0.38848    0.00299     0.39148
      H   35    0.09417      0.00000     0.40421    0.00162     0.40583
      H   36    0.10462      0.00000     0.39363    0.00175     0.39538
      H   37    0.10827      0.00000     0.38957    0.00216     0.39173
      H   38    0.09962      0.00000     0.39910    0.00129     0.40038
      H   39    0.09874      0.00000     0.40037    0.00089     0.40126
      H   40    0.09637      0.00000     0.40246    0.00117     0.40363
      H   41    0.11833      0.00000     0.38040    0.00127     0.38167
 =======================================================================
   * Total *   -0.00000     16.99347    47.78802    0.21851    65.00000

 Normal termination of Gaussian 16 at Fri Dec 11 13:49:57 2020.
