 Gaussian 16, Revision A.03,

 -----------------------------------------------------------
 # opt freq B3LYP/6-31G(d) empiricaldispersion=gd3bj scf=xqc
 -----------------------------------------------------------

 -------------------------------
 CID_141261222_JID_2106_neutraal
 -------------------------------
 Symbolic Z-matrix:
 Charge =  0 Multiplicity = 1

 SCF Done:  E(RB3LYP) =  -679.516951838     A.U. after   15 cycles
 SCF Done:  E(RB3LYP) =  -679.521601946     A.U. after   13 cycles
 SCF Done:  E(RB3LYP) =  -679.523878537     A.U. after   13 cycles
 SCF Done:  E(RB3LYP) =  -679.526898657     A.U. after   12 cycles
 SCF Done:  E(RB3LYP) =  -679.527701961     A.U. after   12 cycles
 SCF Done:  E(RB3LYP) =  -679.528074650     A.U. after   11 cycles
 SCF Done:  E(RB3LYP) =  -679.528286655     A.U. after   11 cycles
 SCF Done:  E(RB3LYP) =  -679.528446665     A.U. after   11 cycles
 SCF Done:  E(RB3LYP) =  -679.528665789     A.U. after   11 cycles
 SCF Done:  E(RB3LYP) =  -679.528766051     A.U. after   12 cycles
 SCF Done:  E(RB3LYP) =  -679.530433437     A.U. after    8 cycles
 SCF Done:  E(RB3LYP) =  -679.530434448     A.U. after    8 cycles
 SCF Done:  E(RB3LYP) =  -679.530434781     A.U. after    8 cycles
 SCF Done:  E(RB3LYP) =  -679.530435135     A.U. after    8 cycles
 SCF Done:  E(RB3LYP) =  -679.530435414     A.U. after    8 cycles
 Optimization completed.
    -- Stationary point found.
 Normal termination of Gaussian 16 at Wed Dec  9 16:58:05 2020.

 --------------------------------------------------------------------
 #N Geom=AllCheck Guess=TCheck SCRF=Check GenChk RB3LYP/6-31G(d) Freq
 --------------------------------------------------------------------

 Structure from the checkpoint file:  "JID_2106.chk"
 -------------------------------
 CID_141261222_JID_2106_neutraal
 -------------------------------
 Charge =  0 Multiplicity = 1

 SCF Done:  E(RB3LYP) =  -679.530435414     A.U. after    1 cycles

  Exact polarizability: 101.801  -4.739  75.872  -3.786  -2.534  72.069
 Approx polarizability: 151.904 -13.364 103.990  -9.334  -3.855 108.949

                      1                      2                      3
                      A                      A                      A
 Frequencies --     44.7743                60.0551                92.4445
 Red. masses --      6.5143                 5.8756                 5.8259
 Frc consts  --      0.0077                 0.0125                 0.0293
 IR Inten    --      0.8772                 1.6854                 0.6635

                      4                      5                      6
                      A                      A                      A
 Frequencies --    123.3797               139.3008               151.1568
 Red. masses --      6.4564                 4.6681                 5.3549
 Frc consts  --      0.0579                 0.0534                 0.0721
 IR Inten    --      0.0861                 2.9377                 2.0041

                      7                      8                      9
                      A                      A                      A
 Frequencies --    168.7113               178.4207               219.8635
 Red. masses --      4.3622                 5.8373                 5.2590
 Frc consts  --      0.0732                 0.1095                 0.1498
 IR Inten    --      4.3202                 0.8068                13.5918

                     10                     11                     12
                      A                      A                      A
 Frequencies --    247.1227               267.7026               307.7640
 Red. masses --      5.1943                 2.8358                 2.9504
 Frc consts  --      0.1869                 0.1197                 0.1647
 IR Inten    --      1.7544                21.2091                21.7712

                     13                     14                     15
                      A                      A                      A
 Frequencies --    327.6707               355.6695               369.6939
 Red. masses --      1.5486                 1.9564                 1.9847
 Frc consts  --      0.0980                 0.1458                 0.1598
 IR Inten    --     42.7583                 7.4235                12.0018

                     16                     17                     18
                      A                      A                      A
 Frequencies --    399.0574               437.0615               491.1413
 Red. masses --      1.0855                 4.7368                 2.3277
 Frc consts  --      0.1018                 0.5331                 0.3308
 IR Inten    --     27.7835                16.0966                 6.9377

                     19                     20                     21
                      A                      A                      A
 Frequencies --    498.8368               561.1044               575.6048
 Red. masses --      1.0526                 3.5791                 3.3019
 Frc consts  --      0.1543                 0.6639                 0.6446
 IR Inten    --     52.4960                17.4024                 9.4025

                     22                     23                     24
                      A                      A                      A
 Frequencies --    606.2057               624.9565               671.4381
 Red. masses --      2.2294                 1.7073                 2.1846
 Frc consts  --      0.4827                 0.3929                 0.5803
 IR Inten    --     97.0223                84.6793                31.7243

                     25                     26                     27
                      A                      A                      A
 Frequencies --    692.3911               728.1532               771.6028
 Red. masses --      1.2811                 1.9123                 4.3121
 Frc consts  --      0.3619                 0.5974                 1.5126
 IR Inten    --    391.8663                96.8815                28.1223

                     28                     29                     30
                      A                      A                      A
 Frequencies --    778.1884               899.1006               915.2477
 Red. masses --      4.1167                 2.5066                 2.4247
 Frc consts  --      1.4688                 1.1939                 1.1967
 IR Inten    --     23.0876                 7.8504               119.9679

                     31                     32                     33
                      A                      A                      A
 Frequencies --    942.0023               962.3978               965.8784
 Red. masses --      1.5618                 1.0872                 2.2176
 Frc consts  --      0.8166                 0.5933                 1.2189
 IR Inten    --    106.7884                71.9470               113.4588

                     34                     35                     36
                      A                      A                      A
 Frequencies --   1015.3315              1137.1320              1149.1025
 Red. masses --      2.6723                 2.4267                 2.6482
 Frc consts  --      1.6231                 1.8488                 2.0603
 IR Inten    --     18.6642                25.2834                26.6405

                     37                     38                     39
                      A                      A                      A
 Frequencies --   1214.0813              1239.1839              1281.4869
 Red. masses --      2.4907                 1.6579                 1.5916
 Frc consts  --      2.1631                 1.5000                 1.5399
 IR Inten    --     90.4374                20.9922               113.1087

                     40                     41                     42
                      A                      A                      A
 Frequencies --   1303.2272              1339.6616              1368.4403
 Red. masses --      1.6098                 1.1717                 1.2538
 Frc consts  --      1.6109                 1.2390                 1.3833
 IR Inten    --      7.1119                11.2227                17.8243

                     43                     44                     45
                      A                      A                      A
 Frequencies --   1371.9879              1413.9232              1422.8742
 Red. masses --      1.2583                 1.8786                 1.7709
 Frc consts  --      1.3955                 2.2128                 2.1124
 IR Inten    --     12.1654                38.6146                84.8924

                     46                     47                     48
                      A                      A                      A
 Frequencies --   1461.3266              1477.1663              1498.3054
 Red. masses --      1.7294                 1.6507                 1.1694
 Frc consts  --      2.1759                 2.1222                 1.5467
 IR Inten    --     38.7140                 5.7588                51.1983

                     49                     50                     51
                      A                      A                      A
 Frequencies --   1511.0928              1718.6539              1734.1203
 Red. masses --      1.1697                 1.0910                 1.3334
 Frc consts  --      1.5736                 1.8988                 2.3626
 IR Inten    --     30.0063                12.4120               279.2512

                     52                     53                     54
                      A                      A                      A
 Frequencies --   1739.5483              1765.0798              1787.8888
 Red. masses --      1.1885                 2.8322                 5.8905
 Frc consts  --      2.1189                 5.1989                11.0940
 IR Inten    --    121.9590                28.9036               262.3200

                     55                     56                     57
                      A                      A                      A
 Frequencies --   3089.0554              3115.8584              3146.9592
 Red. masses --      1.0603                 1.0845                 1.1042
 Frc consts  --      5.9611                 6.2037                 6.4429
 IR Inten    --      8.3326                30.5353                 8.9144

                     58                     59                     60
                      A                      A                      A
 Frequencies --   3294.4934              3452.3453              3458.8531
 Red. masses --      1.0697                 1.0458                 1.0483
 Frc consts  --      6.8406                 7.3436                 7.3892
 IR Inten    --    556.2010                20.4148                 2.5244

                     61                     62                     63
                      A                      A                      A
 Frequencies --   3481.2430              3548.5324              3555.9382
 Red. masses --      1.0756                 1.0987                 1.0963
 Frc consts  --      7.6802                 8.1515                 8.1675
 IR Inten    --     10.4726                16.7792                 5.1411

                     64                     65                     66
                      A                      A                      A
 Frequencies --   3594.7998              3633.3496              3710.9383
 Red. masses --      1.0772                 1.0482                 1.0781
 Frc consts  --      8.2019                 8.1528                 8.7476
 IR Inten    --     38.0211               234.7258               141.6831

 - Thermochemistry -
 -------------------
 Temperature   298.150 Kelvin.  Pressure   1.00000 Atm.
 Atom     1 has atomic number  6 and mass  12.00000

 Molecular mass:   180.08586 amu.
 Principal axes and moments of inertia in atomic units:
                           1         2         3
     Eigenvalues --  1804.896532190.882143031.59234
           X            0.99979  -0.01744  -0.01059
           Y            0.01744   0.99985  -0.00064
           Z            0.01060   0.00046   0.99994
 This molecule is an asymmetric top.
 Rotational symmetry number  1.
 Warning -- assumption of classical behavior for rotation
           may cause significant error
 Rotational temperatures (Kelvin)      0.04799     0.03953     0.02857
 Rotational constants (GHZ):           0.99991     0.82375     0.59531
 Zero-point vibrational energy     518019.4 (Joules/Mol)
                                  123.80961 (Kcal/Mol)
 Warning -- explicit consideration of  22 degrees of freedom as
           vibrations may cause significant error
 Vibrational temperatures:     64.42    86.41   133.01   177.52   200.42
          (Kelvin)            217.48   242.74   256.71   316.33   355.55
                              385.16   442.80   471.45   511.73   531.91
                              574.15   628.83   706.64   717.71   807.30
                              828.17   872.19   899.17   966.05   996.20
                             1047.65  1110.16  1119.64  1293.61  1316.84
                             1355.33  1384.68  1389.68  1460.84  1636.08
                             1653.30  1746.79  1782.91  1843.77  1875.05
                             1927.47  1968.88  1973.98  2034.32  2047.20
                             2102.52  2125.31  2155.73  2174.13  2472.76
                             2495.01  2502.82  2539.56  2572.37  4444.46
                             4483.03  4527.77  4740.04  4967.15  4976.52
                             5008.73  5105.55  5116.20  5172.12  5227.58
                             5339.21

 Zero-point correction=                           0.197303 (Hartree/Particle)
 Thermal correction to Energy=                    0.211371
 Thermal correction to Enthalpy=                  0.212316
 Thermal correction to Gibbs Free Energy=         0.156998
 Sum of electronic and zero-point Energies=           -679.333132
 Sum of electronic and thermal Energies=              -679.319064
 Sum of electronic and thermal Enthalpies=            -679.318120
 Sum of electronic and thermal Free Energies=         -679.373438

                     E (Thermal)             CV                S
                      KCal/Mol        Cal/Mol-Kelvin    Cal/Mol-Kelvin
 Total                  132.638             51.349            116.426
 Electronic               0.000              0.000              0.000
 Translational            0.889              2.981             41.472
 Rotational               0.889              2.981             30.862
 Vibrational            130.860             45.387             44.093
 Vibration     1          0.595              1.979              5.036
 Vibration     2          0.597              1.973              4.455
 Vibration     3          0.602              1.955              3.608
 Vibration     4          0.610              1.930              3.047
 Vibration     5          0.615              1.914              2.813
 Vibration     6          0.619              1.901              2.658
 Vibration     7          0.625              1.881              2.450
 Vibration     8          0.629              1.869              2.345
 Vibration     9          0.647              1.811              1.960
 Vibration    10          0.661              1.768              1.751
 Vibration    11          0.673              1.732              1.611
 Vibration    12          0.698              1.659              1.374
 Vibration    13          0.711              1.620              1.272
 Vibration    14          0.731              1.564              1.141
 Vibration    15          0.742              1.534              1.081
 Vibration    16          0.765              1.472              0.966
 Vibration    17          0.797              1.389              0.836
 Vibration    18          0.847              1.270              0.681
 Vibration    19          0.854              1.253              0.661
 Vibration    20          0.917              1.115              0.522
 Vibration    21          0.932              1.084              0.494
 Vibration    22          0.965              1.019              0.439

                           ! Non-Optimized Parameters !
 Normal termination of Gaussian 16 at Wed Dec  9 17:03:40 2020.

 ----------------------------------------------------------------------
 # B3LYP/6-311++G(d,p) empiricaldispersion=gd3bj scf=xqc pop=npa geom=c
 heck
 ----------------------------------------------------------------------

 ---------------------------------------
 CID_141261222_JID_2106_Energie_neutraal
 ---------------------------------------
 Structure from the checkpoint file:  "JID_2106.chk"
 Charge =  0 Multiplicity = 1

 SCF Done:  E(RB3LYP) =  -679.781758111     A.U. after   14 cycles
 Normal termination of Gaussian 16 at Wed Dec  9 17:05:27 2020.

 ----------------------------------------------------------------------
 # B3LYP/6-311++G(d,p) empiricaldispersion=gd3bj scf=xqc pop=npa geom=c
 heck
 ----------------------------------------------------------------------

 -------------------------------------
 CID_141261222_JID_2106_Energie_kation
 -------------------------------------
 Structure from the checkpoint file:  "JID_2106.chk"
 Charge =  1 Multiplicity = 2

 SCF Done:  E(UB3LYP) =  -679.438960385     A.U. after   33 cycles
 SCF Done:  E(UB3LYP) =  -679.438960388     a.u. after    2 cycles
 Normal termination of Gaussian 16 at Wed Dec  9 17:16:27 2020.
 Gaussian 16:  ES64L-G16RevA.03 25-Dec-2016

 ----------------------------------------------------------------------
 # B3LYP/6-311++G(d,p) empiricaldispersion=gd3bj scf=xqc pop=npa geom=c
 heck
 ----------------------------------------------------------------------

 ------------------------------------
 CID_141261222_JID_2106_Energie_anion
 ------------------------------------
 Structure from the checkpoint file:  "JID_2106.chk"
 Charge = -1 Multiplicity = 2

                         Standard orientation:
 ---------------------------------------------------------------------
 Center     Atomic      Atomic             Coordinates (Angstroms)
 Number     Number       Type             X           Y           Z
 ---------------------------------------------------------------------
      1          6           0        0.111225    0.518984    1.384574
      2          6           0       -0.125547   -0.965708    0.947111
      3          6           0       -0.661090   -0.990380   -0.493625
      4          8           0        0.047876   -1.142737   -1.480609
      5          7           0       -2.010041   -0.739839   -0.680284
      6          7           0       -2.930551   -0.841913    0.380183
      7          8           0        0.971134   -1.800229    1.114255
      8          6           0        0.872106    1.367010    0.381877
      9          8           0        2.093183    1.299307    0.235712
     10          7           0        0.152379    2.242761   -0.382380
     11          7           0       -1.238243    2.430024   -0.434664
     12          8           0        2.810855   -1.185881   -0.788902
     13          1           0        0.713098    0.470502    2.295114
     14          1           0       -0.856936    0.966726    1.624913
     15          1           0       -0.910030   -1.341675    1.607208
     16          1           0       -2.319778   -0.918143   -1.635330
     17          1           0       -3.616191   -0.095843    0.294889
     18          1           0       -3.421777   -1.734559    0.339767
     19          1           0        1.693346   -1.592695    0.462354
     20          1           0        0.683943    2.758830   -1.072964
     21          1           0       -1.693271    1.534875   -0.606451
     22          1           0       -1.568655    2.810289    0.450107
     23          1           0        2.867441   -0.252230   -0.504072
     24          1           0        2.049456   -1.186425   -1.398785
 ---------------------------------------------------------------------

 SCF Done:  E(UB3LYP) =  -679.788676184     A.U. after   26 cycles

 The electronic state is 2-A.
 Alpha  occ. eigenvalues --  -19.01221 -19.00911 -19.00695 -19.00658 -14.27461
 Alpha  occ. eigenvalues --  -14.26679 -14.24252 -14.23056 -10.19047 -10.18359
 Alpha  occ. eigenvalues --  -10.13773 -10.09035  -0.96629  -0.95963  -0.91851
 Alpha  occ. eigenvalues --   -0.89985  -0.89036  -0.88207  -0.71218  -0.70285
 Alpha  occ. eigenvalues --   -0.67723  -0.58646  -0.51424  -0.48032  -0.44285
 Alpha  occ. eigenvalues --   -0.43497  -0.43070  -0.42237  -0.41682  -0.40281
 Alpha  occ. eigenvalues --   -0.40104  -0.36857  -0.35301  -0.34316  -0.32357
 Alpha  occ. eigenvalues --   -0.30821  -0.30282  -0.29053  -0.27134  -0.25089
 Alpha  occ. eigenvalues --   -0.21109  -0.20407  -0.19154  -0.18655  -0.17806
 Alpha  occ. eigenvalues --   -0.16804  -0.16535  -0.15951   0.03625
 Alpha virt. eigenvalues --    0.07303   0.08236   0.08713   0.08817   0.09522
 Alpha virt. eigenvalues --    0.10640   0.11080   0.11958   0.12306   0.13077
 Alpha virt. eigenvalues --    0.14699   0.14975   0.15792   0.16012   0.17310

  Beta  occ. eigenvalues --  -19.01221 -19.00902 -19.00695 -19.00648 -14.27450
  Beta  occ. eigenvalues --  -14.26646 -14.24187 -14.22908 -10.19033 -10.18350
  Beta  occ. eigenvalues --  -10.13760 -10.09020  -0.96600  -0.95935  -0.91844
  Beta  occ. eigenvalues --   -0.89980  -0.88984  -0.88088  -0.71125  -0.70073
  Beta  occ. eigenvalues --   -0.67640  -0.58590  -0.51380  -0.47987  -0.44122
  Beta  occ. eigenvalues --   -0.43432  -0.42974  -0.42188  -0.41643  -0.40136
  Beta  occ. eigenvalues --   -0.40063  -0.36805  -0.35267  -0.34283  -0.32322
  Beta  occ. eigenvalues --   -0.30762  -0.30252  -0.29034  -0.27117  -0.25071
  Beta  occ. eigenvalues --   -0.21090  -0.20373  -0.19085  -0.18614  -0.17751
  Beta  occ. eigenvalues --   -0.16736  -0.16487  -0.15917
  Beta virt. eigenvalues --    0.07162   0.08082   0.08582   0.08901   0.09395
  Beta virt. eigenvalues --    0.10148   0.10961   0.12051   0.12299   0.12664
  Beta virt. eigenvalues --    0.13302   0.14819   0.15355   0.16013   0.16181

 Mulliken charges and spin densities:
               1          2
     1  C    0.220421  -0.251320
     2  C   -0.250825  -0.204562
     3  C    0.515862  -0.398536
     4  O   -0.386229   0.016183
     5  N   -0.325071   0.140115
     6  N    0.285634  -0.714574
     7  O   -0.199232  -0.001333
     8  C   -0.234181  -0.020737
     9  O   -0.361936   0.007045
    10  N   -0.235238   0.148936
    11  N   -0.199745  -0.372209
    12  O   -0.471721  -0.002581
    13  H    0.192618   0.029877
    14  H    0.112603   0.074594
    15  H    0.128362   0.141601
    16  H   -0.217028   0.523764
    17  H   -0.508252   0.770836
    18  H   -0.398950   0.665591
    19  H    0.321472  -0.004752
    20  H    0.282096   0.028453
    21  H    0.386443  -0.064811
    22  H   -0.215461   0.492619
    23  H    0.272663  -0.000938
    24  H    0.285696  -0.003258
 Sum of Mulliken charges =  -1.00000   1.00000

 Dipole moment (field-independent basis, Debye):
    X=              6.0653    Y=              2.5410    Z=              0.2361  Tot=              6.5803
 Quadrupole moment (field-independent basis, Debye-Ang):
   XX=           -146.6543   YY=           -105.8992   ZZ=            -93.0047
   XY=              3.9715   XZ=             -0.1245   YZ=             -0.3471

 Summary of Natural Population Analysis:

                                       Natural Population
                Natural  -----------------------------------------------
    Atom  No    Charge         Core      Valence    Rydberg      Total
 -----------------------------------------------------------------------
      C    1   -0.24663      0.99956     2.23788    0.00919     3.24663
      C    2    0.02945      0.99953     1.95435    0.01667     2.97055
      C    3    0.33883      0.99965     1.63648    0.02504     2.66117
      O    4   -0.33550      0.99986     3.32919    0.00644     4.33550
      N    5   -0.24250      0.99967     2.72636    0.01647     3.74250
      N    6   -0.32718      0.99976     2.81452    0.01290     3.82718
      O    7   -0.38030      0.99988     3.37394    0.00647     4.38030
      C    8    0.34052      0.99965     1.63499    0.02485     2.65948
      O    9   -0.34702      0.99986     3.34093    0.00624     4.34702
      N   10   -0.22678      0.99965     2.71444    0.01269     3.72678
      N   11   -0.32043      0.99977     2.80816    0.01250     3.82043
      O   12   -0.48088      0.99991     3.47530    0.00567     4.48088
      H   13    0.11747      0.00000     0.38146    0.00107     0.38253
      H   14    0.11360      0.00000     0.38463    0.00178     0.38640
      H   15    0.10947      0.00000     0.38876    0.00177     0.39053
      H   16    0.18835      0.00000     0.30799    0.00366     0.31165
      H   17    0.19368      0.00000     0.27139    0.03493     0.30632
      H   18    0.18324      0.00000     0.30595    0.01082     0.31676
      H   19    0.24703      0.00000     0.24987    0.00310     0.25297
      H   20    0.18904      0.00000     0.30885    0.00211     0.31096
      H   21    0.18724      0.00000     0.30943    0.00333     0.31276
      H   22    0.17602      0.00000     0.32148    0.00250     0.32398
      H   23    0.24695      0.00000     0.25056    0.00249     0.25305
      H   24    0.24635      0.00000     0.25124    0.00241     0.25365
 =======================================================================
   * Total *    0.00000     11.99676    35.77815    0.22510    48.00000

 Normal termination of Gaussian 16 at Wed Dec  9 17:20:44 2020.
