 Gaussian 16, Revision A.03,

 -----------------------------------------------------------
 # opt freq B3LYP/6-31G(d) empiricaldispersion=gd3bj scf=xqc
 -----------------------------------------------------------

 -------------------------------
 CID_115083875_JID_7157_neutraal
 -------------------------------
 Symbolic Z-matrix:
 Charge =  0 Multiplicity = 1

 SCF Done:  E(RB3LYP) =  -784.864478463     A.U. after   15 cycles
 SCF Done:  E(RB3LYP) =  -784.868161025     A.U. after   12 cycles
 SCF Done:  E(RB3LYP) =  -784.868772600     A.U. after   11 cycles
 SCF Done:  E(RB3LYP) =  -784.868921843     A.U. after   10 cycles
 SCF Done:  E(RB3LYP) =  -784.869019455     A.U. after   11 cycles
 SCF Done:  E(RB3LYP) =  -784.869069262     A.U. after   11 cycles
 SCF Done:  E(RB3LYP) =  -784.869175283     A.U. after   12 cycles
 SCF Done:  E(RB3LYP) =  -784.869213758     A.U. after   11 cycles
 SCF Done:  E(RB3LYP) =  -784.869223721     A.U. after    9 cycles
 SCF Done:  E(RB3LYP) =  -784.869227228     A.U. after    9 cycles
 SCF Done:  E(RB3LYP) =  -784.869229619     A.U. after    8 cycles
 SCF Done:  E(RB3LYP) =  -784.869229677     A.U. after    7 cycles
 SCF Done:  E(RB3LYP) =  -784.869229715     A.U. after    7 cycles
 SCF Done:  E(RB3LYP) =  -784.869229731     A.U. after    7 cycles
 SCF Done:  E(RB3LYP) =  -784.869229739     A.U. after    6 cycles
 Optimization completed.
    -- Stationary point found.
 Normal termination of Gaussian 16 at Sun Dec 13 16:10:08 2020.

 --------------------------------------------------------------------
 #N Geom=AllCheck Guess=TCheck SCRF=Check GenChk RB3LYP/6-31G(d) Freq
 --------------------------------------------------------------------

 Structure from the checkpoint file:  "JID_7157.chk"
 -------------------------------
 CID_115083875_JID_7157_neutraal
 -------------------------------
 Charge =  0 Multiplicity = 1

 SCF Done:  E(RB3LYP) =  -784.869229739     A.U. after    1 cycles

  Exact polarizability: 176.854   2.469 153.496  14.558   4.950 105.253
 Approx polarizability: 231.432  15.172 248.878  30.806  11.675 172.641

                      1                      2                      3
                      A                      A                      A
 Frequencies --     13.3675                19.1302                39.4315
 Red. masses --      5.2524                 4.3466                 3.8130
 Frc consts  --      0.0006                 0.0009                 0.0035
 IR Inten    --      0.3468                 0.0419                 1.2215

                      4                      5                      6
                      A                      A                      A
 Frequencies --     58.6852                89.1302               118.3583
 Red. masses --      5.3322                 3.2897                 5.2236
 Frc consts  --      0.0108                 0.0154                 0.0431
 IR Inten    --      1.4176                 3.6516                 0.1708

                      7                      8                      9
                      A                      A                      A
 Frequencies --    124.5902               157.3576               225.8593
 Red. masses --      4.4393                 3.8115                 3.0879
 Frc consts  --      0.0406                 0.0556                 0.0928
 IR Inten    --      0.9203                 1.6795                 1.2152

                     10                     11                     12
                      A                      A                      A
 Frequencies --    238.0433               263.8866               267.1733
 Red. masses --      2.0727                 1.1818                 2.0446
 Frc consts  --      0.0692                 0.0485                 0.0860
 IR Inten    --      0.8051                 0.3517                 2.6630

                     13                     14                     15
                      A                      A                      A
 Frequencies --    298.3011               333.5994               344.9222
 Red. masses --      2.6242                 3.6537                 3.0715
 Frc consts  --      0.1376                 0.2396                 0.2153
 IR Inten    --      2.2438                 0.9430                 1.7454

                     16                     17                     18
                      A                      A                      A
 Frequencies --    375.7868               402.3668               451.5942
 Red. masses --      2.4022                 1.1949                 4.1614
 Frc consts  --      0.1999                 0.1140                 0.5000
 IR Inten    --     15.6566               117.7248                34.7879

                     19                     20                     21
                      A                      A                      A
 Frequencies --    464.0847               497.0288               514.2967
 Red. masses --      3.6218                 4.0023                 3.3214
 Frc consts  --      0.4596                 0.5825                 0.5176
 IR Inten    --      8.4856                 2.6608                 8.4487

                     22                     23                     24
                      A                      A                      A
 Frequencies --    538.3236               563.6786               605.9929
 Red. masses --      4.0557                 4.4507                 6.0854
 Frc consts  --      0.6925                 0.8332                 1.3167
 IR Inten    --      4.5070                 4.5152                 2.2552

                     25                     26                     27
                      A                      A                      A
 Frequencies --    650.6555               692.1912               730.0298
 Red. masses --      3.5568                 2.4177                 3.4543
 Frc consts  --      0.8872                 0.6825                 1.0847
 IR Inten    --      5.2304                 2.5834                12.2720

                     28                     29                     30
                      A                      A                      A
 Frequencies --    738.5372               759.1298               765.8056
 Red. masses --      2.5519                 2.7044                 1.3994
 Frc consts  --      0.8201                 0.9182                 0.4835
 IR Inten    --     10.9805                 9.1675                52.8769

                     31                     32                     33
                      A                      A                      A
 Frequencies --    779.9290               812.1707               848.8744
 Red. masses --      4.2345                 3.5327                 2.9130
 Frc consts  --      1.5176                 1.3729                 1.2367
 IR Inten    --      5.2208                 6.6361                 3.3228

                     34                     35                     36
                      A                      A                      A
 Frequencies --    869.4369               911.9160               919.3521
 Red. masses --      2.0146                 2.4186                 2.3005
 Frc consts  --      0.8972                 1.1850                 1.1456
 IR Inten    --      3.4087                19.1727                 8.8864

                     37                     38                     39
                      A                      A                      A
 Frequencies --    937.8368               972.0280               988.6021
 Red. masses --      1.3852                 1.2463                 4.2764
 Frc consts  --      0.7178                 0.6938                 2.4625
 IR Inten    --      1.1572                 0.0314                 2.5077

                     40                     41                     42
                      A                      A                      A
 Frequencies --   1007.5952              1040.4009              1073.5969
 Red. masses --      3.1029                 2.1456                 4.1337
 Frc consts  --      1.8561                 1.3683                 2.8072
 IR Inten    --     14.7355                51.9136                23.4493

                     43                     44                     45
                      A                      A                      A
 Frequencies --   1087.0684              1106.1819              1109.3565
 Red. masses --      2.7207                 2.6551                 2.5971
 Frc consts  --      1.8943                 1.9142                 1.8831
 IR Inten    --     20.4366                12.3965                92.0475

                     46                     47                     48
                      A                      A                      A
 Frequencies --   1132.3776              1146.4769              1186.4921
 Red. masses --      2.9334                 2.0846                 1.2732
 Frc consts  --      2.2162                 1.6144                 1.0560
 IR Inten    --     30.0660                25.8068                 0.7932

                     49                     50                     51
                      A                      A                      A
 Frequencies --   1192.7603              1198.9481              1209.3520
 Red. masses --      1.5536                 1.1054                 2.1174
 Frc consts  --      1.3023                 0.9362                 1.8246
 IR Inten    --     12.7367                 5.2757                12.8290

                     52                     53                     54
                      A                      A                      A
 Frequencies --   1226.2719              1229.9801              1285.2128
 Red. masses --      1.5571                 1.2376                 2.6385
 Frc consts  --      1.3795                 1.1032                 2.5678
 IR Inten    --      0.7407                 2.5169                11.9468

                     55                     56                     57
                      A                      A                      A
 Frequencies --   1301.5478              1313.9613              1334.4206
 Red. masses --      4.0805                 2.0063                 1.6434
 Frc consts  --      4.0727                 2.0409                 1.7242
 IR Inten    --    182.2274                 3.8393                13.5801

                     58                     59                     60
                      A                      A                      A
 Frequencies --   1352.2032              1363.5367              1376.3339
 Red. masses --      1.6006                 1.8647                 2.5003
 Frc consts  --      1.7243                 2.0427                 2.7906
 IR Inten    --      3.7943                28.3842                25.2424

                     61                     62                     63
                      A                      A                      A
 Frequencies --   1391.8197              1426.0673              1449.9088
 Red. masses --      2.4583                 1.2554                 1.2433
 Frc consts  --      2.8058                 1.5043                 1.5400
 IR Inten    --     13.3847                 7.7273                90.1461

                     64                     65                     66
                      A                      A                      A
 Frequencies --   1493.1285              1494.3198              1511.8658
 Red. masses --      1.3635                 1.1425                 1.7940
 Frc consts  --      1.7910                 1.5032                 2.4161
 IR Inten    --     23.3833                14.5137                 1.3236

                     67                     68                     69
                      A                      A                      A
 Frequencies --   1518.9228              1520.9663              1524.4939
 Red. masses --      1.0547                 1.0477                 1.0633
 Frc consts  --      1.4337                 1.4280                 1.4560
 IR Inten    --     10.2537                 5.1653                 0.1185

                     70                     71                     72
                      A                      A                      A
 Frequencies --   1533.8321              1553.6889              1621.2884
 Red. masses --      1.1202                 2.1732                 8.9407
 Frc consts  --      1.5528                 3.0909                13.8466
 IR Inten    --     55.4863                47.0764                82.1494

                     73                     74                     75
                      A                      A                      A
 Frequencies --   1650.6359              1651.9598              1664.1262
 Red. masses --      6.5103                 6.6033                 5.8682
 Frc consts  --     10.4510                10.6172                 9.5747
 IR Inten    --      5.1475                13.1983                31.8499

                     76                     77                     78
                      A                      A                      A
 Frequencies --   3027.7994              3051.4447              3072.2816
 Red. masses --      1.0347                 1.0346                 1.0865
 Frc consts  --      5.5886                 5.6757                 6.0425
 IR Inten    --     57.7616                18.5808                24.2578

                     79                     80                     81
                      A                      A                      A
 Frequencies --   3087.6355              3089.7105              3122.9492
 Red. masses --      1.1066                 1.0592                 1.1020
 Frc consts  --      6.2157                 5.9575                 6.3323
 IR Inten    --     40.0787                 8.7628                29.5055

                     82                     83                     84
                      A                      A                      A
 Frequencies --   3137.0438              3139.9895              3160.6128
 Red. masses --      1.1036                 1.1047                 1.1000
 Frc consts  --      6.3989                 6.4173                 6.4741
 IR Inten    --     32.2811                 2.2525                22.5821

                     85                     86                     87
                      A                      A                      A
 Frequencies --   3183.9162              3192.8029              3212.5378
 Red. masses --      1.0870                 1.0893                 1.0952
 Frc consts  --      6.4923                 6.5423                 6.6594
 IR Inten    --      3.4402                12.8833                25.2444

                     88                     89                     90
                      A                      A                      A
 Frequencies --   3229.6282              3314.1438              3700.9355
 Red. masses --      1.0921                 1.1000                 1.0656
 Frc consts  --      6.7115                 7.1185                 8.5992
 IR Inten    --     11.7011                 0.5644                30.5331

 - Thermochemistry -
 -------------------
 Temperature   298.150 Kelvin.  Pressure   1.00000 Atm.
 Atom     1 has atomic number  6 and mass  12.00000

 Molecular mass:   233.10519 amu.
 Principal axes and moments of inertia in atomic units:
                           1         2         3
     Eigenvalues --  1919.152887358.945838468.26447
           X            0.99997   0.00202   0.00716
           Y           -0.00211   0.99993   0.01205
           Z           -0.00713  -0.01207   0.99990
 This molecule is an asymmetric top.
 Rotational symmetry number  1.
 Warning -- assumption of classical behavior for rotation
           may cause significant error
 Rotational temperatures (Kelvin)      0.04513     0.01177     0.01023
 Rotational constants (GHZ):           0.94038     0.24524     0.21312
 Zero-point vibrational energy     690161.6 (Joules/Mol)
                                  164.95259 (Kcal/Mol)
 Warning -- explicit consideration of  24 degrees of freedom as
           vibrations may cause significant error
 Vibrational temperatures:     19.23    27.52    56.73    84.43   128.24
          (Kelvin)            170.29   179.26   226.40   324.96   342.49
                              379.67   384.40   429.19   479.98   496.27
                              540.67   578.92   649.74   667.71   715.11
                              739.96   774.53   811.01   871.89   936.15
                              995.91  1050.35  1062.59  1092.22  1101.82
                             1122.14  1168.53  1221.34  1250.93  1312.04
                             1322.74  1349.34  1398.53  1422.38  1449.70
                             1496.90  1544.67  1564.05  1591.55  1596.12
                             1629.24  1649.52  1707.10  1716.12  1725.02
                             1739.99  1764.33  1769.67  1849.13  1872.64
                             1890.50  1919.93  1945.52  1961.83  1980.24
                             2002.52  2051.79  2086.10  2148.28  2149.99
                             2175.24  2185.39  2188.33  2193.41  2206.84
                             2235.41  2332.67  2374.90  2376.80  2394.31
                             4356.33  4390.35  4420.33  4442.42  4445.40
                             4493.23  4513.51  4517.74  4547.42  4580.95
                             4593.73  4622.13  4646.71  4768.31  5324.82

 Zero-point correction=                           0.262869 (Hartree/Particle)
 Thermal correction to Energy=                    0.278809
 Thermal correction to Enthalpy=                  0.279753
 Thermal correction to Gibbs Free Energy=         0.216515
 Sum of electronic and zero-point Energies=           -784.606361
 Sum of electronic and thermal Energies=              -784.590421
 Sum of electronic and thermal Enthalpies=            -784.589476
 Sum of electronic and thermal Free Energies=         -784.652715

                     E (Thermal)             CV                S
                      KCal/Mol        Cal/Mol-Kelvin    Cal/Mol-Kelvin
 Total                  174.955             59.857            133.097
 Electronic               0.000              0.000              0.000
 Translational            0.889              2.981             42.241
 Rotational               0.889              2.981             33.147
 Vibrational            173.178             53.896             57.709
 Vibration     1          0.593              1.987              7.434
 Vibration     2          0.593              1.986              6.722
 Vibration     3          0.594              1.981              5.287
 Vibration     4          0.596              1.974              4.501
 Vibration     5          0.602              1.957              3.679
 Vibration     6          0.609              1.934              3.127
 Vibration     7          0.610              1.928              3.028
 Vibration     8          0.621              1.894              2.581
 Vibration     9          0.650              1.802              1.912
 Vibration    10          0.656              1.782              1.817
 Vibration    11          0.670              1.739              1.636
 Vibration    12          0.672              1.733              1.614
 Vibration    13          0.691              1.677              1.426
 Vibration    14          0.715              1.608              1.243
 Vibration    15          0.723              1.586              1.189
 Vibration    16          0.747              1.522              1.056
 Vibration    17          0.768              1.465              0.954
 Vibration    18          0.810              1.357              0.791
 Vibration    19          0.822              1.330              0.754
 Vibration    20          0.853              1.257              0.666
 Vibration    21          0.869              1.218              0.623
 Vibration    22          0.893              1.165              0.569
 Vibration    23          0.919              1.110              0.517
 Vibration    24          0.965              1.019              0.439

 Optimization completed.
    -- Stationary point found.
 Normal termination of Gaussian 16 at Sun Dec 13 16:20:39 2020.

 ----------------------------------------------------------------------
 # B3LYP/6-311++G(d,p) empiricaldispersion=gd3bj scf=xqc pop=npa geom=c
 heck
 ----------------------------------------------------------------------

 ---------------------------------------
 CID_115083875_JID_7157_Energie_neutraal
 ---------------------------------------
 Structure from the checkpoint file:  "JID_7157.chk"
 Charge =  0 Multiplicity = 1

 SCF Done:  E(RB3LYP) =  -785.092992033     A.U. after   16 cycles
 Normal termination of Gaussian 16 at Sun Dec 13 16:26:03 2020.

 ----------------------------------------------------------------------
 # B3LYP/6-311++G(d,p) empiricaldispersion=gd3bj scf=xqc pop=npa geom=c
 heck
 ----------------------------------------------------------------------

 -------------------------------------
 CID_115083875_JID_7157_Energie_kation
 -------------------------------------
 Structure from the checkpoint file:  "JID_7157.chk"
 Charge =  1 Multiplicity = 2

 SCF Done:  E(UB3LYP) =  -784.800446657     A.U. after   23 cycles
 Normal termination of Gaussian 16 at Sun Dec 13 16:37:00 2020.
 Gaussian 16:  ES64L-G16RevA.03 25-Dec-2016

 ----------------------------------------------------------------------
 # B3LYP/6-311++G(d,p) empiricaldispersion=gd3bj scf=xqc pop=npa geom=c
 heck
 ----------------------------------------------------------------------

 ------------------------------------
 CID_115083875_JID_7157_Energie_anion
 ------------------------------------
 Structure from the checkpoint file:  "JID_7157.chk"
 Charge = -1 Multiplicity = 2

                         Standard orientation:
 ---------------------------------------------------------------------
 Center     Atomic      Atomic             Coordinates (Angstroms)
 Number     Number       Type             X           Y           Z
 ---------------------------------------------------------------------
      1          6           0        4.998830   -0.433213    0.438589
      2          6           0        4.038141    0.148121   -0.605759
      3          6           0        2.631128   -0.325264   -0.376993
      4          6           0        1.862310   -1.250500   -0.998934
      5          8           0        0.643504   -1.291138   -0.359045
      6          6           0        0.738728   -0.362723    0.631040
      7          7           0        1.891424    0.237154    0.667309
      8          6           0       -0.459918   -0.113014    1.486199
      9          6           0       -1.591071    0.529970    0.705195
     10          6           0       -1.635699    1.909946    0.519470
     11          6           0       -2.654696    2.511364   -0.221883
     12          6           0       -3.644274    1.713167   -0.788528
     13          6           0       -3.621482    0.326689   -0.620328
     14          6           0       -2.594538   -0.265844    0.121018
     15          8           0       -2.485119   -1.610366    0.337291
     16          6           0       -3.449912   -2.464896   -0.251240
     17          8           0        4.074001    1.573156   -0.592076
     18          1           0        4.662120   -0.166325    1.446382
     19          1           0        6.002303   -0.025172    0.283665
     20          1           0        5.042408   -1.526367    0.370169
     21          1           0        4.364347   -0.152984   -1.607571
     22          1           0        1.992108   -1.920510   -1.833108
     23          1           0       -0.798440   -1.055488    1.925573
     24          1           0       -0.135969    0.548111    2.293764
     25          1           0       -0.851484    2.519308    0.961787
     26          1           0       -2.671606    3.588715   -0.353607
     27          1           0       -4.445574    2.162979   -1.368003
     28          1           0       -4.399508   -0.279138   -1.069167
     29          1           0       -3.164139   -3.478948    0.032756
     30          1           0       -4.459493   -2.252221    0.124255
     31          1           0       -3.446543   -2.378320   -1.345385
     32          1           0        3.505129    1.840250    0.150887
 ---------------------------------------------------------------------

 SCF Done:  E(UB3LYP) =  -785.080499454     A.U. after   33 cycles
 SCF Done:  E(UB3LYP) =  -785.080499454     a.u. after    1 cycles

 The electronic state is 2-A.
 Alpha  occ. eigenvalues --  -19.10909 -19.06087 -19.03720 -14.22619 -10.17866
 Alpha  occ. eigenvalues --  -10.14933 -10.14461 -10.13914 -10.12298 -10.11745
 Alpha  occ. eigenvalues --  -10.10335 -10.09430 -10.08654 -10.08531 -10.08097
 Alpha  occ. eigenvalues --  -10.08091 -10.08019  -1.04459  -0.97752  -0.94317
 Alpha  occ. eigenvalues --   -0.83751  -0.77149  -0.72375  -0.68766  -0.66272
 Alpha  occ. eigenvalues --   -0.65708  -0.61820  -0.59786  -0.56498  -0.52276
 Alpha  occ. eigenvalues --   -0.51190  -0.50492  -0.49308  -0.45072  -0.43836
 Alpha  occ. eigenvalues --   -0.40696  -0.40248  -0.39196  -0.38443  -0.37469
 Alpha  occ. eigenvalues --   -0.37250  -0.35817  -0.35060  -0.34200  -0.33413
 Alpha  occ. eigenvalues --   -0.32724  -0.31790  -0.31468  -0.30782  -0.29093
 Alpha  occ. eigenvalues --   -0.28307  -0.28094  -0.26609  -0.25965  -0.24032
 Alpha  occ. eigenvalues --   -0.23258  -0.22862  -0.21630  -0.19650  -0.16737
 Alpha  occ. eigenvalues --   -0.15603  -0.13459   0.04100
 Alpha virt. eigenvalues --    0.05695   0.06372   0.06703   0.07095   0.07507
 Alpha virt. eigenvalues --    0.07880   0.08539   0.08814   0.09003   0.09222
 Alpha virt. eigenvalues --    0.09614   0.10593   0.10688   0.11060   0.11351

  Beta  occ. eigenvalues --  -19.10892 -19.06076 -19.03718 -14.22610 -10.17852
  Beta  occ. eigenvalues --  -10.14926 -10.14461 -10.13886 -10.12241 -10.11750
  Beta  occ. eigenvalues --  -10.10332 -10.09418 -10.08641 -10.08505 -10.08082
  Beta  occ. eigenvalues --  -10.08070 -10.08017  -1.04432  -0.97729  -0.94311
  Beta  occ. eigenvalues --   -0.83732  -0.77120  -0.72344  -0.68740  -0.66238
  Beta  occ. eigenvalues --   -0.65672  -0.61774  -0.59729  -0.56470  -0.52231
  Beta  occ. eigenvalues --   -0.51165  -0.50448  -0.49277  -0.45037  -0.43793
  Beta  occ. eigenvalues --   -0.40654  -0.40208  -0.39163  -0.38390  -0.37429
  Beta  occ. eigenvalues --   -0.37222  -0.35781  -0.35028  -0.34176  -0.33370
  Beta  occ. eigenvalues --   -0.32694  -0.31753  -0.31446  -0.30762  -0.29074
  Beta  occ. eigenvalues --   -0.28263  -0.28056  -0.26581  -0.25949  -0.23982
  Beta  occ. eigenvalues --   -0.23214  -0.22822  -0.21615  -0.19639  -0.16658
  Beta  occ. eigenvalues --   -0.15537  -0.13419
  Beta virt. eigenvalues --    0.05995   0.06450   0.06818   0.07232   0.07484
  Beta virt. eigenvalues --    0.07909   0.08084   0.08742   0.09056   0.09322
  Beta virt. eigenvalues --    0.09599   0.10075   0.10817   0.11177   0.11370

 Mulliken charges and spin densities:
               1          2
     1  C    0.110135  -0.601868
     2  C   -0.622556   0.378013
     3  C    0.730624  -0.430855
     4  C   -0.107851   0.023442
     5  O   -0.000707   0.029116
     6  C   -0.029579  -0.566432
     7  N    0.005885   0.079119
     8  C    0.664798  -1.170973
     9  C    0.328215   0.836601
    10  C   -0.491667   0.397706
    11  C   -0.007905  -0.499660
    12  C    1.234566  -1.427685
    13  C    0.580664  -0.584369
    14  C   -1.915246   0.973520
    15  O   -0.193699   0.074223
    16  C    1.169392  -1.464178
    17  O   -0.183302  -0.003369
    18  H    0.074155   0.089471
    19  H   -0.008910   0.150274
    20  H   -0.011398   0.151695
    21  H   -0.047805   0.244927
    22  H   -0.635523   0.837373
    23  H    0.098050   0.126880
    24  H    0.035376   0.178173
    25  H    0.061807   0.087032
    26  H   -0.037309   0.186850
    27  H   -0.379573   0.539112
    28  H   -0.391567   0.580357
    29  H   -0.610828   0.786117
    30  H   -0.396447   0.555881
    31  H   -0.271378   0.435974
    32  H    0.249584   0.007531
 Sum of Mulliken charges =  -1.00000   1.00000

 Dipole moment (field-independent basis, Debye):
    X=              4.9082    Y=              3.6592    Z=              3.4093  Tot=              7.0074
 Quadrupole moment (field-independent basis, Debye-Ang):
   XX=           -201.7412   YY=           -150.9635   ZZ=           -133.1066
   XY=            -13.5827   XZ=             -1.8554   YZ=             -1.4236

 Summary of Natural Population Analysis:

                                       Natural Population
                Natural  -----------------------------------------------
    Atom  No    Charge         Core      Valence    Rydberg      Total
 -----------------------------------------------------------------------
      C    1   -0.29137      0.99965     2.28696    0.00476     3.29137
      C    2    0.04995      0.99954     1.93547    0.01504     2.95005
      C    3    0.02649      0.99952     1.95874    0.01525     2.97351
      C    4    0.04888      0.99941     1.93841    0.01329     2.95112
      O    5   -0.22875      0.99986     3.22111    0.00778     4.22875
      C    6    0.28801      0.99960     1.69307    0.01932     2.71199
      N    7   -0.27446      0.99966     2.76596    0.00884     3.77446
      C    8   -0.22516      0.99955     2.21628    0.00933     3.22516
      C    9   -0.03393      0.99946     2.02444    0.01003     3.03393
      C   10   -0.09028      0.99952     2.08211    0.00865     3.09028
      C   11   -0.11727      0.99956     2.10809    0.00962     3.11727
      C   12   -0.08894      0.99957     2.07875    0.01062     3.08894
      C   13   -0.13832      0.99952     2.12958    0.00922     3.13832
      C   14    0.16662      0.99933     1.82035    0.01369     2.83338
      O   15   -0.27289      0.99986     3.26303    0.01001     4.27289
      C   16   -0.09973      0.99960     2.09096    0.00917     3.09973
      O   17   -0.36958      0.99990     3.36330    0.00638     4.36958
      H   18    0.10116      0.00000     0.39767    0.00117     0.39884
      H   19    0.10045      0.00000     0.39849    0.00107     0.39955
      H   20    0.10077      0.00000     0.39796    0.00127     0.39923
      H   21    0.09122      0.00000     0.40685    0.00192     0.40878
      H   22    0.10319      0.00000     0.39521    0.00160     0.39681
      H   23    0.12313      0.00000     0.37517    0.00170     0.37687
      H   24    0.11506      0.00000     0.38372    0.00122     0.38494
      H   25    0.10059      0.00000     0.39836    0.00105     0.39941
      H   26    0.09995      0.00000     0.39924    0.00081     0.40005
      H   27    0.10120      0.00000     0.39768    0.00112     0.39880
      H   28    0.11000      0.00000     0.38808    0.00192     0.39000
      H   29    0.09648      0.00000     0.40174    0.00178     0.40352
      H   30    0.08646      0.00000     0.41098    0.00255     0.41354
      H   31    0.08695      0.00000     0.41091    0.00214     0.41305
      H   32    0.23413      0.00000     0.26279    0.00308     0.26587
 =======================================================================
   * Total *    0.00000     16.99311    44.80149    0.20541    62.00000

 Normal termination of Gaussian 16 at Sun Dec 13 16:53:03 2020.
